   * xtb version 6.5.1 (b24c23e) compiled by 'conda@728c89f4b128' on 2022-07-12
          program call               : xtb Fe_p-CP_C2_3.xyz --gfn 1 --opt -T 48

   ID    Z sym.   atoms
    1   26 Fe     1, 63, 129
    2    6 C      2-6, 8-11, 13-24, 27-32, 35-39, 42, 43, 64-68, 70-73,
                  75-86, 89-94, 97-101, 104, 105, 125-128, 130-134, 136-139,
                  141-152, 155-160, 163-167, 170, 171
    3    7 N      7, 12, 33, 34, 69, 74, 95, 96, 135, 140, 161, 162
    4    8 O      25, 26, 40, 41, 87, 88, 102, 103, 153, 154, 168, 169
    5    1 H      44-62, 106-124, 172-189
########################################################################
[WARNING] Please study the warnings concerning your input carefully
-1- prog_main_parseArguments: Unknown option '-T' provided
########################################################################

          :  Hamiltonian                  GFN1-xTB          :
 * total energy  :  -357.1453095 Eh     change       -0.2079162E-08 Eh
 * total energy  :  -357.7034006 Eh     change       -0.5580912E+00 Eh
 * total energy  :  -357.8506055 Eh     change       -0.1472049E+00 Eh
 * total energy  :  -357.9256252 Eh     change       -0.7501968E-01 Eh
 * total energy  :  -357.9566039 Eh     change       -0.3097870E-01 Eh
 * total energy  :  -357.9715394 Eh     change       -0.1493545E-01 Eh
 * total energy  :  -357.9793070 Eh     change       -0.7767673E-02 Eh
 * total energy  :  -357.9837284 Eh     change       -0.4421383E-02 Eh
 * total energy  :  -357.9860235 Eh     change       -0.2295053E-02 Eh
 * total energy  :  -357.9871695 Eh     change       -0.1146020E-02 Eh
 * total energy  :  -357.9910262 Eh     change       -0.2399974E-04 Eh
 * total energy  :  -357.9910456 Eh     change       -0.1930955E-04 Eh
 * total energy  :  -357.9910638 Eh     change       -0.1824437E-04 Eh
 * total energy  :  -357.9910812 Eh     change       -0.1742296E-04 Eh
 * total energy  :  -357.9910921 Eh     change       -0.1091284E-04 Eh
 * total energy  :  -357.9911103 Eh     change       -0.1814842E-04 Eh
 * total energy  :  -357.9911200 Eh     change       -0.9723700E-05 Eh
 * total energy  :  -357.9911346 Eh     change       -0.1454487E-04 Eh
 * total energy  :  -357.9911386 Eh     change       -0.4058202E-05 Eh
   *** GEOMETRY OPTIMIZATION CONVERGED AFTER 44 ITERATIONS ***

 final structure:
================
189
 xtb: 6.5.1 (b24c23e)
Fe          38.61916827062630       -0.09186087326043        0.01736473468905
C           35.23956112204022       -0.16297522376304        0.04096284479693
C           35.90088013640337       -0.35505031814895        1.23699966250025
C           35.23921454687152       -0.60038249184688        2.48305783120598
C           36.19445738260777       -0.57615835551227        3.44197660896377
C           37.44246162368483       -0.32456664921409        2.78002839069209
N           37.25039510982762       -0.21561028879540        1.42875812585701
C           38.64306451235976       -0.08653811536158        3.43926626641084
C           39.83252074636280        0.16792254841907        2.76890104504922
C           41.08992328349120        0.39319544605015        3.41852205242381
C           42.03371795602533        0.42179634539691        2.44720069760260
N           40.00689054347010        0.09810242333166        1.40815067780406
C           41.35388423955710        0.20669292213230        1.20771014887972
C           42.01195312221648       -0.00636419273775       -0.00461884730482
C           41.34007447657584       -0.21575444522126       -1.20990672277792
C           42.00059912024388       -0.43906974493945       -2.45814461093824
C           41.04404883632292       -0.39591755749598       -3.41720201369510
C           39.80061993426147       -0.14496735024971       -2.75104725539435
C           38.59137109557631        0.06518083043194       -3.40338701184267
C           38.58730389207798        0.13601134297747       -4.88178677201318
C           37.83608679644696       -0.76854762925222       -5.63703489363352
C           37.83338022668995       -0.69135233464554       -7.01755072516829
C           38.57761155994539        0.29408411290974       -7.66898184545866
C           38.53687173560353        0.34082792888473       -9.15037540891047
O           39.28378109654248        1.32292835335935       -9.67715607353725
O           37.90066924029283       -0.41705087047497       -9.83751225053900
C           39.33053712058069        1.19870095063262       -6.91969618567044
C           39.33640561173253        1.11611015308756       -5.53844103148002
C           37.38742020522803        0.20245498813723       -2.72202833302972
C           36.12045916511544        0.43314458508261       -3.35503092401846
C           35.17772093232273        0.34883691077402       -2.38704498235515
C           35.86935695778183        0.08845242977278       -1.16057593416638
N           37.22353807995641        0.05515621226724       -1.37013673910551
N           39.99263328742265       -0.08284491723815       -1.39396367163467
C           38.65575672747065       -0.12178925643711        4.92109795259533
C           38.39823762211169       -1.31729235483154        5.59651095608661
C           38.41190211697464       -1.35371756882080        6.97868279278388
C           38.67998095301313       -0.19514603277644        7.71005638224039
C           38.68362743654083       -0.28517149981732        9.19013928065891
O           38.96425218202246        0.87729818189547        9.79806379809244
O           38.45607475273638       -1.29247846155199        9.81056949746872
C           38.93527376690497        1.00130216954743        7.03949005838109
C           38.92477879642119        1.03497742746767        5.65569189633641
H           34.15616310510983       -0.20080029158435        0.04829790500451
H           34.17736569747697       -0.75381385609446        2.59178287063202
H           36.07466508488680       -0.69926213992374        4.50607474924415
H           41.22629889314576        0.49335423719659        4.48293134484398
H           43.09890807141547        0.55563940879665        2.54685176611930
H           43.06091562534485       -0.59896101860660       -2.57075548965900
H           41.15845207768972       -0.52905291975372       -4.48069372320416
H           37.26791801466951       -1.54274331949585       -5.13411785471579
H           37.25599212121628       -1.39261217814295       -7.60997950746813
H           39.20196082954736        1.28632671072737      -10.64401942803264
H           39.90822058954060        1.96624666743886       -7.42100070829281
H           39.91135028439530        1.82677120377758       -4.95545343274457
H           35.98268411588682        0.63183360640097       -4.40546217070295
H           34.10791573607440        0.45146207193695       -2.47585946930320
H           38.20230998215482       -2.22012331821855        5.02940401613935
H           38.21771426833538       -2.27892517718683        7.51007997766587
H           38.94581426795428        0.73409833555296       10.75829538885088
H           39.14007775315845        1.90349114969517        7.60362371966662
H           39.11122539827164        1.96707654576395        5.13441343992302
Fe          60.24780472704033       -0.07639583445281       -0.06344320648476
C           63.62561454460280       -0.14807684843465       -0.10118553576992
C           62.96187951202732       -0.20349006395987       -1.31023895840060
C           63.61920994967671       -0.30798963208934       -2.57822336242642
C           62.66189637617764       -0.16772140678801       -3.52528935437652
C           61.41724451969475        0.01467888809178       -2.83504430026051
N           61.61279734022331       -0.03649665613949       -1.48117924490105
C           60.21771511107656        0.34338780337425       -3.45721834299827
C           59.03255750919220        0.52899530500774       -2.75740194437964
C           57.77656023755863        0.84919764295879       -3.36860911510051
C           56.83456599127479        0.76009002635627       -2.39885592396355
N           58.85892575271150        0.28624102342248       -1.41633377532999
C           57.51422739337962        0.37900873325668       -1.20001658412584
C           56.85590663145436        0.00228274557935       -0.02639967318410
C           57.53128774159969       -0.37107151014078        1.13854482862204
C           56.87511347271073       -0.76284313148340        2.34681357943278
C           57.83264543909814       -0.83446255597501        3.30354580429114
C           59.07229377795301       -0.48583301026501        2.67549115098375
C           60.27980072221946       -0.34109547665452        3.34854144481064
C           60.28436107447492       -0.44710335904626        4.82456812809403
C           61.05317175273357       -1.42073944477189        5.46797821899256
C           61.05581374193336       -1.50782010869921        6.84790941201526
C           60.29377392187846       -0.62091961347090        7.61075910854379
C           60.33524369160610       -0.74978279344892        9.08748005430838
O           59.56817334532746        0.14640837231024        9.72598507443174
O           60.98904607811553       -1.56985045331874        9.68016234088821
C           59.52307000641360        0.35182454297819        6.97332664228792
C           59.51739479256931        0.43373791189458        5.59203028218279
C           61.48147467388389       -0.10901753673194        2.68796570527569
C           62.74773191642777        0.05750830098880        3.34211710106229
C           63.68963798837408        0.08992241557091        2.36997629389839
C           62.99779338708194       -0.03378344164592        1.12237992897625
N           61.64433413593957       -0.09888562393423        1.32829814362269
N           58.87710243391795       -0.25279993148001        1.33741503965162
C           60.20066169388846        0.48316182446788       -4.93275577661327
C           60.43709375850571       -0.62957250299729       -5.74372083925883
C           60.41516601689112       -0.50559912618310       -7.12065609291974
C           60.16090333863679        0.73366800438602       -7.71108891179616
C           60.14726702634062        0.81529534499185       -9.19162715830901
O           59.88614677635738        2.04513045063943       -9.65924497195690
O           60.34885105764136       -0.11842934341907       -9.92569068771792
C           59.92808670825620        1.84811332090791       -6.90479786972820
C           59.94600358626450        1.72114244393721       -5.52645951382896
H           64.70901204887176       -0.18472164426164       -0.11470536055512
H           64.67980808802643       -0.45428744967740       -2.70710720019968
H           62.77841770067048       -0.16812066259261       -4.59686317089154
H           57.63930331854157        1.08830042895532       -4.41052266029004
H           55.77050307415705        0.91536681287621       -2.47772345938305
H           55.81663376933208       -0.94655746095762        2.43859629542428
H           57.72107807279735       -1.10573179659850        4.34074495812789
H           61.63485527518992       -2.11931284791008        4.87742629455740
H           61.64682393892480       -2.26351120564598        7.35362398249609
H           59.65175156481425       -0.00249152438331       10.68187905695607
H           58.93143794550407        1.04333582976618        7.56147638873247
H           58.92877661326208        1.19776810199081        5.09682132497035
H           62.88582665506519        0.13679743512324        4.40818070706340
H           64.75887748975715        0.18876222874933        2.46918831985232
H           60.62252754406348       -1.59463797232030       -5.28615119100510
H           60.59232297311975       -1.36579897892989       -7.75687137674896
H           59.89568655239810        2.01344536859794      -10.62970697015430
H           59.73426239463675        2.81245580679426       -7.35933996347068
H           59.77633646054475        2.58913809331999       -4.89951719153604
C           43.42416533436572       -0.00676488472446       -0.01280367800900
C           44.63969931806735       -0.00662087024303       -0.01828812388159
C           54.23058140768025       -0.00063403401715        0.00030877645757
C           55.44695251244475        0.00092118395781       -0.01682894237829
Fe          49.43669058231795       -0.00326654343875       -0.05768851636826
C           46.05064251852664       -0.00480537846647       -0.01679445895548
C           46.72413860572908       -1.19934459328651       -0.28768934695726
C           46.08217886500603       -2.43456916434190       -0.61215146368991
C           47.03707112936240       -3.39636717388575       -0.55463644833961
C           48.25848679819033       -2.74567258191739       -0.18427337839316
N           48.06098736263392       -1.39230602933508       -0.08711311694918
C           49.43944890210825       -3.39864012473269        0.15745235578801
C           50.61776916278414       -2.71388333918022        0.43667402475867
C           51.84310273967663       -3.32670174550491        0.85598604385085
C           52.79575665935431       -2.36202405747115        0.82044341662418
N           50.80899747081138       -1.37006239350046        0.23243959615377
C           52.14872069392958       -1.16166956088266        0.39144695069016
C           52.82266231181215        0.00131748771287        0.00524376601697
C           52.15112583397563        1.16613956249609       -0.38147851856705
C           52.79730251397482        2.36588719719204       -0.81306443343394
C           51.84363244128727        3.32983849504533       -0.85137998230980
C           50.61805160271352        2.71663015653818       -0.43385083087468
C           49.43315004327153        3.39714810664918       -0.17216851517622
C           49.42803858079298        4.87354254218792       -0.25297200219482
C           50.30183807179156        5.62837553865540        0.53483169674286
C           50.29302823622986        7.00883771859526        0.45996431994059
C           49.41584702940553        7.66094310565023       -0.40866516613448
C           49.44659878714507        9.14299393318290       -0.45585643995480
O           48.56376332832129        9.67063062361618       -1.31671986056605
O           50.18375977734394        9.82870827657776        0.20557182898227
C           48.54427638055238        6.91230358925867       -1.20012962883619
C           48.54975102431561        5.53096185607881       -1.11886181245385
C           48.25119107641083        2.74080822405703        0.15879083337806
C           47.02234969242442        3.39131893096103        0.50475285981496
C           46.07024237788340        2.42706841177901        0.55875000487393
C           46.72053732909907        1.19065467492006        0.25519878759879
N           48.06249312188215        1.38402987347838        0.08643714023307
N           50.81396623740279        1.37772222072013       -0.20859438164464
C           49.43931322106065       -4.87555007775060        0.22626991896381
C           48.54856231367435       -5.54198931376265        1.07281952928955
C           48.54973886727339       -6.92283528590361        1.13930887197532
C           49.43615225587548       -7.66417694171202        0.35581887894516
C           49.39536679845836       -9.14332824772720        0.45890804465284
O           50.28171122029077       -9.76094525019789       -0.33564482443332
O           48.64751062898829       -9.75337873716813        1.17958588125103
C           50.32504622842801       -7.00435841381915       -0.49327963485122
C           50.32718892322897       -5.62181570689822       -0.55348212557546
H           45.03449981921450       -2.53912289487935       -0.84438759396064
H           46.93270606628123       -4.45187092131617       -0.74668345881818
H           51.95209425654557       -4.36149581541312        1.13725496324447
H           53.84591525606734       -2.44414456440116        1.05069015935588
H           53.84718191075212        2.44871379025056       -1.04431338678904
H           51.95133901849545        4.36342510718872       -1.13770987139613
H           50.97393737424245        5.12457007677018        1.22011086114442
H           50.96364137376821        7.60069543293853        1.07322352739397
H           48.64621588695914       10.63775720067475       -1.28817705728083
H           47.86479497982202        7.41411895196872       -1.87881354122333
H           47.88205674210084        4.94898576813434       -1.74408231366855
H           46.91103475712132        4.44884272942087        0.68103207765544
H           45.01834129959431        2.53036316094057        0.77172029465468
H           47.86894391995653       -4.96760115685373        1.69197554129594
H           47.86562301690239       -7.44572011122447        1.79860658529931
H           50.19190433511115      -10.71974874421159       -0.21074006811302
H           51.01185666940852       -7.57605572111726       -1.10613811644027
H           51.00787462780074       -5.10998025452775       -1.22437828492597

          :  Hamiltonian                  GFN1-xTB          :
         :: total energy            -357.991138611825 Eh    ::
         :: gradient norm              0.000946158463 Eh/a0 ::
         :: HOMO-LUMO gap              0.096882137715 eV    ::
         :: SCC energy              -363.085349966075 Eh    ::
         :: repulsion energy           5.268957794322 Eh    ::

    * Orbital Energies and Occupations

         #    Occupation            Energy/Eh            Energy/eV
      -------------------------------------------------------------
         1        2.0000           -0.8363884             -22.7593
       ...           ...                  ...                  ...
       306        2.0000           -0.4078719             -11.0988
       307        2.0000           -0.4070832             -11.0773
       308        1.9984           -0.4029989             -10.9662
       309        1.9939           -0.4017183             -10.9313
       310        1.9932           -0.4016165             -10.9285
       311        1.9926           -0.4015288             -10.9262
       312        1.9371           -0.3994721             -10.8702
       313        1.9343           -0.3994292             -10.8690
       314        1.9330           -0.3994097             -10.8685
       315        1.9277           -0.3993348             -10.8665
       316        1.9227           -0.3992687             -10.8647
       317        1.9150           -0.3991748             -10.8621
       318        1.7499           -0.3980642             -10.8319 (HOMO)
       319        0.2832           -0.3945039             -10.7350 (LUMO)
       320        0.2586           -0.3944039             -10.7323
       321        0.1604           -0.3938983             -10.7185
       322                         -0.3501219              -9.5273
       323                         -0.3437371              -9.3536
       324                         -0.3412451              -9.2858
       325                         -0.3407633              -9.2726
       326                         -0.3399588              -9.2507
       327                         -0.3366153              -9.1598
       328                         -0.3206078              -8.7242
       329                         -0.3164591              -8.6113
       ...                                ...                  ...
       659                          1.3274547              36.1219
      -------------------------------------------------------------
                  HL-Gap            0.0035604 Eh            0.0969 eV

Wiberg/Mayer (AO) data.
largest (>0.10) Wiberg bond orders for each atom

     #   Z sym  total        # sym  WBO       # sym  WBO       # sym  WBO
 ---------------------------------------------------------------------------
     1  26 Fe   3.227 --    33 N    0.687    12 N    0.680     7 N    0.678
                            34 N    0.671
     2   6 C    3.935 --    32 C    1.365     3 C    1.363    44 H    0.970
     3   6 C    3.922 --     2 C    1.363     7 N    1.207     4 C    1.172
     4   6 C    3.959 --     5 C    1.652     3 C    1.172    45 H    0.975
     5   6 C    3.960 --     4 C    1.652     6 C    1.173    46 H    0.972
     6   6 C    3.921 --     8 C    1.319     7 N    1.219     5 C    1.173
     7   7 N    3.389 --     6 C    1.219     3 C    1.207     1 Fe   0.678
     8   6 C    3.935 --     9 C    1.329     6 C    1.319    35 C    1.025
     9   6 C    3.917 --     8 C    1.329    12 N    1.204    10 C    1.179
    10   6 C    3.959 --    11 C    1.641     9 C    1.179    47 H    0.972
    11   6 C    3.960 --    10 C    1.641    13 C    1.185    48 H    0.973
    12   7 N    3.390 --    13 C    1.230     9 C    1.204     1 Fe   0.680
    13   6 C    3.914 --    14 C    1.275    12 N    1.230    11 C    1.185
    14   6 C    3.935 --    13 C    1.275    15 C    1.273   125 C    1.154
    15   6 C    3.914 --    14 C    1.273    34 N    1.227    16 C    1.186
    16   6 C    3.960 --    17 C    1.638    15 C    1.186    49 H    0.973
    17   6 C    3.960 --    16 C    1.638    18 C    1.180    50 H    0.973
    18   6 C    3.917 --    19 C    1.322    34 N    1.208    17 C    1.180
    19   6 C    3.936 --    18 C    1.322    29 C    1.320    20 C    1.034
    20   6 C    3.986 --    28 C    1.385    21 C    1.384    19 C    1.034
    21   6 C    3.986 --    22 C    1.464    20 C    1.384    51 H    0.972
                            27 C    0.102
    22   6 C    3.990 --    21 C    1.464    23 C    1.385    52 H    0.968
                            28 C    0.102
    23   6 C    3.982 --    27 C    1.388    22 C    1.385    24 C    1.009
    24   6 C    3.836 --    26 O    1.690    25 O    1.088    23 C    1.009
    25   8 O    2.097 --    24 C    1.088    53 H    0.838    26 O    0.129
    26   8 O    1.958 --    24 C    1.690    25 O    0.129
    27   6 C    3.991 --    28 C    1.462    23 C    1.388    54 H    0.970
                            21 C    0.102
    28   6 C    3.987 --    27 C    1.462    20 C    1.385    55 H    0.972
                            22 C    0.102
    29   6 C    3.921 --    19 C    1.320    33 N    1.219    30 C    1.173
    30   6 C    3.960 --    31 C    1.651    29 C    1.173    56 H    0.972
    31   6 C    3.959 --    30 C    1.651    32 C    1.172    57 H    0.975
    32   6 C    3.922 --     2 C    1.365    33 N    1.206    31 C    1.172
    33   7 N    3.391 --    29 C    1.219    32 C    1.206     1 Fe   0.687
    34   7 N    3.387 --    15 C    1.227    18 C    1.208     1 Fe   0.671
    35   6 C    3.986 --    43 C    1.389    36 C    1.386     8 C    1.025
    36   6 C    3.987 --    37 C    1.463    35 C    1.386    58 H    0.972
                            42 C    0.103
    37   6 C    3.990 --    36 C    1.463    38 C    1.386    59 H    0.968
                            43 C    0.103
    38   6 C    3.984 --    42 C    1.390    37 C    1.386    39 C    1.009
    39   6 C    3.836 --    41 O    1.690    40 O    1.088    38 C    1.009
    40   8 O    2.097 --    39 C    1.088    60 H    0.838    41 O    0.129
    41   8 O    1.959 --    39 C    1.690    40 O    0.129
    42   6 C    3.991 --    43 C    1.460    38 C    1.390    61 H    0.970
                            36 C    0.103
    43   6 C    3.988 --    42 C    1.460    35 C    1.389    62 H    0.972
                            37 C    0.103
    44   1 H    1.000 --     2 C    0.970
    45   1 H    0.997 --     4 C    0.975
    46   1 H    1.004 --     5 C    0.972
    47   1 H    1.004 --    10 C    0.972
    48   1 H    1.001 --    11 C    0.973
    49   1 H    1.001 --    16 C    0.973
    50   1 H    1.003 --    17 C    0.973
    51   1 H    1.004 --    21 C    0.972
    52   1 H    1.005 --    22 C    0.968
    53   1 H    0.873 --    25 O    0.838
    54   1 H    1.005 --    27 C    0.970
    55   1 H    1.004 --    28 C    0.972
    56   1 H    1.004 --    30 C    0.972
    57   1 H    0.997 --    31 C    0.975
    58   1 H    1.003 --    36 C    0.972
    59   1 H    1.005 --    37 C    0.968
    60   1 H    0.873 --    40 O    0.838
    61   1 H    1.005 --    42 C    0.970
    62   1 H    1.003 --    43 C    0.972
    63  26 Fe   3.210 --    95 N    0.684    74 N    0.676    69 N    0.675
                            96 N    0.667
    64   6 C    3.930 --    94 C    1.364    65 C    1.362   106 H    0.970
    65   6 C    3.922 --    64 C    1.362    69 N    1.208    66 C    1.172
    66   6 C    3.959 --    67 C    1.651    65 C    1.172   107 H    0.975
    67   6 C    3.961 --    66 C    1.651    68 C    1.174   108 H    0.973
    68   6 C    3.920 --    70 C    1.317    69 N    1.220    67 C    1.174
    69   7 N    3.385 --    68 C    1.220    65 C    1.208    63 Fe   0.675
    70   6 C    3.930 --    71 C    1.330    68 C    1.317    97 C    1.025
    71   6 C    3.917 --    70 C    1.330    74 N    1.202    72 C    1.179
    72   6 C    3.958 --    73 C    1.640    71 C    1.179   109 H    0.972
    73   6 C    3.960 --    72 C    1.640    75 C    1.186   110 H    0.973
    74   7 N    3.386 --    75 C    1.234    71 C    1.202    63 Fe   0.676
    75   6 C    3.912 --    76 C    1.267    74 N    1.234    73 C    1.186
    76   6 C    3.929 --    75 C    1.267    77 C    1.266   128 C    1.167
    77   6 C    3.912 --    76 C    1.266    96 N    1.231    78 C    1.187
    78   6 C    3.960 --    79 C    1.637    77 C    1.187   111 H    0.973
    79   6 C    3.959 --    78 C    1.637    80 C    1.181   112 H    0.973
    80   6 C    3.917 --    81 C    1.323    96 N    1.207    79 C    1.181
    81   6 C    3.931 --    80 C    1.323    91 C    1.318    82 C    1.034
    82   6 C    3.986 --    90 C    1.384    83 C    1.384    81 C    1.034
    83   6 C    3.986 --    84 C    1.464    82 C    1.384   113 H    0.972
                            89 C    0.102
    84   6 C    3.990 --    83 C    1.464    85 C    1.385   114 H    0.968
                            90 C    0.103
    85   6 C    3.982 --    89 C    1.388    84 C    1.385    86 C    1.008
    86   6 C    3.836 --    88 O    1.690    87 O    1.089    85 C    1.008
    87   8 O    2.097 --    86 C    1.089   115 H    0.838    88 O    0.129
    88   8 O    1.958 --    86 C    1.690    87 O    0.129
    89   6 C    3.991 --    90 C    1.462    85 C    1.388   116 H    0.969
                            83 C    0.102
    90   6 C    3.986 --    89 C    1.462    82 C    1.384   117 H    0.972
                            84 C    0.103
    91   6 C    3.921 --    81 C    1.318    95 N    1.220    92 C    1.173
    92   6 C    3.961 --    93 C    1.651    91 C    1.173   118 H    0.972
    93   6 C    3.959 --    92 C    1.651    94 C    1.172   119 H    0.975
    94   6 C    3.922 --    64 C    1.364    95 N    1.206    93 C    1.172
    95   7 N    3.387 --    91 C    1.220    94 C    1.206    63 Fe   0.684
    96   7 N    3.384 --    77 C    1.231    80 C    1.207    63 Fe   0.667
    97   6 C    3.986 --   105 C    1.389    98 C    1.386    70 C    1.025
    98   6 C    3.987 --    99 C    1.463    97 C    1.386   120 H    0.972
                           104 C    0.103
    99   6 C    3.990 --    98 C    1.463   100 C    1.385   121 H    0.968
                           105 C    0.103
   100   6 C    3.984 --   104 C    1.390    99 C    1.385   101 C    1.009
   101   6 C    3.836 --   103 O    1.690   102 O    1.089   100 C    1.009
   102   8 O    2.097 --   101 C    1.089   122 H    0.838   103 O    0.129
   103   8 O    1.959 --   101 C    1.690   102 O    0.129
   104   6 C    3.991 --   105 C    1.460   100 C    1.390   123 H    0.969
                            98 C    0.103
   105   6 C    3.987 --   104 C    1.460    97 C    1.389   124 H    0.972
                            99 C    0.103
   106   1 H    1.000 --    64 C    0.970
   107   1 H    0.997 --    66 C    0.975
   108   1 H    1.004 --    67 C    0.973
   109   1 H    1.004 --    72 C    0.972
   110   1 H    1.002 --    73 C    0.973
   111   1 H    1.002 --    78 C    0.973
   112   1 H    1.003 --    79 C    0.973
   113   1 H    1.004 --    83 C    0.972
   114   1 H    1.005 --    84 C    0.968
   115   1 H    0.873 --    87 O    0.838
   116   1 H    1.005 --    89 C    0.969
   117   1 H    1.004 --    90 C    0.972
   118   1 H    1.004 --    92 C    0.972
   119   1 H    0.997 --    93 C    0.975
   120   1 H    1.003 --    98 C    0.972
   121   1 H    1.005 --    99 C    0.968
   122   1 H    0.873 --   102 O    0.838
   123   1 H    1.005 --   104 C    0.969
   124   1 H    1.003 --   105 C    0.972
   125   6 C    3.918 --   126 C    2.582    14 C    1.154
   126   6 C    3.924 --   125 C    2.582   130 C    1.158
   127   6 C    3.924 --   128 C    2.569   142 C    1.171
   128   6 C    3.919 --   127 C    2.569    76 C    1.167
   129  26 Fe   3.254 --   161 N    0.681   140 N    0.680   135 N    0.665
                           162 N    0.664
   130   6 C    3.925 --   160 C    1.272   131 C    1.267   126 C    1.158
   131   6 C    3.915 --   130 C    1.267   135 N    1.229   132 C    1.189
   132   6 C    3.959 --   133 C    1.636   131 C    1.189   172 H    0.974
   133   6 C    3.961 --   132 C    1.636   134 C    1.182   173 H    0.973
   134   6 C    3.916 --   136 C    1.315   135 N    1.208   133 C    1.182
   135   7 N    3.377 --   131 C    1.229   134 C    1.208   129 Fe   0.665
   136   6 C    3.929 --   137 C    1.320   134 C    1.315   163 C    1.038
   137   6 C    3.916 --   136 C    1.320   140 N    1.204   138 C    1.182
   138   6 C    3.960 --   139 C    1.636   137 C    1.182   174 H    0.973
   139   6 C    3.958 --   138 C    1.636   141 C    1.188   175 H    0.973
   140   7 N    3.383 --   141 C    1.232   137 C    1.204   129 Fe   0.680
   141   6 C    3.913 --   142 C    1.266   140 N    1.232   139 C    1.188
   142   6 C    3.925 --   141 C    1.266   143 C    1.262   127 C    1.171
   143   6 C    3.913 --   142 C    1.262   162 N    1.233   144 C    1.189
   144   6 C    3.959 --   145 C    1.635   143 C    1.189   176 H    0.973
   145   6 C    3.960 --   144 C    1.635   146 C    1.182   177 H    0.973
   146   6 C    3.917 --   147 C    1.319   162 N    1.206   145 C    1.182
   147   6 C    3.929 --   146 C    1.319   157 C    1.316   148 C    1.038
   148   6 C    3.986 --   156 C    1.383   149 C    1.382   147 C    1.038
   149   6 C    3.984 --   150 C    1.465   148 C    1.382   178 H    0.972
                           155 C    0.102
   150   6 C    3.990 --   149 C    1.465   151 C    1.385   179 H    0.968
                           156 C    0.102
   151   6 C    3.981 --   155 C    1.389   150 C    1.385   152 C    1.008
   152   6 C    3.836 --   154 O    1.691   153 O    1.089   151 C    1.008
   153   8 O    2.097 --   152 C    1.089   180 H    0.838   154 O    0.129
   154   8 O    1.959 --   152 C    1.691   153 O    0.129
   155   6 C    3.991 --   156 C    1.462   151 C    1.389   181 H    0.969
                           149 C    0.102
   156   6 C    3.984 --   155 C    1.462   148 C    1.383   182 H    0.972
                           150 C    0.102
   157   6 C    3.916 --   147 C    1.316   161 N    1.208   158 C    1.182
   158   6 C    3.961 --   159 C    1.637   157 C    1.182   183 H    0.973
   159   6 C    3.959 --   158 C    1.637   160 C    1.187   184 H    0.973
   160   6 C    3.915 --   130 C    1.272   161 N    1.227   159 C    1.187
   161   7 N    3.383 --   160 C    1.227   157 C    1.208   129 Fe   0.681
   162   7 N    3.376 --   143 C    1.233   146 C    1.206   129 Fe   0.664
   163   6 C    3.986 --   171 C    1.384   164 C    1.382   136 C    1.038
   164   6 C    3.984 --   165 C    1.465   163 C    1.382   185 H    0.972
                           170 C    0.102
   165   6 C    3.990 --   164 C    1.465   166 C    1.385   186 H    0.968
                           171 C    0.102
   166   6 C    3.981 --   170 C    1.389   165 C    1.385   167 C    1.008
   167   6 C    3.836 --   169 O    1.691   168 O    1.089   166 C    1.008
   168   8 O    2.098 --   167 C    1.089   187 H    0.838   169 O    0.129
   169   8 O    1.959 --   167 C    1.691   168 O    0.129
   170   6 C    3.991 --   171 C    1.462   166 C    1.389   188 H    0.969
                           164 C    0.102
   171   6 C    3.984 --   170 C    1.462   163 C    1.384   189 H    0.972
                           165 C    0.102
   172   1 H    1.001 --   132 C    0.974
   173   1 H    1.003 --   133 C    0.973
   174   1 H    1.003 --   138 C    0.973
   175   1 H    1.001 --   139 C    0.973
   176   1 H    1.001 --   144 C    0.973
   177   1 H    1.003 --   145 C    0.973
   178   1 H    1.004 --   149 C    0.972
   179   1 H    1.005 --   150 C    0.968
   180   1 H    0.872 --   153 O    0.838
   181   1 H    1.005 --   155 C    0.969
   182   1 H    1.004 --   156 C    0.972
   183   1 H    1.003 --   158 C    0.973
   184   1 H    1.001 --   159 C    0.973
   185   1 H    1.004 --   164 C    0.972
   186   1 H    1.005 --   165 C    0.968
   187   1 H    0.872 --   168 O    0.838
   188   1 H    1.005 --   170 C    0.969
   189   1 H    1.004 --   171 C    0.972
 ---------------------------------------------------------------------------

           -------------------------------------------------
          | TOTAL ENERGY             -357.991138611825 Eh   |
          | GRADIENT NORM               0.000946158463 Eh/α |
          | HOMO-LUMO GAP               0.096882137715 eV   |
           -------------------------------------------------

 * finished run on 2022/07/29 at 21:11:57.097
