   * xtb version 6.5.1 (b24c23e) compiled by 'conda@728c89f4b128' on 2022-07-12
          program call               : xtb m-CP_C4_3.xyz --gfn 1 --opt -T 48

   ID    Z sym.   atoms
    1    6 C      1-5, 7-11, 14-19, 21-26, 28-34, 37-41, 64-68, 70-74, 77-82,
                  84-89, 91-97, 100-104, 127-139, 141-145, 148-153, 155-160,
                  162-168, 171-175
    2    7 N      6, 20, 27, 42, 69, 83, 90, 105, 140, 154, 161, 176
    3    8 O      12, 13, 35, 36, 75, 76, 98, 99, 146, 147, 169, 170
    4    1 H      43-63, 106-126, 177-196

          :  Hamiltonian                  GFN1-xTB          :
 * total energy  :  -359.5431340 Eh     change       -0.6614869E-08 Eh
 * total energy  :  -359.7641220 Eh     change       -0.2209880E+00 Eh
 * total energy  :  -359.8660199 Eh     change       -0.1018979E+00 Eh
 * total energy  :  -359.9131441 Eh     change       -0.4712417E-01 Eh
 * total energy  :  -359.9413731 Eh     change       -0.2822902E-01 Eh
 * total energy  :  -359.9623323 Eh     change       -0.2095920E-01 Eh
 * total energy  :  -359.9739556 Eh     change       -0.1162329E-01 Eh
 * total energy  :  -359.9796573 Eh     change       -0.5701709E-02 Eh
 * total energy  :  -359.9846383 Eh     change       -0.4980931E-02 Eh
 * total energy  :  -359.9881674 Eh     change       -0.3529112E-02 Eh
 * total energy  :  -360.4537239 Eh     change       -0.1853439E-04 Eh
 * total energy  :  -360.4537390 Eh     change       -0.1512850E-04 Eh
 * total energy  :  -360.4537483 Eh     change       -0.9338630E-05 Eh
 * total energy  :  -360.4537621 Eh     change       -0.1373987E-04 Eh
 * total energy  :  -360.4537700 Eh     change       -0.7927871E-05 Eh
 * total energy  :  -360.4537776 Eh     change       -0.7562646E-05 Eh
 * total energy  :  -360.4537770 Eh     change        0.6081329E-06 Eh
 * total energy  :  -360.4537831 Eh     change       -0.6156662E-05 Eh
 * total energy  :  -360.4537872 Eh     change       -0.4067666E-05 Eh
   *** GEOMETRY OPTIMIZATION CONVERGED AFTER 118 ITERATIONS ***

 final structure:
================
196
 xtb: 6.5.1 (b24c23e)
C           28.79818136423213        0.08463739722419       -0.03434548668520
C           29.40613845464809        1.28666923589143       -0.37150138672667
C           28.75179928861693        2.50443437518388       -0.71067437389602
C           29.71177686747032        3.43083665890377       -1.00405718987795
C           30.98491198447560        2.81264920206818       -0.84013551938812
N           30.74907329297130        1.52064130012472       -0.46516343160536
C           32.24762328956728        3.38201272485509       -1.03965567741169
C           32.27692197125965        4.81150580107883       -1.43473024295960
C           31.71417396658154        5.78632410639844       -0.61550384944679
C           31.73261457668430        7.12772083761719       -0.99572842698378
C           31.11035441156755        8.11725370953216       -0.08072034131179
O           31.18798590499811        9.38032630568833       -0.52375245505480
O           30.57712634912956        7.83702127944974        0.96232366669566
C           32.31758285123856        7.50392649930669       -2.20476902370784
C           32.88053352856877        6.53566832540831       -3.02170573550205
C           32.86186965545153        5.20097450560309       -2.64259413921702
C           33.46405010415863        2.71050708128539       -0.89219207380963
C           34.76220471914375        3.34931472358030       -1.01442814809603
C           35.68312139868061        2.39044248643626       -0.78472675284423
N           33.61863168102371        1.39360287621045       -0.58439358023301
C           34.94670052064594        1.16939736565121       -0.52074283048348
C           35.58358288446318       -0.05736605585426       -0.24394091156722
C           34.94781464711541       -1.28107971226641        0.03944578916053
C           35.59238847711028       -2.51159142908247        0.33431877174990
C           34.62515350411781       -3.44580346743260        0.58277128280211
C           33.35860089748562       -2.81389007759802        0.44153399174401
N           33.60581621193582       -1.50756594292720        0.11172327786286
C           32.09717739542648       -3.38344901878627        0.64471993471786
C           32.06301365377200       -4.82548673858315        0.99245761450854
C           32.56399375321297       -5.78208951401288        0.10674741474803
C           32.52741997795813       -7.13183430402587        0.42869290968194
C           31.99489823948940       -7.54312364492787        1.63902739860958
C           31.49402609259716       -6.59651364765690        2.53408948053072
C           30.93433132877903       -7.07685830886080        3.82266854411164
O           30.47444701657215       -6.09261051609363        4.60837763634231
O           30.88615382004269       -8.23421567127788        4.15250886407516
C           31.52739663632411       -5.24201952402346        2.20957287771568
C           30.88227236463051       -2.69702680622819        0.55162687726684
C           29.57674476726691       -3.31574891983318        0.72449340874684
C           28.66466730825782       -2.34038798463705        0.54086811083732
C           29.41090553969772       -1.12984030599515        0.24492146605788
N           30.74252189809897       -1.38252421484888        0.25809450088741
H           27.71335774069499        0.10097741753658       -0.00553281086891
H           27.68207896781734        2.63818878740926       -0.73232608633428
H           29.55662504477136        4.45087866776697       -1.31577689806915
H           31.47532377202292        0.83475774105558       -0.28812222855277
H           31.26924571175607        5.51588265357286        0.33601001627802
H           30.75968601784825        9.96159513464091        0.12580267252694
H           32.32923247646201        8.54614286493051       -2.49967411232087
H           33.33519382431903        6.82035321757078       -3.96416944150661
H           33.28982739830963        4.44733758122570       -3.29427886880569
H           34.92557182908565        4.39370368616176       -1.22569756678624
H           36.75794730133324        2.47678984248499       -0.78314912437993
H           36.66093050498851       -2.65262221698280        0.35821272420738
H           34.77313326680672       -4.47834617154701        0.85412318738546
H           32.88413102098232       -0.80957187960326       -0.03571152962209
H           32.96833724233616       -5.46377238450496       -0.84770600574666
H           32.91469051417577       -7.86319210181172       -0.27149959679293
H           31.95876493467658       -8.59320244761084        1.90622347881283
H           30.12790162144224       -6.48643574656066        5.42548279217139
H           31.15012331807706       -4.50820204558102        2.91187366264587
H           29.40593979401273       -4.35783127665493        0.94171623759449
H           27.58878523494514       -2.40453830532344        0.58494998488033
C           62.43852579858473       -0.04652029441571       -0.03564181767419
C           61.83161840076814       -1.28384184449189        0.13474734498067
C           62.48678503914648       -2.53573215485161        0.30678099726490
C           61.52745168760772       -3.50348961690549        0.40244304644341
C           60.25406346061037       -2.87227484370148        0.30398066886471
N           60.48885150020296       -1.53688381808815        0.13978496600370
C           58.99253270344577       -3.47736863354809        0.33216988650223
C           58.96473038279947       -4.94751138736035        0.52949566417714
C           59.50740030537290       -5.51895492959428        1.67699404829194
C           59.48422392089590       -6.90131636925401        1.85829879248077
C           60.08353460356048       -7.44860962706502        3.10147131575495
O           59.99969003536138       -8.78351168780826        3.19421349195786
O           60.60307899117749       -6.77916376946477        3.95762014163627
C           58.91483429018366       -7.72456308726284        0.88687644960590
C           58.37427090124279       -7.15825002352648       -0.25705459289588
C           58.39761845916620       -5.78250195998489       -0.43672539979771
C           57.77521895721531       -2.80560568923510        0.19557860641554
C           56.47804004211655       -3.44811974713518        0.30967730018649
C           55.55520720069005       -2.47672837231109        0.15235800094422
N           57.61783584362141       -1.47042187803768       -0.01845817975421
C           56.28936491909763       -1.24298435797260       -0.05277250092321
C           55.64978636949898       -0.00028567660543       -0.23738249894126
C           56.28316109530218        1.24319392599112       -0.42196437913362
C           55.63675306391430        2.49533926507654       -0.59779266714211
C           56.60284021403010        3.45254610868394       -0.74005816262517
C           57.87037067896239        2.81172289099156       -0.65965747587018
N           57.62490161265698        1.47843195082994       -0.46406687478500
C           59.13183524948743        3.41292834698614       -0.72288729713373
C           59.16257533699392        4.87543237576848       -0.97031743910977
C           58.62879721386587        5.40635473788023       -2.14679761516423
C           58.66175464935805        6.77342965686252       -2.38466053936865
C           59.22390590441333        7.62752139821391       -1.45076349411060
C           59.75812882969772        7.10953800584878       -0.26992049012019
C           60.35082066740471        8.05766262613633        0.70675471968310
O           60.84284037449161        7.46199586389425        1.80258820326798
O           60.39751409949113        9.25118161642779        0.55193257002041
C           59.72768786400275        5.73700502427654       -0.03225707468261
C           60.34933034343190        2.74226332161532       -0.56744222980352
C           61.65410225114849        3.37689622655191       -0.67634325819005
C           62.56838991053181        2.40725811764198       -0.47400705280513
C           61.82411268807736        1.17932195374410       -0.25502523242498
N           60.49147850903388        1.41825205273778       -0.32216891665871
H           63.52356106209579       -0.05015387683307       -0.01041743149659
H           63.55656869315020       -2.66605295119513        0.34212259514618
H           61.68287202866347       -4.56344451816159        0.52114118027087
H           59.76243124795623       -0.83725575273666        0.03007596449856
H           59.93942592904164       -4.89430840823350        2.45143398354840
H           60.41132861968262       -9.06073294783436        4.02891706422665
H           58.89910422130093       -8.79834939716855        1.02861893090520
H           57.93333126500051       -7.79218344646730       -1.01801383035506
H           57.98616109305954       -5.34774743908439       -1.34089903699211
H           56.31608810152487       -4.49587102625796        0.50461051747209
H           54.48043520990610       -2.56019847776205        0.17580793337133
H           54.56799115142636        2.63625630836967       -0.60769243829756
H           56.45391169074713        4.51141652672275       -0.87520426195265
H           58.34771082915220        0.77479361375338       -0.35392708637676
H           58.20139694054171        4.73823335116199       -2.88621825217530
H           58.24855903290061        7.17004581716643       -3.30504048965841
H           59.25804421646336        8.69770463014790       -1.62073486812555
H           61.20983557875891        8.14520451377405        2.38680745822606
H           60.13042611203200        5.33910237852734        0.89159409785660
H           61.82304189941650        4.41957440595983       -0.89216157788494
H           63.64446986525720        2.48230551948305       -0.47689821580664
C           38.21191714068508       -0.07837263391533       -0.21717241766515
C           36.98978166202964       -0.07085253904005       -0.23482152514262
C           39.56105132036666       -0.07855186260223       -0.19303722480628
C           40.78309099989131       -0.07690174173138       -0.16397710762660
C           51.67250839404642        0.01105165216572       -0.18101452518199
C           50.45061910280957        0.00131797342824       -0.14910295046887
C           53.02156825038983        0.01485299642792       -0.20726784710510
C           54.24367736919223        0.01243016710442       -0.22617847213163
C           42.18797358833348       -0.06939557360076       -0.13141079074341
C           42.80370388759198        1.18687114131560        0.02905625347670
C           42.14426699833997        2.43696432979550        0.15417458391056
C           43.09882866187820        3.39947368861172        0.34018851049155
C           44.36967452194826        2.76260079691273        0.33758649506840
N           44.14102693049983        1.42818869958081        0.13442490197149
C           45.62234924018752        3.36968426474534        0.49041748494874
C           45.61825398899548        4.82805955103625        0.76738092621485
C           46.22832784062927        5.72045812680993       -0.10955508141788
C           46.22951086413443        7.08830896688934        0.16097417864836
C           46.89816073424070        7.98922249727880       -0.81156688469114
O           46.84963556053569        9.28326159715056       -0.46370906224376
O           47.43968991082458        7.61812124016994       -1.82119722801039
C           45.61794096437891        7.57349356367301        1.31684459844979
C           45.00784936740002        6.68723803658657        2.19053267296814
C           45.00512607042105        5.32622741242984        1.91968157950083
C           46.85504513987821        2.72100793402684        0.40480877472395
C           48.13491289800959        3.38032925837260        0.59608504681437
C           49.08177498085981        2.43799321174184        0.40948823252411
N           47.04526123765770        1.39934118682045        0.13793470511167
C           48.37893493495617        1.20247042054624        0.12431584299609
C           49.04576904447143       -0.01505649237899       -0.11820689568853
C           48.43078030127924       -1.26546696645722       -0.32133006766949
C           49.09103487661800       -2.49711876257658       -0.56698503200776
C           48.13651627638325       -3.47032870674389       -0.68349330933549
C           46.86476548523413       -2.86023629948718       -0.50634019681969
N           47.09322873463097       -1.52621390319844       -0.29980305463132
C           45.61137877837544       -3.48274830613694       -0.55395754220110
C           45.61480543339852       -4.95428132333988       -0.75048129147954
C           45.01159458309890       -5.52087180317064       -1.87559438930845
C           45.01667922400436       -6.89603316306538       -2.06349176687792
C           45.62169148035258       -7.72246130392621       -1.13140737097134
C           46.22730510743235       -7.16845707456216       -0.00259713644011
C           46.86527621677407       -8.08717249124614        0.97355008640142
O           47.41821146639955       -7.45816299543313        2.02091089049413
O           46.89854343011618       -9.28541585265585        0.85685526834033
C           46.22407150972697       -5.78773605932174        0.18508740566811
C           44.37913014278948       -2.83779118756887       -0.43787361124626
C           43.09997595141252       -3.52498757307116       -0.44707224377904
C           42.15261790084023       -2.57067002433193       -0.33697031097253
C           42.85476313395279       -1.30572394173368       -0.24633443920093
N           44.18830921955500       -1.49699882484435       -0.29754143781416
H           41.07607535760460        2.57381163808946        0.10529724080671
H           42.93910124511268        4.45890862268323        0.45739425963454
H           44.86845928288903        0.72394036102554        0.07023416938786
H           46.69754637991635        5.36294973286992       -1.01956757198745
H           47.30751290558322        9.80291412709620       -1.14428470049502
H           45.62270635937143        8.63616693525762        1.52680478987736
H           44.53278138771859        7.05674605085551        3.09227479462991
H           44.53883122815940        4.63739727114524        2.61532329492219
H           48.26958585233736        4.41955019479868        0.84821764338523
H           50.15367728160433        2.53978453358524        0.46610166327703
H           50.15969805036907       -2.61434540744806       -0.64641316117615
H           48.29736099853803       -4.51685579130623       -0.88455735373837
H           46.36564671608502       -0.83361564167817       -0.15789197466701
H           44.54947105239313       -4.87465024940388       -2.61339630091205
H           44.54755396700171       -7.32104023657193       -2.94348486564292
H           45.63463898384866       -8.79854907451116       -1.26264193998319
H           47.80914479071809       -8.12445871056120        2.60922778044267
H           46.68260886557675       -5.36164805343738        1.06962965990531
H           42.96638225043525       -4.59247067933302       -0.51517801370626
H           41.08093289705315       -2.68597646311463       -0.30706062782524

          :  Hamiltonian                  GFN1-xTB          :
         :: total energy            -360.453787179985 Eh    ::
         :: gradient norm              0.000635321807 Eh/a0 ::
         :: HOMO-LUMO gap              0.856858768870 eV    ::
         :: SCC energy              -365.869803980078 Eh    ::
         :: repulsion energy           5.583187664471 Eh    ::

    * Orbital Energies and Occupations

         #    Occupation            Energy/Eh            Energy/eV
      -------------------------------------------------------------
         1        2.0000           -0.8350726             -22.7235
       ...           ...                  ...                  ...
       305        2.0000           -0.4247311             -11.5575
       306        2.0000           -0.4243620             -11.5475
       307        2.0000           -0.4232972             -11.5185
       308        2.0000           -0.4226525             -11.5010
       309        2.0000           -0.4224680             -11.4959
       310        2.0000           -0.4220220             -11.4838
       311        2.0000           -0.4217025             -11.4751
       312        2.0000           -0.4067692             -11.0688
       313        2.0000           -0.4058224             -11.0430
       314        2.0000           -0.4051139             -11.0237
       315        2.0000           -0.3972241             -10.8090
       316        2.0000           -0.3906737             -10.6308
       317        2.0000           -0.3829919             -10.4217 (HOMO)
       318        0.0000           -0.3515029              -9.5649 (LUMO)
       319                         -0.3417355              -9.2991
       320                         -0.3392725              -9.2321
       321                         -0.3388212              -9.2198
       322                         -0.3380729              -9.1994
       323                         -0.3337873              -9.0828
       324                         -0.3142981              -8.5525
       325                         -0.3132676              -8.5244
       326                         -0.3126634              -8.5080
       327                         -0.3125507              -8.5049
       328                         -0.3118033              -8.4846
       ...                                ...                  ...
       660                          1.5100827              41.0914
      -------------------------------------------------------------
                  HL-Gap            0.0314890 Eh            0.8569 eV

Wiberg/Mayer (AO) data.
largest (>0.10) Wiberg bond orders for each atom

     #   Z sym  total        # sym  WBO       # sym  WBO       # sym  WBO
 ---------------------------------------------------------------------------
     1   6 C    3.926 --    41 C    1.366     2 C    1.348    43 H    0.971
     2   6 C    3.901 --     1 C    1.348     3 C    1.228     6 N    1.169
     3   6 C    3.954 --     4 C    1.598     2 C    1.228    44 H    0.976
     4   6 C    3.959 --     3 C    1.598     5 C    1.232    45 H    0.974
     5   6 C    3.897 --     7 C    1.304     4 C    1.232     6 N    1.178
     6   7 N    3.470 --     5 C    1.178     2 C    1.169    46 H    0.873
     7   6 C    3.938 --    17 C    1.334     5 C    1.304     8 C    1.030
     8   6 C    3.988 --     9 C    1.408    16 C    1.386     7 C    1.030
                            14 C    0.102
     9   6 C    3.983 --     8 C    1.408    10 C    1.396    47 H    0.968
                            15 C    0.103
    10   6 C    3.988 --     9 C    1.396    14 C    1.391    11 C    1.005
    11   6 C    3.836 --    13 O    1.692    12 O    1.090    10 C    1.005
    12   8 O    2.099 --    11 C    1.090    48 H    0.838    13 O    0.129
    13   8 O    1.961 --    11 C    1.692    12 O    0.129
    14   6 C    3.986 --    15 C    1.447    10 C    1.391    49 H    0.971
                             8 C    0.102
    15   6 C    3.994 --    14 C    1.447    16 C    1.442    50 H    0.972
                             9 C    0.103
    16   6 C    3.987 --    15 C    1.442     8 C    1.386    51 H    0.972
    17   6 C    3.915 --     7 C    1.334    20 N    1.287    18 C    1.125
    18   6 C    3.965 --    19 C    1.709    17 C    1.125    52 H    0.974
    19   6 C    3.964 --    18 C    1.709    21 C    1.128    53 H    0.974
    20   7 N    3.022 --    21 C    1.343    17 C    1.287
    21   6 C    3.909 --    20 N    1.343    22 C    1.255    19 C    1.128
    22   6 C    3.937 --    21 C    1.255    23 C    1.252   128 C    1.189
    23   6 C    3.885 --    22 C    1.252    24 C    1.249    27 N    1.189
    24   6 C    3.959 --    25 C    1.583    23 C    1.249    54 H    0.975
    25   6 C    3.954 --    24 C    1.583    26 C    1.241    55 H    0.974
    26   6 C    3.899 --    28 C    1.309    25 C    1.241    27 N    1.166
    27   7 N    3.474 --    23 C    1.189    26 C    1.166    56 H    0.872
    28   6 C    3.924 --    38 C    1.323    26 C    1.309    29 C    1.028
    29   6 C    3.988 --    37 C    1.405    30 C    1.389    28 C    1.028
                            32 C    0.102
    30   6 C    3.986 --    31 C    1.439    29 C    1.389    57 H    0.973
    31   6 C    3.994 --    32 C    1.450    30 C    1.439    58 H    0.972
                            37 C    0.104
    32   6 C    3.985 --    31 C    1.450    33 C    1.388    59 H    0.969
                            29 C    0.102
    33   6 C    3.988 --    37 C    1.400    32 C    1.388    34 C    1.004
    34   6 C    3.836 --    36 O    1.693    35 O    1.090    33 C    1.004
    35   8 O    2.099 --    34 C    1.090    60 H    0.838    36 O    0.129
    36   8 O    1.961 --    34 C    1.693    35 O    0.129
    37   6 C    3.985 --    29 C    1.405    33 C    1.400    61 H    0.969
                            31 C    0.104
    38   6 C    3.929 --    28 C    1.323    42 N    1.316    39 C    1.117
    39   6 C    3.967 --    40 C    1.724    38 C    1.117    62 H    0.973
    40   6 C    3.966 --    39 C    1.724    41 C    1.116    63 H    0.976
    41   6 C    3.928 --     1 C    1.366    42 N    1.301    40 C    1.116
    42   7 N    3.012 --    38 C    1.316    41 C    1.301
    43   1 H    1.002 --     1 C    0.971
    44   1 H    0.997 --     3 C    0.976
    45   1 H    1.004 --     4 C    0.974
    46   1 H    0.986 --     6 N    0.873
    47   1 H    1.007 --     9 C    0.968
    48   1 H    0.873 --    12 O    0.838
    49   1 H    1.005 --    14 C    0.971
    50   1 H    1.002 --    15 C    0.972
    51   1 H    1.005 --    16 C    0.972
    52   1 H    1.004 --    18 C    0.974
    53   1 H    1.003 --    19 C    0.974
    54   1 H    1.002 --    24 C    0.975
    55   1 H    1.004 --    25 C    0.974
    56   1 H    0.987 --    27 N    0.872
    57   1 H    1.004 --    30 C    0.973
    58   1 H    1.002 --    31 C    0.972
    59   1 H    1.005 --    32 C    0.969
    60   1 H    0.873 --    35 O    0.838
    61   1 H    1.007 --    37 C    0.969
    62   1 H    1.004 --    39 C    0.973
    63   1 H    0.998 --    40 C    0.976
    64   6 C    3.925 --   104 C    1.366    65 C    1.348   106 H    0.971
    65   6 C    3.901 --    64 C    1.348    66 C    1.228    69 N    1.169
    66   6 C    3.954 --    67 C    1.597    65 C    1.228   107 H    0.976
    67   6 C    3.959 --    66 C    1.597    68 C    1.232   108 H    0.974
    68   6 C    3.897 --    70 C    1.304    67 C    1.232    69 N    1.178
    69   7 N    3.470 --    68 C    1.178    65 C    1.169   109 H    0.873
    70   6 C    3.938 --    80 C    1.335    68 C    1.304    71 C    1.029
    71   6 C    3.988 --    72 C    1.408    79 C    1.386    70 C    1.029
                            77 C    0.102
    72   6 C    3.983 --    71 C    1.408    73 C    1.396   110 H    0.968
                            78 C    0.104
    73   6 C    3.988 --    72 C    1.396    77 C    1.391    74 C    1.005
    74   6 C    3.836 --    76 O    1.692    75 O    1.090    73 C    1.005
    75   8 O    2.099 --    74 C    1.090   111 H    0.838    76 O    0.129
    76   8 O    1.961 --    74 C    1.692    75 O    0.129
    77   6 C    3.986 --    78 C    1.447    73 C    1.391   112 H    0.970
                            71 C    0.102
    78   6 C    3.994 --    77 C    1.447    79 C    1.442   113 H    0.972
                            72 C    0.104
    79   6 C    3.987 --    78 C    1.442    71 C    1.386   114 H    0.972
    80   6 C    3.915 --    70 C    1.335    83 N    1.287    81 C    1.125
    81   6 C    3.965 --    82 C    1.710    80 C    1.125   115 H    0.973
    82   6 C    3.964 --    81 C    1.710    84 C    1.128   116 H    0.974
    83   7 N    3.022 --    84 C    1.344    80 C    1.287
    84   6 C    3.909 --    83 N    1.344    85 C    1.255    82 C    1.128
    85   6 C    3.937 --    84 C    1.255    86 C    1.252   134 C    1.189
    86   6 C    3.885 --    85 C    1.252    87 C    1.248    90 N    1.189
    87   6 C    3.959 --    88 C    1.583    86 C    1.248   117 H    0.975
    88   6 C    3.954 --    87 C    1.583    89 C    1.240   118 H    0.974
    89   6 C    3.899 --    91 C    1.309    88 C    1.240    90 N    1.166
    90   7 N    3.474 --    86 C    1.189    89 C    1.166   119 H    0.873
    91   6 C    3.924 --   101 C    1.322    89 C    1.309    92 C    1.029
    92   6 C    3.988 --   100 C    1.405    93 C    1.389    91 C    1.029
                            95 C    0.102
    93   6 C    3.986 --    94 C    1.440    92 C    1.389   120 H    0.973
    94   6 C    3.994 --    95 C    1.450    93 C    1.440   121 H    0.972
                           100 C    0.104
    95   6 C    3.985 --    94 C    1.450    96 C    1.388   122 H    0.969
                            92 C    0.102
    96   6 C    3.988 --   100 C    1.400    95 C    1.388    97 C    1.005
    97   6 C    3.836 --    99 O    1.692    98 O    1.090    96 C    1.005
    98   8 O    2.099 --    97 C    1.090   123 H    0.838    99 O    0.129
    99   8 O    1.961 --    97 C    1.692    98 O    0.129
   100   6 C    3.984 --    92 C    1.405    96 C    1.400   124 H    0.969
                            94 C    0.104
   101   6 C    3.929 --    91 C    1.322   105 N    1.317   102 C    1.117
   102   6 C    3.967 --   103 C    1.724   101 C    1.117   125 H    0.973
   103   6 C    3.966 --   102 C    1.724   104 C    1.116   126 H    0.976
   104   6 C    3.928 --    64 C    1.366   105 N    1.300   103 C    1.116
   105   7 N    3.012 --   101 C    1.317   104 C    1.300
   106   1 H    1.002 --    64 C    0.971
   107   1 H    0.997 --    66 C    0.976
   108   1 H    1.004 --    67 C    0.974
   109   1 H    0.986 --    69 N    0.873
   110   1 H    1.007 --    72 C    0.968
   111   1 H    0.873 --    75 O    0.838
   112   1 H    1.005 --    77 C    0.970
   113   1 H    1.002 --    78 C    0.972
   114   1 H    1.005 --    79 C    0.972
   115   1 H    1.004 --    81 C    0.973
   116   1 H    1.003 --    82 C    0.974
   117   1 H    1.002 --    87 C    0.975
   118   1 H    1.004 --    88 C    0.974
   119   1 H    0.987 --    90 N    0.873
   120   1 H    1.004 --    93 C    0.973
   121   1 H    1.001 --    94 C    0.972
   122   1 H    1.005 --    95 C    0.969
   123   1 H    0.873 --    98 O    0.838
   124   1 H    1.007 --   100 C    0.969
   125   1 H    1.004 --   102 C    0.973
   126   1 H    0.998 --   103 C    0.976
   127   6 C    3.933 --   128 C    2.473   129 C    1.310
   128   6 C    3.923 --   127 C    2.473    22 C    1.189   130 C    0.198
   129   6 C    3.929 --   130 C    2.472   127 C    1.310
   130   6 C    3.925 --   129 C    2.472   135 C    1.192   128 C    0.198
   131   6 C    3.929 --   132 C    2.472   133 C    1.310
   132   6 C    3.925 --   131 C    2.472   156 C    1.192   134 C    0.198
   133   6 C    3.933 --   134 C    2.473   131 C    1.310
   134   6 C    3.923 --   133 C    2.473    85 C    1.189   132 C    0.198
   135   6 C    3.924 --   175 C    1.254   136 C    1.248   130 C    1.192
   136   6 C    3.886 --   137 C    1.253   135 C    1.248   140 N    1.189
   137   6 C    3.955 --   138 C    1.577   136 C    1.253   177 H    0.975
   138   6 C    3.955 --   137 C    1.577   139 C    1.246   178 H    0.974
   139   6 C    3.894 --   141 C    1.299   138 C    1.246   140 N    1.168
   140   7 N    3.471 --   136 C    1.189   139 C    1.168   179 H    0.874
   141   6 C    3.926 --   151 C    1.340   139 C    1.299   142 C    1.027
   142   6 C    3.988 --   143 C    1.408   150 C    1.388   141 C    1.027
                           148 C    0.102
   143   6 C    3.984 --   142 C    1.408   144 C    1.396   180 H    0.968
                           149 C    0.104
   144   6 C    3.988 --   143 C    1.396   148 C    1.391   145 C    1.004
   145   6 C    3.836 --   147 O    1.693   146 O    1.090   144 C    1.004
   146   8 O    2.099 --   145 C    1.090   181 H    0.838   147 O    0.129
   147   8 O    1.962 --   145 C    1.693   146 O    0.129
   148   6 C    3.986 --   149 C    1.448   144 C    1.391   182 H    0.970
                           142 C    0.102
   149   6 C    3.994 --   148 C    1.448   150 C    1.441   183 H    0.972
                           143 C    0.104
   150   6 C    3.986 --   149 C    1.441   142 C    1.388   184 H    0.973
   151   6 C    3.917 --   141 C    1.340   154 N    1.283   152 C    1.124
   152   6 C    3.966 --   153 C    1.711   151 C    1.124   185 H    0.973
   153   6 C    3.964 --   152 C    1.711   155 C    1.128   186 H    0.974
   154   7 N    3.009 --   155 C    1.345   151 C    1.283
   155   6 C    3.909 --   154 N    1.345   156 C    1.255   153 C    1.128
   156   6 C    3.924 --   155 C    1.255   157 C    1.248   132 C    1.192
   157   6 C    3.886 --   158 C    1.253   156 C    1.248   161 N    1.189
   158   6 C    3.955 --   159 C    1.577   157 C    1.253   187 H    0.975
   159   6 C    3.955 --   158 C    1.577   160 C    1.245   188 H    0.974
   160   6 C    3.894 --   162 C    1.299   159 C    1.245   161 N    1.167
   161   7 N    3.471 --   157 C    1.189   160 C    1.167   189 H    0.874
   162   6 C    3.926 --   172 C    1.339   160 C    1.299   163 C    1.027
   163   6 C    3.988 --   171 C    1.406   164 C    1.388   162 C    1.027
                           166 C    0.102
   164   6 C    3.987 --   165 C    1.440   163 C    1.388   190 H    0.972
                           167 C    0.100
   165   6 C    3.994 --   166 C    1.450   164 C    1.440   191 H    0.972
                           171 C    0.104
   166   6 C    3.985 --   165 C    1.450   167 C    1.388   192 H    0.969
                           163 C    0.102
   167   6 C    3.988 --   171 C    1.399   166 C    1.388   168 C    1.005
                           164 C    0.100
   168   6 C    3.836 --   170 O    1.693   169 O    1.090   167 C    1.005
   169   8 O    2.099 --   168 C    1.090   193 H    0.838   170 O    0.129
   170   8 O    1.961 --   168 C    1.693   169 O    0.129
   171   6 C    3.985 --   163 C    1.406   167 C    1.399   194 H    0.969
                           165 C    0.104
   172   6 C    3.917 --   162 C    1.339   176 N    1.284   173 C    1.125
   173   6 C    3.966 --   174 C    1.709   172 C    1.125   195 H    0.973
   174   6 C    3.963 --   173 C    1.709   175 C    1.129   196 H    0.974
   175   6 C    3.909 --   176 N    1.345   135 C    1.254   174 C    1.129
   176   7 N    3.009 --   175 C    1.345   172 C    1.284
   177   1 H    1.002 --   137 C    0.975
   178   1 H    1.004 --   138 C    0.974
   179   1 H    0.987 --   140 N    0.874
   180   1 H    1.007 --   143 C    0.968
   181   1 H    0.873 --   146 O    0.838
   182   1 H    1.005 --   148 C    0.970
   183   1 H    1.001 --   149 C    0.972
   184   1 H    1.004 --   150 C    0.973
   185   1 H    1.004 --   152 C    0.973
   186   1 H    1.003 --   153 C    0.974
   187   1 H    1.002 --   158 C    0.975
   188   1 H    1.004 --   159 C    0.974
   189   1 H    0.987 --   161 N    0.874
   190   1 H    1.005 --   164 C    0.972
   191   1 H    1.002 --   165 C    0.972
   192   1 H    1.005 --   166 C    0.969
   193   1 H    0.873 --   169 O    0.838
   194   1 H    1.007 --   171 C    0.969
   195   1 H    1.004 --   173 C    0.973
   196   1 H    1.003 --   174 C    0.974
 ---------------------------------------------------------------------------

           -------------------------------------------------
          | TOTAL ENERGY             -360.453787179985 Eh   |
          | GRADIENT NORM               0.000635321807 Eh/α |
          | HOMO-LUMO GAP               0.856858768870 eV   |
           -------------------------------------------------

 * finished run on 2022/07/27 at 16:45:56.654
