   * xtb version 6.5.1 (b24c23e) compiled by 'conda@728c89f4b128' on 2022-07-12
          program call               : xtb Zn_p-CP_C8_3.xyz --gfn 1 --opt -T 48

   ID    Z sym.   atoms
    1   30 Zn     1, 63, 141
    2    6 C      2-6, 8-11, 13-24, 27-32, 35-39, 42, 43, 64-68, 70-73,
                  75-86, 89-94, 97-101, 104, 105, 125-140, 142-146, 148-151,
                  153-164, 167-172, 175-179, 182, 183
    3    7 N      7, 12, 33, 34, 69, 74, 95, 96, 147, 152, 173, 174
    4    8 O      25, 26, 40, 41, 87, 88, 102, 103, 165, 166, 180, 181
    5    1 H      44-62, 106-124, 184-201

          :  Hamiltonian                  GFN1-xTB          :
 * total energy  :  -375.3132507 Eh     change       -0.6278924E-09 Eh
 * total energy  :  -375.7937719 Eh     change       -0.4805213E+00 Eh
 * total energy  :  -375.9690858 Eh     change       -0.1753138E+00 Eh
 * total energy  :  -376.0668622 Eh     change       -0.9777647E-01 Eh
 * total energy  :  -376.1504868 Eh     change       -0.8362458E-01 Eh
 * total energy  :  -376.2242866 Eh     change       -0.7379976E-01 Eh
 * total energy  :  -376.2694068 Eh     change       -0.4512027E-01 Eh
 * total energy  :  -376.2978566 Eh     change       -0.2844980E-01 Eh
 * total energy  :  -376.3187790 Eh     change       -0.2092242E-01 Eh
 * total energy  :  -376.3317232 Eh     change       -0.1294413E-01 Eh
 * total energy  :  -376.3988731 Eh     change        0.1803907E-04 Eh
 * total energy  :  -376.3988933 Eh     change       -0.2021335E-04 Eh
 * total energy  :  -376.3988662 Eh     change        0.2718357E-04 Eh
 * total energy  :  -376.3988989 Eh     change       -0.3277110E-04 Eh
 * total energy  :  -376.3988911 Eh     change        0.7836165E-05 Eh
 * total energy  :  -376.3988967 Eh     change       -0.5596304E-05 Eh
 * total energy  :  -376.3988966 Eh     change        0.8752841E-07 Eh
 * total energy  :  -376.3989038 Eh     change       -0.7222796E-05 Eh
 * total energy  :  -376.3989047 Eh     change       -0.8776933E-06 Eh
   *** GEOMETRY OPTIMIZATION CONVERGED AFTER 80 ITERATIONS ***

 final structure:
================
201
 xtb: 6.5.1 (b24c23e)
Zn          30.81769292358811       -0.04676670651415        0.00315982602944
C           27.40923641445042       -0.12803748422566        0.02356400620624
C           28.03631274328671       -0.16645370002189        1.26295432808794
C           27.35904248212645       -0.20041496063493        2.52906556325589
C           28.31536661548402       -0.21197821782127        3.49063719992462
C           29.59018035535356       -0.19544242100765        2.82244373409701
N           29.38535604579980       -0.16027422048929        1.47455170478588
C           30.84007546202037       -0.18219187413618        3.45419136958449
C           32.08073516692532       -0.12284655710978        2.80969233208578
C           33.35932621631233       -0.16419792266289        3.46461634817407
C           34.30738144659914       -0.10616164377257        2.49509971156599
N           32.27672328061492       -0.05252344838097        1.45653310893747
C           33.61925661017916       -0.03644447153710        1.23933197385489
C           34.25262350492564        0.02620307474697       -0.01802294491068
C           33.60182332897183        0.07093088146501       -1.26712195665773
C           34.27225531730883        0.10878751881345       -2.53375111484251
C           33.31065162790981        0.13244472330683       -3.49134251225146
C           32.04136834876775        0.11688834234777       -2.81742206408991
C           30.79168117418790        0.11132938198859       -3.44709629140124
C           30.77820116473989        0.18521625869979       -4.92839395887024
C           30.23432162408721       -0.85668427409289       -5.68463988847130
C           30.21866618538380       -0.78370949179062       -7.06520250700369
C           30.74197622523231        0.33492183920676       -7.71679457265029
C           30.69664745362184        0.37000344348987       -9.19753617288181
O           31.22194590273044        1.48664088592795       -9.72517573835478
O           30.23645675040669       -0.50560397171713       -9.88573376091431
C           31.28585941070059        1.37832417993615       -6.96676020750464
C           31.30502017558007        1.30035045958796       -5.58526275596093
C           29.55078400846584        0.04354267925910       -2.80121750316770
C           28.26668755857861        0.08297471496983       -3.45044961735320
C           27.32395170034023        0.01230757244586       -2.47804912095655
C           28.01892195280685       -0.06084204763694       -1.22324553268860
N           29.36488657722713       -0.03590159669148       -1.45247145815542
N           32.25634806365186        0.07220419724810       -1.46609818620784
C           30.84770736231632       -0.23427156546923        4.93648582589600
C           30.31443346173803       -1.33711348434476        5.60923333728152
C           30.31879453726041       -1.38167927255222        6.99109330268513
C           30.85216843609048       -0.32212041485188        7.72769497229417
C           30.82928076668130       -0.41342916954717        9.20663244757253
O           31.36388458369043        0.65410578385876        9.81942978036499
O           30.37657405654431       -1.34373082570443        9.82449497252604
C           31.38536351951107        0.78175787167782        7.06125224224226
C           31.38436972792639        0.82150064628150        5.67797869437558
H           26.32371423110809       -0.14031109039314        0.03064006689876
H           26.28762770837120       -0.20633361915662        2.65420667832434
H           28.17453074887167       -0.21841956312907        4.55959639987659
H           33.51066305479075       -0.24253230779809        4.52914732424884
H           35.37936648170775       -0.11580634796168        2.61171894758266
H           35.34252364002695        0.10998612974504       -2.66568607694640
H           33.44700368747176        0.14487651245618       -4.56070719384429
H           29.83823267826971       -1.73144020179289       -5.18139770259372
H           29.80239484115923       -1.59099813915493       -7.65779252318932
H           31.15257073297384        1.43109064228847      -10.69202693163450
H           31.69038375203772        2.24977269409040       -7.46791066695303
H           31.71573932564165        2.11715503499495       -5.00240700955986
H           28.11080157971274        0.16723564411096       -4.51400472977520
H           26.25088461978101        0.01638007328904       -2.58823489472135
H           29.91085460010689       -2.16631698148751        5.03926004449032
H           29.91109889556387       -2.23685686432757        7.51893155089944
H           31.30859581580016        0.51663949611747       10.77898901096682
H           31.79754361105178        1.60777969766847        7.62869363384523
H           31.78689481337028        1.68522742298114        5.16074958706061
Zn          68.06106528476154       -0.03688538034109       -0.03901066371157
C           71.46932780295340       -0.12433426885792       -0.07035357713639
C           70.84197748096862       -0.01715984236656       -1.30555437485136
C           71.51896984093318        0.09384012057750       -2.56738966196200
C           70.56247725068420        0.19641773956194       -3.52338371792038
C           69.28780932092253        0.13917105179982       -2.85715189713355
N           69.49291988528151        0.01731749307048       -1.51437574252637
C           68.03788664424911        0.22957317524813       -3.48250194588194
C           66.79747393708230        0.21822284419944       -2.83486352360145
C           65.51868097824416        0.25797401514430       -3.48947279379167
C           64.57092745297689        0.20607036217197       -2.51928911204439
N           66.60185961732161        0.13112680119987       -1.48262537413328
C           65.25940679147453        0.12639111454631       -1.26432878666403
C           64.62633431142194        0.04229202338556       -0.00806807831911
C           65.27738918138482       -0.06263696257041        1.23730298781987
C           64.60720194567121       -0.17245558463547        2.49987289925291
C           65.56897293308590       -0.26326263582390        3.45325246533930
C           66.83813514264340       -0.20207116478640        2.78170015125123
C           68.08789728947032       -0.28334846434368        3.40594469395111
C           68.10189511619348       -0.38306706574594        4.88572871098229
C           68.64462597325065       -1.50693936456875        5.51471423128897
C           68.66113299965781       -1.59571801473643        6.89434158890171
C           68.13977669343414       -0.56013537246381        7.67246883321167
C           68.18606819264973       -0.69829914988947        9.14719688336046
O           67.66221835149740        0.34950130338445        9.80195856422909
O           68.64591165685390       -1.64873256456949        9.72795240935271
C           67.59693386373289        0.56443200883233        7.04983073842195
C           67.57696534785399        0.64840778301537        5.66868422398814
C           69.32856346533735       -0.27743064302588        2.75607896157691
C           70.61283762334679       -0.31639606210530        3.40498692461196
C           71.55527918831237       -0.27548709390217        2.43060162717743
C           70.85996908656168       -0.20078716661028        1.17608195673842
N           69.51409435102032       -0.19974943042485        1.40717955634544
N           66.62287855176272       -0.08762736139499        1.43451407297591
C           68.03001905961270        0.34854269651157       -4.96090942258742
C           68.55975073995751       -0.67144180132428       -5.75608162996931
C           68.55479299932348       -0.55728072451147       -7.13392120157881
C           68.02463890174440        0.58145849536870       -7.74380744912785
C           68.04727182384205        0.66047952537901       -9.22338373353956
O           67.51576327080041        1.79289705235341       -9.70944960713154
O           68.49508908254073       -0.19502254543113       -9.94429198512978
C           67.49514633900966        1.60328484309725       -6.95479183391073
C           67.49660696304869        1.48410687159920       -5.57609203896730
H           72.55481305357064       -0.13845660567251       -0.07926832332354
H           72.59034653040219        0.09940865935053       -2.69288965598267
H           70.70315997326422        0.31348508307065       -4.58595543631538
H           65.36690639904351        0.30471653980242       -4.55580080097306
H           63.49890059505844        0.21385831136116       -2.63571395696840
H           63.53695868251131       -0.18455796648081        2.63141598791534
H           65.43280894582163       -0.37611644604991        4.51673715776994
H           69.03918076677415       -2.31747443184497        4.91246806146275
H           69.07660038384529       -2.46724185619272        7.38829704905082
H           67.73183304977121        0.18139597289697       10.75568854809629
H           67.19388728767024        1.37190970528940        7.64961480605789
H           67.16714589328490        1.52827280447128        5.18550798293564
H           70.76906027081786       -0.35665281078318        4.47106095942734
H           72.62836875406929       -0.28651050988767        2.54007478117294
H           68.96099892689010       -1.56172960990126       -5.28520946797892
H           68.95988742888925       -1.34743480350567       -7.75659399918194
H           67.56996649047544        1.76595967468373      -10.67848792342989
H           67.08550897122798        2.49024984087650       -7.42350383453329
H           67.09696478915984        2.28407023120133       -4.96297426833472
C           35.65863793918034        0.03295588433757       -0.02675151570388
C           36.88306819629334        0.03548192811983       -0.03061089616535
C           38.22635886759239        0.03368159493963       -0.03395594788686
C           39.45683458820666        0.02782979535299       -0.03649082062256
C           40.79532103465855        0.02192315543894       -0.03552459778032
C           42.02582402956538        0.01393042881520       -0.03430574041237
C           43.36891469318310        0.00681686713042       -0.03097994213231
C           44.59350824777975        0.00148050191615       -0.02618409360246
C           54.28551933051900        0.02775918427916        0.00477424063565
C           55.51009708168711        0.03555077420868        0.00887855525039
C           56.85318236954121        0.04267087366489        0.01226419174045
C           58.08369778174183        0.05006919708432        0.01447320290433
C           59.42217243230212        0.05544302095377        0.01435725553262
C           60.65265715591750        0.05856943645083        0.01285679213252
C           61.99593851009424        0.05709854206060        0.00869394453222
C           63.22036039600732        0.05211216744544        0.00216162746025
Zn          49.43948630122886        0.01324428795774       -0.01125580910529
C           45.99895785474448        0.00375036491285       -0.02324230820820
C           46.64599924101675       -1.24759916309435        0.01529335758389
C           45.97222069324248       -2.51242692248192        0.01826099226845
C           46.93083911980327       -3.47247674941285        0.06531106293966
C           48.20021893531372       -2.80095763749082        0.10133640841643
N           47.99039588496747       -1.44891796822552        0.05948931042456
C           49.44849102568540       -3.43191495189973        0.14524839963249
C           50.69335062980096       -2.79278688480071        0.13210884591869
C           51.96609239430432       -3.45147242097696        0.23063511732724
C           52.91970085427613       -2.48607023088090        0.19072766845030
N           50.89617447236840       -1.44155531588220        0.04983854051659
C           52.23944294575153       -1.22989508059502        0.07682275293203
C           52.88009564368109        0.02303184877050       -0.00066532051321
C           52.23301952564870        1.27236086685036       -0.08327296536964
C           52.90711495522369        2.53223608767490       -0.19330778055077
C           51.94851003270734        3.49227953584389       -0.24085735203983
C           50.67882629677054        2.82657593569708       -0.15058077472151
C           49.43056212675146        3.45862514387701       -0.17242685653458
C           49.42647296598857        4.94060981079484       -0.24045144797847
C           49.99262228277622        5.69769606634207        0.78872788925953
C           49.98479048010372        7.07882743477940        0.72529912302626
C           49.41582767427017        7.72966963140531       -0.37120077366841
C           49.43391716958587        9.21142945157498       -0.39515001323559
O           48.86364098824768        9.73819686894178       -1.48973588370823
O           49.90854777543503        9.90058703152494        0.47185063791712
C           48.85189926672675        6.97853486537417       -1.40302593279207
C           48.85597136279239        5.59637136726359       -1.33440206531415
C           48.18564446134393        2.82060664582771       -0.13533320396933
C           46.91251756497615        3.48513693247895       -0.10602380790886
C           45.95893618940656        2.51980130742503       -0.06410095413993
C           46.63959445431933        1.25870341640812       -0.05793404717411
N           47.98304047635908        1.46745050621935       -0.09504243067531
N           50.88846824009619        1.47651096364183       -0.06624307561367
C           49.45257339065900       -4.91407520221312        0.21170647846448
C           48.88099179594222       -5.57532750608501        1.30205989207628
C           48.88801596898440       -6.95660838387775        1.36303664084339
C           49.46153235978462       -7.70357375213698        0.33217798938968
C           49.44176600517029       -9.18162005596787        0.44113418545000
O           50.01546092139977       -9.80477717905943       -0.59961357069605
O           48.96277072736920       -9.78968272738596        1.36450205692892
C           50.03123465835882       -7.04845355402689       -0.76009711202137
C           50.02806178336703       -5.66569378542334       -0.81594878006089
H           44.90229550193175       -2.64167022592604       -0.01856158980515
H           46.79222925713790       -4.54156105742804        0.06379319917391
H           52.11015824700802       -4.51517121825811        0.33054761813242
H           53.99020683132236       -2.60581049943001        0.24054874847945
H           53.97723922921207        2.65802209006562       -0.23554028232756
H           52.08741934900064        4.55667847707473       -0.34045658918224
H           50.42418589538837        5.19447049975200        1.64652724788474
H           50.41715935400327        7.67235824398305        1.52336804726609
H           48.91658783768359       10.70572452168454       -1.42795947238884
H           48.41253930047658        7.47923253176351       -2.25768777129599
H           48.42820274105184        5.01263644399816       -2.14175297175842
H           46.76796678660622        4.55344871157030       -0.10452816412968
H           44.88819212986562        2.64346161445490       -0.03267154524043
H           48.44566229058837       -4.99689814954386        2.10903200357949
H           48.45130396959355       -7.47583498086473        2.20909980452862
H           49.96103877991744      -10.76288273538552       -0.45187243955974
H           50.47431043850921       -7.62411740977143       -1.56413441964131
H           50.46033349638386       -5.15704649328196       -1.67033019107792

          :  Hamiltonian                  GFN1-xTB          :
         :: total energy            -376.398904695304 Eh    ::
         :: gradient norm              0.000517738519 Eh/a0 ::
         :: HOMO-LUMO gap              1.135889516931 eV    ::
         :: SCC energy              -382.223442255844 Eh    ::
         :: repulsion energy           6.000374558977 Eh    ::

    * Orbital Energies and Occupations

         #    Occupation            Energy/Eh            Energy/eV
      -------------------------------------------------------------
         1        2.0000           -0.8323446             -22.6492
       ...           ...                  ...                  ...
       321        2.0000           -0.4300672             -11.7027
       322        2.0000           -0.4297774             -11.6948
       323        2.0000           -0.4297704             -11.6946
       324        2.0000           -0.4222757             -11.4907
       325        2.0000           -0.4175487             -11.3621
       326        2.0000           -0.4174672             -11.3599
       327        2.0000           -0.4120106             -11.2114
       328        2.0000           -0.4041551             -10.9976
       329        2.0000           -0.4024227             -10.9505
       330        2.0000           -0.4024202             -10.9504
       331        2.0000           -0.3900460             -10.6137
       332        2.0000           -0.3898591             -10.6086
       333        2.0000           -0.3878050             -10.5527 (HOMO)
       334                         -0.3460618              -9.4168 (LUMO)
       335                         -0.3408033              -9.2737
       336                         -0.3407067              -9.2711
       337                         -0.3384438              -9.2095
       338                         -0.3371366              -9.1740
       339                         -0.3371311              -9.1738
       340                         -0.3196666              -8.6986
       341                         -0.3139752              -8.5437
       342                         -0.3139676              -8.5435
       343                         -0.3079834              -8.3807
       344                         -0.3074572              -8.3663
       ...                                ...                  ...
       692                          1.6005558              43.5533
      -------------------------------------------------------------
                  HL-Gap            0.0417432 Eh            1.1359 eV

Wiberg/Mayer (AO) data.
largest (>0.10) Wiberg bond orders for each atom

     #   Z sym  total        # sym  WBO       # sym  WBO       # sym  WBO
 ---------------------------------------------------------------------------
     1  30 Zn   1.994 --     7 N    0.459    33 N    0.459    12 N    0.455
                            34 N    0.455
     2   6 C    3.929 --    32 C    1.358     3 C    1.358    44 H    0.971
     3   6 C    3.921 --     2 C    1.358     7 N    1.232     4 C    1.170
     4   6 C    3.961 --     5 C    1.660     3 C    1.170    45 H    0.975
     5   6 C    3.963 --     4 C    1.660     6 C    1.171    46 H    0.973
     6   6 C    3.918 --     8 C    1.312     7 N    1.246     5 C    1.171
     7   7 N    3.294 --     6 C    1.246     3 C    1.232     1 Zn   0.459
     8   6 C    3.933 --     9 C    1.322     6 C    1.312    35 C    1.031
     9   6 C    3.912 --     8 C    1.322    12 N    1.227    10 C    1.178
    10   6 C    3.960 --    11 C    1.648     9 C    1.178    47 H    0.973
    11   6 C    3.962 --    10 C    1.648    13 C    1.185    48 H    0.974
    12   7 N    3.297 --    13 C    1.262     9 C    1.227     1 Zn   0.455
    13   6 C    3.901 --    12 N    1.262    14 C    1.255    11 C    1.185
    14   6 C    3.940 --    15 C    1.255    13 C    1.255   125 C    1.189
    15   6 C    3.901 --    34 N    1.262    14 C    1.255    16 C    1.185
    16   6 C    3.962 --    17 C    1.648    15 C    1.185    49 H    0.974
    17   6 C    3.960 --    16 C    1.648    18 C    1.178    50 H    0.973
    18   6 C    3.912 --    19 C    1.322    34 N    1.227    17 C    1.178
    19   6 C    3.933 --    18 C    1.322    29 C    1.312    20 C    1.031
    20   6 C    3.986 --    28 C    1.386    21 C    1.384    19 C    1.031
    21   6 C    3.987 --    22 C    1.465    20 C    1.384    51 H    0.972
                            27 C    0.102
    22   6 C    3.990 --    21 C    1.465    23 C    1.384    52 H    0.968
                            28 C    0.102
    23   6 C    3.982 --    27 C    1.388    22 C    1.384    24 C    1.011
    24   6 C    3.835 --    26 O    1.689    25 O    1.087    23 C    1.011
    25   8 O    2.096 --    24 C    1.087    53 H    0.839    26 O    0.128
    26   8 O    1.957 --    24 C    1.689    25 O    0.128
    27   6 C    3.991 --    28 C    1.462    23 C    1.388    54 H    0.970
                            21 C    0.102
    28   6 C    3.987 --    27 C    1.462    20 C    1.386    55 H    0.972
                            22 C    0.102
    29   6 C    3.918 --    19 C    1.312    33 N    1.246    30 C    1.171
    30   6 C    3.963 --    31 C    1.660    29 C    1.171    56 H    0.973
    31   6 C    3.961 --    30 C    1.660    32 C    1.170    57 H    0.975
    32   6 C    3.921 --     2 C    1.358    33 N    1.232    31 C    1.170
    33   7 N    3.294 --    29 C    1.246    32 C    1.232     1 Zn   0.459
    34   7 N    3.297 --    15 C    1.262    18 C    1.227     1 Zn   0.455
    35   6 C    3.986 --    43 C    1.386    36 C    1.384     8 C    1.031
    36   6 C    3.987 --    37 C    1.465    35 C    1.384    58 H    0.972
                            42 C    0.102
    37   6 C    3.990 --    36 C    1.465    38 C    1.384    59 H    0.968
                            43 C    0.102
    38   6 C    3.982 --    42 C    1.388    37 C    1.384    39 C    1.011
    39   6 C    3.835 --    41 O    1.689    40 O    1.087    38 C    1.011
    40   8 O    2.096 --    39 C    1.087    60 H    0.839    41 O    0.128
    41   8 O    1.957 --    39 C    1.689    40 O    0.128
    42   6 C    3.991 --    43 C    1.462    38 C    1.388    61 H    0.970
                            36 C    0.102
    43   6 C    3.987 --    42 C    1.462    35 C    1.386    62 H    0.972
                            37 C    0.102
    44   1 H    1.001 --     2 C    0.971
    45   1 H    0.998 --     4 C    0.975
    46   1 H    1.004 --     5 C    0.973
    47   1 H    1.004 --    10 C    0.973
    48   1 H    1.002 --    11 C    0.974
    49   1 H    1.002 --    16 C    0.974
    50   1 H    1.004 --    17 C    0.973
    51   1 H    1.004 --    21 C    0.972
    52   1 H    1.005 --    22 C    0.968
    53   1 H    0.874 --    25 O    0.839
    54   1 H    1.005 --    27 C    0.970
    55   1 H    1.004 --    28 C    0.972
    56   1 H    1.004 --    30 C    0.973
    57   1 H    0.998 --    31 C    0.975
    58   1 H    1.004 --    36 C    0.972
    59   1 H    1.005 --    37 C    0.968
    60   1 H    0.874 --    40 O    0.839
    61   1 H    1.005 --    42 C    0.970
    62   1 H    1.004 --    43 C    0.972
    63  30 Zn   1.994 --    95 N    0.459    69 N    0.459    74 N    0.455
                            96 N    0.455
    64   6 C    3.929 --    94 C    1.358    65 C    1.358   106 H    0.971
    65   6 C    3.921 --    64 C    1.358    69 N    1.232    66 C    1.170
    66   6 C    3.961 --    67 C    1.660    65 C    1.170   107 H    0.975
    67   6 C    3.963 --    66 C    1.660    68 C    1.171   108 H    0.973
    68   6 C    3.918 --    70 C    1.312    69 N    1.246    67 C    1.171
    69   7 N    3.294 --    68 C    1.246    65 C    1.232    63 Zn   0.459
    70   6 C    3.933 --    71 C    1.322    68 C    1.312    97 C    1.031
    71   6 C    3.912 --    70 C    1.322    74 N    1.227    72 C    1.178
    72   6 C    3.960 --    73 C    1.648    71 C    1.178   109 H    0.973
    73   6 C    3.962 --    72 C    1.648    75 C    1.185   110 H    0.974
    74   7 N    3.297 --    75 C    1.262    71 C    1.227    63 Zn   0.455
    75   6 C    3.901 --    74 N    1.262    76 C    1.255    73 C    1.185
    76   6 C    3.940 --    77 C    1.255    75 C    1.255   140 C    1.189
    77   6 C    3.901 --    96 N    1.262    76 C    1.255    78 C    1.185
    78   6 C    3.962 --    79 C    1.648    77 C    1.185   111 H    0.974
    79   6 C    3.960 --    78 C    1.648    80 C    1.178   112 H    0.973
    80   6 C    3.912 --    81 C    1.322    96 N    1.227    79 C    1.178
    81   6 C    3.933 --    80 C    1.322    91 C    1.312    82 C    1.031
    82   6 C    3.986 --    90 C    1.386    83 C    1.384    81 C    1.031
    83   6 C    3.987 --    84 C    1.465    82 C    1.384   113 H    0.972
                            89 C    0.102
    84   6 C    3.990 --    83 C    1.465    85 C    1.384   114 H    0.968
                            90 C    0.102
    85   6 C    3.982 --    89 C    1.388    84 C    1.384    86 C    1.011
    86   6 C    3.835 --    88 O    1.689    87 O    1.087    85 C    1.011
    87   8 O    2.096 --    86 C    1.087   115 H    0.839    88 O    0.128
    88   8 O    1.957 --    86 C    1.689    87 O    0.128
    89   6 C    3.991 --    90 C    1.462    85 C    1.388   116 H    0.970
                            83 C    0.102
    90   6 C    3.987 --    89 C    1.462    82 C    1.386   117 H    0.972
                            84 C    0.102
    91   6 C    3.918 --    81 C    1.312    95 N    1.246    92 C    1.171
    92   6 C    3.963 --    93 C    1.660    91 C    1.171   118 H    0.973
    93   6 C    3.961 --    92 C    1.660    94 C    1.170   119 H    0.975
    94   6 C    3.921 --    64 C    1.358    95 N    1.232    93 C    1.170
    95   7 N    3.294 --    91 C    1.246    94 C    1.232    63 Zn   0.459
    96   7 N    3.297 --    77 C    1.262    80 C    1.227    63 Zn   0.455
    97   6 C    3.986 --   105 C    1.386    98 C    1.384    70 C    1.031
    98   6 C    3.987 --    99 C    1.465    97 C    1.384   120 H    0.972
                           104 C    0.102
    99   6 C    3.990 --    98 C    1.465   100 C    1.384   121 H    0.968
                           105 C    0.102
   100   6 C    3.982 --   104 C    1.388    99 C    1.384   101 C    1.011
   101   6 C    3.835 --   103 O    1.689   102 O    1.087   100 C    1.011
   102   8 O    2.096 --   101 C    1.087   122 H    0.839   103 O    0.128
   103   8 O    1.957 --   101 C    1.689   102 O    0.128
   104   6 C    3.991 --   105 C    1.462   100 C    1.388   123 H    0.970
                            98 C    0.102
   105   6 C    3.987 --   104 C    1.462    97 C    1.386   124 H    0.972
                            99 C    0.102
   106   1 H    1.001 --    64 C    0.971
   107   1 H    0.998 --    66 C    0.975
   108   1 H    1.004 --    67 C    0.973
   109   1 H    1.004 --    72 C    0.973
   110   1 H    1.002 --    73 C    0.974
   111   1 H    1.002 --    78 C    0.974
   112   1 H    1.004 --    79 C    0.973
   113   1 H    1.004 --    83 C    0.972
   114   1 H    1.005 --    84 C    0.968
   115   1 H    0.874 --    87 O    0.839
   116   1 H    1.005 --    89 C    0.970
   117   1 H    1.004 --    90 C    0.972
   118   1 H    1.004 --    92 C    0.973
   119   1 H    0.998 --    93 C    0.975
   120   1 H    1.004 --    98 C    0.972
   121   1 H    1.005 --    99 C    0.968
   122   1 H    0.874 --   102 O    0.839
   123   1 H    1.005 --   104 C    0.970
   124   1 H    1.004 --   105 C    0.972
   125   6 C    3.876 --   126 C    2.442    14 C    1.189   128 C    0.186
   126   6 C    3.934 --   125 C    2.442   127 C    1.341
   127   6 C    3.891 --   128 C    2.339   126 C    1.341   130 C    0.182
   128   6 C    3.924 --   127 C    2.339   129 C    1.366   125 C    0.186
   129   6 C    3.923 --   130 C    2.339   128 C    1.366   132 C    0.186
   130   6 C    3.892 --   129 C    2.339   131 C    1.342   127 C    0.182
   131   6 C    3.932 --   132 C    2.440   130 C    1.342
   132   6 C    3.877 --   131 C    2.440   142 C    1.191   129 C    0.186
   133   6 C    3.877 --   134 C    2.440   154 C    1.191   136 C    0.186
   134   6 C    3.932 --   133 C    2.440   135 C    1.342
   135   6 C    3.892 --   136 C    2.339   134 C    1.342   138 C    0.182
   136   6 C    3.923 --   135 C    2.339   137 C    1.366   133 C    0.186
   137   6 C    3.924 --   138 C    2.339   136 C    1.366   140 C    0.186
   138   6 C    3.891 --   137 C    2.339   139 C    1.341   135 C    0.182
   139   6 C    3.934 --   140 C    2.442   138 C    1.341
   140   6 C    3.876 --   139 C    2.442    76 C    1.189   137 C    0.186
   141  30 Zn   1.991 --   147 N    0.456   152 N    0.456   174 N    0.456
                           173 N    0.456
   142   6 C    3.930 --   143 C    1.253   172 C    1.253   132 C    1.191
   143   6 C    3.901 --   147 N    1.262   142 C    1.253   144 C    1.187
   144   6 C    3.960 --   145 C    1.645   143 C    1.187   184 H    0.974
   145   6 C    3.960 --   144 C    1.645   146 C    1.180   185 H    0.973
   146   6 C    3.910 --   148 C    1.318   147 N    1.226   145 C    1.180
   147   7 N    3.292 --   143 C    1.262   146 C    1.226   141 Zn   0.456
   148   6 C    3.929 --   146 C    1.318   149 C    1.318   175 C    1.030
   149   6 C    3.910 --   148 C    1.318   152 N    1.227   150 C    1.180
   150   6 C    3.960 --   151 C    1.645   149 C    1.180   186 H    0.973
   151   6 C    3.960 --   150 C    1.645   153 C    1.187   187 H    0.974
   152   7 N    3.292 --   153 C    1.262   149 C    1.227   141 Zn   0.456
   153   6 C    3.901 --   152 N    1.262   154 C    1.253   151 C    1.187
   154   6 C    3.930 --   153 C    1.253   155 C    1.253   133 C    1.191
   155   6 C    3.901 --   174 N    1.262   154 C    1.253   156 C    1.187
   156   6 C    3.960 --   157 C    1.645   155 C    1.187   188 H    0.974
   157   6 C    3.960 --   156 C    1.645   158 C    1.180   189 H    0.973
   158   6 C    3.910 --   159 C    1.318   174 N    1.226   157 C    1.180
   159   6 C    3.929 --   158 C    1.318   169 C    1.318   160 C    1.030
   160   6 C    3.986 --   168 C    1.386   161 C    1.385   159 C    1.030
   161   6 C    3.987 --   162 C    1.465   160 C    1.385   190 H    0.972
                           167 C    0.102
   162   6 C    3.990 --   161 C    1.465   163 C    1.384   191 H    0.968
                           168 C    0.102
   163   6 C    3.982 --   167 C    1.388   162 C    1.384   164 C    1.010
   164   6 C    3.835 --   166 O    1.689   165 O    1.087   163 C    1.010
   165   8 O    2.096 --   164 C    1.087   192 H    0.839   166 O    0.128
   166   8 O    1.957 --   164 C    1.689   165 O    0.128
   167   6 C    3.991 --   168 C    1.462   163 C    1.388   193 H    0.970
                           161 C    0.102
   168   6 C    3.987 --   167 C    1.462   160 C    1.386   194 H    0.972
                           162 C    0.102
   169   6 C    3.910 --   159 C    1.318   173 N    1.227   170 C    1.180
   170   6 C    3.960 --   171 C    1.645   169 C    1.180   195 H    0.973
   171   6 C    3.960 --   170 C    1.645   172 C    1.187   196 H    0.974
   172   6 C    3.901 --   173 N    1.262   142 C    1.253   171 C    1.187
   173   7 N    3.292 --   172 C    1.262   169 C    1.227   141 Zn   0.456
   174   7 N    3.292 --   155 C    1.262   158 C    1.226   141 Zn   0.456
   175   6 C    3.986 --   183 C    1.386   176 C    1.385   148 C    1.030
   176   6 C    3.987 --   177 C    1.464   175 C    1.385   197 H    0.972
                           182 C    0.102
   177   6 C    3.990 --   176 C    1.464   178 C    1.385   198 H    0.968
                           183 C    0.102
   178   6 C    3.982 --   182 C    1.388   177 C    1.385   179 C    1.010
   179   6 C    3.835 --   181 O    1.689   180 O    1.087   178 C    1.010
   180   8 O    2.096 --   179 C    1.087   199 H    0.838   181 O    0.128
   181   8 O    1.957 --   179 C    1.689   180 O    0.128
   182   6 C    3.991 --   183 C    1.462   178 C    1.388   200 H    0.970
                           176 C    0.102
   183   6 C    3.987 --   182 C    1.462   175 C    1.386   201 H    0.972
                           177 C    0.102
   184   1 H    1.002 --   144 C    0.974
   185   1 H    1.004 --   145 C    0.973
   186   1 H    1.004 --   150 C    0.973
   187   1 H    1.002 --   151 C    0.974
   188   1 H    1.002 --   156 C    0.974
   189   1 H    1.004 --   157 C    0.973
   190   1 H    1.004 --   161 C    0.972
   191   1 H    1.005 --   162 C    0.968
   192   1 H    0.874 --   165 O    0.839
   193   1 H    1.005 --   167 C    0.970
   194   1 H    1.004 --   168 C    0.972
   195   1 H    1.004 --   170 C    0.973
   196   1 H    1.002 --   171 C    0.974
   197   1 H    1.004 --   176 C    0.972
   198   1 H    1.005 --   177 C    0.968
   199   1 H    0.873 --   180 O    0.838
   200   1 H    1.005 --   182 C    0.970
   201   1 H    1.004 --   183 C    0.972
 ---------------------------------------------------------------------------

           -------------------------------------------------
          | TOTAL ENERGY             -376.398904695304 Eh   |
          | GRADIENT NORM               0.000517738519 Eh/α |
          | HOMO-LUMO GAP               1.135889516931 eV   |
           -------------------------------------------------

 * finished run on 2022/07/30 at 12:26:15.838
