   * xtb version 6.5.1 (b24c23e) compiled by 'conda@728c89f4b128' on 2022-07-12
          program call               : xtb Zn_p-CP_C2_2.xyz --gfn 1 --opt -T 48

   ID    Z sym.   atoms
    1   30 Zn     1, 63
    2    6 C      2-6, 8-11, 13-24, 27-32, 35-39, 42, 43, 64-68, 70-73,
                  75-86, 89-94, 97-101, 104, 105, 125, 126
    3    7 N      7, 12, 33, 34, 69, 74, 95, 96
    4    8 O      25, 26, 40, 41, 87, 88, 102, 103
    5    1 H      44-62, 106-124
########################################################################
[WARNING] Please study the warnings concerning your input carefully
-1- prog_main_parseArguments: Unknown option '-T' provided
########################################################################

          :  Hamiltonian                  GFN1-xTB          :
 * total energy  :  -232.5752348 Eh     change       -0.1018634E-09 Eh
 * total energy  :  -232.9762235 Eh     change       -0.4009887E+00 Eh
 * total energy  :  -233.0905361 Eh     change       -0.1143126E+00 Eh
 * total energy  :  -233.1406404 Eh     change       -0.5010436E-01 Eh
 * total energy  :  -233.1626227 Eh     change       -0.2198229E-01 Eh
 * total energy  :  -233.1734143 Eh     change       -0.1079161E-01 Eh
 * total energy  :  -233.1804343 Eh     change       -0.7019969E-02 Eh
 * total energy  :  -233.1857694 Eh     change       -0.5335068E-02 Eh
 * total energy  :  -233.1898107 Eh     change       -0.4041309E-02 Eh
 * total energy  :  -233.1927522 Eh     change       -0.2941493E-02 Eh
 * total energy  :  -233.2012964 Eh     change       -0.6115923E-04 Eh
 * total energy  :  -233.2013291 Eh     change       -0.3271953E-04 Eh
 * total energy  :  -233.2013622 Eh     change       -0.3307819E-04 Eh
 * total energy  :  -233.2013820 Eh     change       -0.1981800E-04 Eh
 * total energy  :  -233.2013941 Eh     change       -0.1211715E-04 Eh
 * total energy  :  -233.2014070 Eh     change       -0.1285904E-04 Eh
 * total energy  :  -233.2014143 Eh     change       -0.7365746E-05 Eh
 * total energy  :  -233.2014187 Eh     change       -0.4417393E-05 Eh
 * total energy  :  -233.2014224 Eh     change       -0.3665803E-05 Eh
   *** GEOMETRY OPTIMIZATION CONVERGED AFTER 44 ITERATIONS ***

 final structure:
================
126
 xtb: 6.5.1 (b24c23e)
Zn          18.97660737622893       -0.05849367731867        0.04474133821312
C           15.56316436187217       -0.11884496438080        0.07395970758771
C           16.19389536917678       -0.16643367449115        1.31110036181390
C           15.52102461150773       -0.21025659249668        2.57934977291171
C           16.48057353405534       -0.21455251187864        3.53775617555197
C           17.75259098411439       -0.18107813071772        2.86497587529293
N           17.54338232689762       -0.14981499594910        1.51785683305298
C           19.00316957941816       -0.13258223322869        3.49179531917874
C           20.24164931946411       -0.05187280375155        2.84510059325010
C           21.51680755678669       -0.02256959024885        3.50473449002228
C           22.46501576380568        0.02103546420506        2.53516760302469
N           20.44159682059398       -0.03404145265724        1.49029705626970
C           21.78547873458065        0.00324562369898        1.27423830142308
C           22.42503234652088       -0.00893904929267        0.01713479460119
C           21.76480107713409       -0.03131240679538       -1.22907919536699
C           22.42101906793675       -0.09363389604392       -2.50079082289482
C           21.45559362307090       -0.06956414046656       -3.45404906456378
C           20.19363521155437        0.00767764777830       -2.77304548100307
C           18.94286936452828        0.04345208369216       -3.40167856690203
C           18.93393146160611        0.10843946652414       -4.88278015785957
C           18.32514871234200       -0.89790889218398       -5.63801135243548
C           18.31605903722228       -0.82715391954256       -7.01879320666545
C           18.91220581156990        0.25310538380970       -7.67264765343767
C           18.87323159084029        0.28688646814371       -9.15351705445080
O           19.47387416197849        1.36438523277660       -9.68252823400485
O           18.35766594936199       -0.55782233792136       -9.84103612159694
C           19.52180456773828        1.26072034310222       -6.92408100395656
C           19.53306722535153        1.18528367828409       -5.54260925889749
C           17.70147014457756        0.02616239590623       -2.75444619131672
C           16.41713691749002        0.10038673169101       -3.40028463036473
C           15.47547868158924        0.04558848032013       -2.42585926296321
C           16.17172890742191       -0.04874395250838       -1.17316034168657
N           17.51734439146762       -0.04994926537328       -1.40524437663209
N           20.41735389508994        0.01266464036703       -1.42235238535951
C           19.01369121844793       -0.17307092757868        4.97491064511223
C           18.52927853899542       -1.29609378675496        5.65106239836369
C           18.53884573027892       -1.33785479920068        7.03291820898230
C           19.02762239879500       -0.25467255179153        7.76604249586768
C           19.01462872094400       -0.34561051672923        9.24492732707624
O           19.50028347425389        0.74670663616308        9.85532088930786
O           18.61152626107041       -1.29682292597541        9.86517008534172
C           19.50937797186268        0.87055925800664        7.09605388932353
C           19.50377178818775        0.90746201591270        5.71262459611091
H           14.47766532760875       -0.12484382585510        0.08317816965603
H           14.45014760066095       -0.22736659559017        2.70801797486571
H           16.34424398699976       -0.22591411935088        4.60729477132704
H           21.66823070261600       -0.04303610107104        4.57186275442026
H           23.53367476300154        0.06160085859266        2.66066636653007
H           23.48606934001119       -0.16215431307009       -2.64366328539625
H           21.58542123193668       -0.11965132211810       -4.52306445351049
H           17.87401522303805       -1.74521319511403       -5.13413008145487
H           17.84902796485893       -1.60727676143853       -7.60996592236792
H           19.40435607118591        1.31024931183120      -10.64946174066255
H           19.98359162139726        2.10244227999523       -7.42661337787563
H           19.99512740575384        1.97529256191429       -4.96115014585255
H           16.26018381907625        0.19507056064018       -4.46277894388260
H           14.40246837224321        0.07413257202366       -2.53309924025153
H           18.15999174933683       -2.14251680936279        5.08309916687065
H           18.16989942131031       -2.20899452085683        7.56317283458348
H           19.45644787525477        0.60619325857815       10.81500497280337
H           19.88565498521561        1.71531368171692        7.66104932903292
H           19.86689628778572        1.78712068847924        5.19292633211455
Zn          29.91582757088758       -0.05320432134841       -0.05124038826238
C           33.32926105685623       -0.10952699323664       -0.08721035636839
C           32.69852086846051       -0.01415668610547       -1.32158415110767
C           33.37138451689577        0.08858496809405       -2.58642742105686
C           32.41183007937078        0.19481941500177       -3.53893282598823
C           31.13981017212403        0.15042129563622       -2.86678482738097
N           31.34903204483879        0.02613842936867       -1.52504828275342
C           29.88921596746213        0.27084153876437       -3.48382102049332
C           28.65073318294223        0.27635422693563       -2.83212250416318
C           27.37557176768987        0.38171485608302       -3.48394231975438
C           26.42736811575349        0.31330975754560       -2.51580122480776
N           28.45078470769976        0.13759885297415       -1.48432679329040
C           27.10690290718444        0.14990170494195       -1.26538350768074
C           26.46740247240555       -0.00716354608452       -0.01805327209220
C           27.12768500805188       -0.17308113832363        1.21724837906240
C           26.47145185043761       -0.38129377157725        2.47334271540584
C           27.43687850321416       -0.46737221950291        3.42300686185470
C           28.69884187266538       -0.31231074341846        2.75542026810746
C           29.94960183798748       -0.34916555715511        3.38399236923389
C           29.95854102668304       -0.45533780409875        4.86271226417428
C           30.56731930451777       -1.54205176179143        5.49687763314912
C           30.57639084528558       -1.63098207761818        6.87660706060401
C           29.98023491533609       -0.63332165001432        7.65065313376668
C           30.01919586708386       -0.77052476562666        9.12554020600151
O           29.41854534152827        0.23878440713794        9.77526551758999
O           30.53475726558490       -1.68887686692019        9.71107338061959
C           29.37064286072677        0.45388659833088        7.02325539118854
C           29.35939320217826        0.53824312492009        5.64229822981053
C           31.19099060155514       -0.29168836654367        2.73906993741301
C           32.47532673305786       -0.29238111186060        3.38914990580167
C           33.41697452822728       -0.23443838371534        2.41489676406395
C           32.72071120535441       -0.18371725788817        1.15968095068764
N           31.37509885732006       -0.21172502540433        1.39008719894920
N           28.47513354983282       -0.15185284236350        1.41428100985684
C           29.87865805244240        0.40168058749721       -4.96170261150778
C           30.36318634768162       -0.63582566799744       -5.76286434182921
C           30.35356792814716       -0.51798051977967       -7.14031615751905
C           29.86466128107219        0.64252120123888       -7.74360913546790
C           29.87846887975074        0.72315844835280       -9.22301908893647
O           29.39133001765090        1.87786084056688       -9.70353237055458
O           30.28250597293728       -0.14990824949334       -9.94878819485721
C           29.38271648353205        1.68292445033308       -6.94832455560739
C           29.38840943205361        1.56002861811823       -5.56988266514873
H           34.41476041076725       -0.11439408873573       -0.09706438780186
H           34.44226184078868        0.08645459841333       -2.71621045614664
H           32.54815975778996        0.30688813509878       -4.60264396194200
H           27.22414368825504        0.48454749735457       -4.54630072012614
H           25.35871387824098        0.36820860443362       -2.63576006356888
H           25.40639438878595       -0.46570659102128        2.60738345159766
H           27.30704121309475       -0.64027702465127        4.47913348386024
H           31.01845211000654       -2.32560749324980        4.89866225337132
H           31.04341285204404       -2.47406967490169        7.37388791055601
H           29.48805585106012        0.07351026537286       10.72950696664331
H           28.90884799403856        1.23204820532767        7.61948729956704
H           28.89733318620624        1.39002632603380        5.15580594481690
H           32.63228620770278       -0.32083239510954        4.45547461391000
H           34.48998507687130       -0.21842703409558        2.52470629168013
H           30.73266649436459       -1.54202301327820       -5.29629826059655
H           30.72281275046381       -1.32201768791935       -7.76749518635812
H           29.43570826023659        1.84882474118126      -10.67306288840945
H           29.00630449932124        2.58711889789038       -7.41215255704927
H           29.02525257469529        2.37385952739993       -4.95220501930770
C           23.83702686846107       -0.00857262879593        0.00657535318484
C           25.05541175726371       -0.00495992580336       -0.00676310477431

          :  Hamiltonian                  GFN1-xTB          :
         :: total energy            -233.201422422522 Eh    ::
         :: gradient norm              0.000757287754 Eh/a0 ::
         :: HOMO-LUMO gap              1.096267491243 eV    ::
         :: SCC energy              -236.517573090014 Eh    ::
         :: repulsion energy           3.429506120596 Eh    ::

    * Orbital Energies and Occupations

         #    Occupation            Energy/Eh            Energy/eV
      -------------------------------------------------------------
         1        2.0000           -0.8313121             -22.6212
       ...           ...                  ...                  ...
       193        2.0000           -0.4382469             -11.9253
       194        2.0000           -0.4297319             -11.6936
       195        2.0000           -0.4297196             -11.6933
       196        2.0000           -0.4291952             -11.6790
       197        2.0000           -0.4290020             -11.6737
       198        2.0000           -0.4289919             -11.6735
       199        2.0000           -0.4287233             -11.6662
       200        2.0000           -0.4287178             -11.6660
       201        2.0000           -0.4276199             -11.6361
       202        2.0000           -0.4015311             -10.9262
       203        2.0000           -0.4015192             -10.9259
       204        2.0000           -0.3996037             -10.8738
       205        2.0000           -0.3847267             -10.4689 (HOMO)
       206                         -0.3444396              -9.3727 (LUMO)
       207                         -0.3364165              -9.1544
       208                         -0.3364112              -9.1542
       209                         -0.3271945              -8.9034
       210                         -0.3130772              -8.5193
       211                         -0.3110700              -8.4646
       212                         -0.3066042              -8.3431
       213                         -0.3065968              -8.3429
       214                         -0.2969742              -8.0811
       215                         -0.2893752              -7.8743
       216                         -0.2766069              -7.5269
       ...                                ...                  ...
       428                          1.3232525              36.0075
      -------------------------------------------------------------
                  HL-Gap            0.0402871 Eh            1.0963 eV

Wiberg/Mayer (AO) data.
largest (>0.10) Wiberg bond orders for each atom

     #   Z sym  total        # sym  WBO       # sym  WBO       # sym  WBO
 ---------------------------------------------------------------------------
     1  30 Zn   1.995 --    33 N    0.459     7 N    0.459    34 N    0.456
                            12 N    0.456
     2   6 C    3.928 --    32 C    1.358     3 C    1.358    44 H    0.971
     3   6 C    3.920 --     2 C    1.358     7 N    1.233     4 C    1.170
     4   6 C    3.960 --     5 C    1.660     3 C    1.170    45 H    0.975
     5   6 C    3.963 --     4 C    1.660     6 C    1.171    46 H    0.973
     6   6 C    3.918 --     8 C    1.314     7 N    1.245     5 C    1.171
     7   7 N    3.293 --     6 C    1.245     3 C    1.233     1 Zn   0.459
     8   6 C    3.931 --     9 C    1.320     6 C    1.314    35 C    1.029
     9   6 C    3.913 --     8 C    1.320    12 N    1.227    10 C    1.179
    10   6 C    3.959 --    11 C    1.645     9 C    1.179    47 H    0.973
    11   6 C    3.962 --    10 C    1.645    13 C    1.187    48 H    0.965
    12   7 N    3.296 --    13 C    1.260     9 C    1.227     1 Zn   0.456
    13   6 C    3.905 --    12 N    1.260    14 C    1.258    11 C    1.187
    14   6 C    3.940 --    15 C    1.258    13 C    1.258   125 C    1.180
    15   6 C    3.905 --    34 N    1.259    14 C    1.258    16 C    1.188
    16   6 C    3.962 --    17 C    1.644    15 C    1.188    49 H    0.965
    17   6 C    3.959 --    16 C    1.644    18 C    1.180    50 H    0.973
    18   6 C    3.913 --    19 C    1.318    34 N    1.229    17 C    1.180
    19   6 C    3.932 --    18 C    1.318    29 C    1.314    20 C    1.034
    20   6 C    3.986 --    28 C    1.384    21 C    1.383    19 C    1.034
    21   6 C    3.986 --    22 C    1.465    20 C    1.383    51 H    0.972
                            27 C    0.102
    22   6 C    3.990 --    21 C    1.465    23 C    1.384    52 H    0.968
                            28 C    0.102
    23   6 C    3.981 --    27 C    1.387    22 C    1.384    24 C    1.011
    24   6 C    3.835 --    26 O    1.689    25 O    1.087    23 C    1.011
    25   8 O    2.095 --    24 C    1.087    53 H    0.839    26 O    0.128
    26   8 O    1.957 --    24 C    1.689    25 O    0.128
    27   6 C    3.991 --    28 C    1.463    23 C    1.387    54 H    0.970
                            21 C    0.102
    28   6 C    3.987 --    27 C    1.463    20 C    1.384    55 H    0.972
                            22 C    0.102
    29   6 C    3.918 --    19 C    1.314    33 N    1.245    30 C    1.171
    30   6 C    3.963 --    31 C    1.660    29 C    1.171    56 H    0.973
    31   6 C    3.960 --    30 C    1.660    32 C    1.170    57 H    0.975
    32   6 C    3.921 --     2 C    1.358    33 N    1.233    31 C    1.170
    33   7 N    3.293 --    29 C    1.245    32 C    1.233     1 Zn   0.459
    34   7 N    3.296 --    15 C    1.259    18 C    1.229     1 Zn   0.456
    35   6 C    3.986 --    43 C    1.387    36 C    1.385     8 C    1.029
    36   6 C    3.987 --    37 C    1.465    35 C    1.385    58 H    0.972
                            42 C    0.102
    37   6 C    3.990 --    36 C    1.465    38 C    1.384    59 H    0.968
                            43 C    0.102
    38   6 C    3.982 --    42 C    1.388    37 C    1.384    39 C    1.011
    39   6 C    3.835 --    41 O    1.689    40 O    1.087    38 C    1.011
    40   8 O    2.095 --    39 C    1.087    60 H    0.839    41 O    0.128
    41   8 O    1.957 --    39 C    1.689    40 O    0.128
    42   6 C    3.991 --    43 C    1.462    38 C    1.388    61 H    0.970
                            36 C    0.102
    43   6 C    3.988 --    42 C    1.462    35 C    1.387    62 H    0.972
                            37 C    0.102
    44   1 H    1.001 --     2 C    0.971
    45   1 H    0.998 --     4 C    0.975
    46   1 H    1.004 --     5 C    0.973
    47   1 H    1.004 --    10 C    0.973
    48   1 H    1.008 --    11 C    0.965
    49   1 H    1.008 --    16 C    0.965
    50   1 H    1.004 --    17 C    0.973
    51   1 H    1.005 --    21 C    0.972
    52   1 H    1.005 --    22 C    0.968
    53   1 H    0.874 --    25 O    0.839
    54   1 H    1.005 --    27 C    0.970
    55   1 H    1.005 --    28 C    0.972
    56   1 H    1.004 --    30 C    0.973
    57   1 H    0.998 --    31 C    0.975
    58   1 H    1.004 --    36 C    0.972
    59   1 H    1.005 --    37 C    0.968
    60   1 H    0.874 --    40 O    0.839
    61   1 H    1.005 --    42 C    0.970
    62   1 H    1.004 --    43 C    0.972
    63  30 Zn   1.995 --    95 N    0.459    69 N    0.459    96 N    0.456
                            74 N    0.456
    64   6 C    3.928 --    94 C    1.358    65 C    1.358   106 H    0.971
    65   6 C    3.920 --    64 C    1.358    69 N    1.233    66 C    1.170
    66   6 C    3.960 --    67 C    1.660    65 C    1.170   107 H    0.975
    67   6 C    3.963 --    66 C    1.660    68 C    1.171   108 H    0.973
    68   6 C    3.918 --    70 C    1.314    69 N    1.245    67 C    1.171
    69   7 N    3.293 --    68 C    1.245    65 C    1.233    63 Zn   0.459
    70   6 C    3.931 --    71 C    1.320    68 C    1.314    97 C    1.029
    71   6 C    3.913 --    70 C    1.320    74 N    1.227    72 C    1.179
    72   6 C    3.959 --    73 C    1.645    71 C    1.179   109 H    0.973
    73   6 C    3.962 --    72 C    1.645    75 C    1.187   110 H    0.965
    74   7 N    3.296 --    75 C    1.260    71 C    1.227    63 Zn   0.456
    75   6 C    3.905 --    74 N    1.260    76 C    1.258    73 C    1.187
    76   6 C    3.940 --    77 C    1.258    75 C    1.258   126 C    1.180
    77   6 C    3.905 --    96 N    1.259    76 C    1.258    78 C    1.188
    78   6 C    3.962 --    79 C    1.644    77 C    1.188   111 H    0.965
    79   6 C    3.959 --    78 C    1.644    80 C    1.180   112 H    0.973
    80   6 C    3.913 --    81 C    1.318    96 N    1.229    79 C    1.180
    81   6 C    3.932 --    80 C    1.318    91 C    1.314    82 C    1.034
    82   6 C    3.986 --    90 C    1.384    83 C    1.383    81 C    1.034
    83   6 C    3.986 --    84 C    1.465    82 C    1.383   113 H    0.972
                            89 C    0.102
    84   6 C    3.990 --    83 C    1.465    85 C    1.384   114 H    0.968
                            90 C    0.102
    85   6 C    3.981 --    89 C    1.387    84 C    1.384    86 C    1.011
    86   6 C    3.835 --    88 O    1.689    87 O    1.087    85 C    1.011
    87   8 O    2.095 --    86 C    1.087   115 H    0.839    88 O    0.128
    88   8 O    1.957 --    86 C    1.689    87 O    0.128
    89   6 C    3.991 --    90 C    1.463    85 C    1.387   116 H    0.970
                            83 C    0.102
    90   6 C    3.987 --    89 C    1.463    82 C    1.384   117 H    0.972
                            84 C    0.102
    91   6 C    3.918 --    81 C    1.314    95 N    1.245    92 C    1.171
    92   6 C    3.963 --    93 C    1.660    91 C    1.171   118 H    0.973
    93   6 C    3.960 --    92 C    1.660    94 C    1.170   119 H    0.975
    94   6 C    3.921 --    64 C    1.358    95 N    1.233    93 C    1.170
    95   7 N    3.293 --    91 C    1.245    94 C    1.233    63 Zn   0.459
    96   7 N    3.296 --    77 C    1.259    80 C    1.229    63 Zn   0.456
    97   6 C    3.986 --   105 C    1.387    98 C    1.385    70 C    1.029
    98   6 C    3.987 --    99 C    1.465    97 C    1.385   120 H    0.972
                           104 C    0.102
    99   6 C    3.990 --    98 C    1.465   100 C    1.384   121 H    0.968
                           105 C    0.102
   100   6 C    3.982 --   104 C    1.388    99 C    1.384   101 C    1.011
   101   6 C    3.835 --   103 O    1.689   102 O    1.087   100 C    1.011
   102   8 O    2.095 --   101 C    1.087   122 H    0.839   103 O    0.128
   103   8 O    1.957 --   101 C    1.689   102 O    0.128
   104   6 C    3.991 --   105 C    1.462   100 C    1.388   123 H    0.970
                            98 C    0.102
   105   6 C    3.988 --   104 C    1.462    97 C    1.387   124 H    0.972
                            99 C    0.102
   106   1 H    1.001 --    64 C    0.971
   107   1 H    0.998 --    66 C    0.975
   108   1 H    1.004 --    67 C    0.973
   109   1 H    1.004 --    72 C    0.973
   110   1 H    1.008 --    73 C    0.965
   111   1 H    1.008 --    78 C    0.965
   112   1 H    1.004 --    79 C    0.973
   113   1 H    1.005 --    83 C    0.972
   114   1 H    1.005 --    84 C    0.968
   115   1 H    0.874 --    87 O    0.839
   116   1 H    1.005 --    89 C    0.970
   117   1 H    1.005 --    90 C    0.972
   118   1 H    1.004 --    92 C    0.973
   119   1 H    0.998 --    93 C    0.975
   120   1 H    1.004 --    98 C    0.972
   121   1 H    1.005 --    99 C    0.968
   122   1 H    0.874 --   102 O    0.839
   123   1 H    1.005 --   104 C    0.970
   124   1 H    1.004 --   105 C    0.972
   125   6 C    3.935 --   126 C    2.577    14 C    1.180
   126   6 C    3.935 --   125 C    2.577    76 C    1.180
 ---------------------------------------------------------------------------

           -------------------------------------------------
          | TOTAL ENERGY             -233.201422422522 Eh   |
          | GRADIENT NORM               0.000757287754 Eh/α |
          | HOMO-LUMO GAP               1.096267491243 eV   |
           -------------------------------------------------

 * finished run on 2022/07/30 at 11:50:04.320
