   * xtb version 6.5.1 (b24c23e) compiled by 'conda@728c89f4b128' on 2022-07-12
          program call               : xtb Ni_NMA_C8_3.xyz --gfn 1 --opt -T 48

   ID    Z sym.   atoms
    1   28 Ni     1, 67, 149
    2    6 C      2-6, 8-12, 14-19, 21-26, 28-32, 34-40, 68-72, 74-78, 80-85,
                  87-92, 94-98, 100-106, 133-148, 150-154, 156-160, 162-167,
                  169-174, 176-180, 182-188
    3    7 N      7, 13, 20, 27, 33, 41, 73, 79, 86, 93, 99, 107, 155, 161,
                  168, 175, 181, 189
    4    1 H      42-66, 108-132, 190-213

          :  Hamiltonian                  GFN1-xTB          :
 * total energy  :  -342.6195093 Eh     change        0.7511858E-08 Eh
 * total energy  :  -353.9960837 Eh     change       -0.1137657E+02 Eh
 * total energy  :  -355.5115624 Eh     change       -0.1515479E+01 Eh
 * total energy  :  -356.3870550 Eh     change       -0.8754926E+00 Eh
 * total energy  :  -356.8904137 Eh     change       -0.5033586E+00 Eh
 * total energy  :  -357.1802537 Eh     change       -0.2898400E+00 Eh
 * total energy  :  -357.3864599 Eh     change       -0.2062062E+00 Eh
 * total energy  :  -357.5534222 Eh     change       -0.1669623E+00 Eh
 * total energy  :  -357.6971419 Eh     change       -0.1437197E+00 Eh
 * total energy  :  -357.8215410 Eh     change       -0.1243991E+00 Eh
 * total energy  :  -358.8882918 Eh     change       -0.3382620E-04 Eh
 * total energy  :  -358.8883270 Eh     change       -0.3515987E-04 Eh
 * total energy  :  -358.8883415 Eh     change       -0.1447652E-04 Eh
 * total energy  :  -358.8883545 Eh     change       -0.1307529E-04 Eh
 * total energy  :  -358.8883623 Eh     change       -0.7775048E-05 Eh
 * total energy  :  -358.8883714 Eh     change       -0.9129121E-05 Eh
 * total energy  :  -358.8883703 Eh     change        0.1149255E-05 Eh
 * total energy  :  -358.8883758 Eh     change       -0.5472177E-05 Eh
 * total energy  :  -358.8883777 Eh     change       -0.1965144E-05 Eh
   *** GEOMETRY OPTIMIZATION CONVERGED AFTER 121 ITERATIONS ***

 final structure:
================
213
 xtb: 6.5.1 (b24c23e)
Ni          30.96039632188310        0.06043661725957       -0.05934921768755
C           27.57385420455614        0.13794026157713       -0.13622173030424
C           28.21918285163728        0.90054367513147        0.81572545256223
C           27.54188956855798        1.67989344496571        1.80547546480688
C           28.49583181529083        2.36462300723758        2.48039456857288
C           29.75417525644878        2.01903191628753        1.88746514083339
N           29.57735290471812        1.08201948757569        0.90027691699311
C           30.96369928614866        2.62041522372463        2.21829515399127
C           30.96889299501397        3.71906125197115        3.20936001189072
C           30.20757324155573        4.87341744577791        3.00393016613506
C           30.21807849819204        5.90083846223043        3.92790757373703
C           30.98786495590688        5.80191514123630        5.09370782098987
N           30.92152827766614        6.83235795596819        6.01896641575841
C           32.01524585344345        7.02675353414898        6.96157176833632
C           31.73972563287795        4.64343918489268        5.31100827609273
C           31.73304743388146        3.62441529816985        4.37414180701738
C           32.16793977369620        2.23138603259115        1.64367893280494
C           33.41797536774293        2.88358992773284        1.88901711861994
C           34.37023954286600        2.16057617181196        1.25035548203632
N           32.34904666469809        1.14515652271139        0.81708445855387
C           33.69951811389117        1.07466551310983        0.61099007380970
C           34.36832049533368        0.03323298633064       -0.04010620013215
C           33.69098533076815       -1.00789284675605       -0.68332308136125
C           34.35121909738963       -2.11990073249990       -1.28775801496012
C           33.39241442605417       -2.85278312696686       -1.90501676823007
C           32.15018508146940       -2.17527092630696       -1.69006760023749
N           32.34123535723480       -1.06659320063615       -0.89543661682109
C           30.94766035655882       -2.55344781594601       -2.27463045797841
C           30.93700106335928       -3.69147633673561       -3.22029098118824
C           31.72441977484964       -3.67304556489396       -4.37304795682740
C           31.71315815592720       -4.73198523163818       -5.26466152132873
C           30.91852012853419       -5.85417513058978       -5.01226714750702
N           30.83376666462523       -6.92160976882961       -5.89302332170716
C           31.93688479166754       -7.19405879442501       -6.80476357146228
C           30.12380869927393       -5.87569712632468       -3.85924114283964
C           30.13147732666628       -4.80879934048291       -2.98124489248358
C           29.75157686272566       -1.89632310415819       -2.00574338205485
C           28.50624486812617       -2.20222949900789       -2.64590970371049
C           27.55846627307872       -1.44373380115123       -2.04532015700904
C           28.22643634643692       -0.66808909519914       -1.04620047017439
N           29.57634488125639       -0.91957518742073       -1.05818285037639
H           26.49074060664502        0.16601826047674       -0.16419316372631
H           26.47357292630551        1.68616560462144        1.95317934994772
H           28.37017225887993        3.04269518205458        3.30881620921816
H           29.62172592714574        4.97297348243670        2.09664985686337
H           29.62880056881332        6.79472621087935        3.75210615839457
H           30.60283163191362        7.70378358704465        5.61261604284767
H           32.98293157346831        7.08205568675275        6.44998214387090
H           32.03695483202528        6.20901853688663        7.68309231641183
H           31.83660483184916        7.95922840718351        7.49685841042846
H           32.32959293916800        4.52950035033719        6.21220701910793
H           32.31319555624204        2.72673021451168        4.55885897323284
H           33.54115684365132        3.78345458172181        2.46930925552793
H           35.43367190577385        2.33320182513794        1.20945441616932
H           35.41217071698978       -2.30452323887655       -1.23601756089643
H           33.50702639592457       -3.77273417092705       -2.45474281761111
H           32.33726944775650       -2.80380033502532       -4.58592215106633
H           32.32247472093999       -4.67724112808448       -6.15842748689147
H           30.47810010625863       -7.76306458717363       -5.45542982925801
H           32.00085482925149       -6.40920670823002       -7.55950813916108
H           31.73496155272743       -8.14178334287740       -7.30371714710866
H           32.89244709438213       -7.26105935471469       -6.27230149426609
H           29.50035793643628       -6.74034942102938       -3.65715905653573
H           29.52418273113899       -4.84716599970021       -2.08345523024196
H           28.38567129754928       -2.90409199780134       -3.45508607681458
H           26.49960738220893       -1.40143413703680       -2.24575456654515
Ni          68.07584361761772        0.01489175071255       -0.01803113221200
C           71.45976738303912        0.09717653642708       -0.15496037241251
C           70.81520857047489       -1.00433796511057       -0.67967350970607
C           71.49275931446118       -2.13538763964939       -1.23422730953190
C           70.53784432792555       -2.94580757436949       -1.74976002844332
C           69.27824722857702       -2.29943532535985       -1.52602029768707
N           69.45601417960765       -1.13362228842905       -0.82409608336013
C           68.06582668729862       -2.75861174685694       -2.02952743262734
C           68.06180371392361       -3.95436266573504       -2.90106915084110
C           68.80759285870984       -3.97821244362555       -4.08331350747320
C           68.79919309829653       -5.09110888457837       -4.90219446627335
C           68.04765314348953       -6.22182468861348       -4.55855748282392
N           68.11641246638749       -7.33571395044705       -5.38124292629951
C           67.03457526609552       -8.31130720297879       -5.36677046794836
C           67.31210475612157       -6.20891978579929       -3.36971590691102
C           67.31605566794468       -5.08483453707639       -2.56169876965787
C           66.85973744696294       -2.12623508101703       -1.75230221559482
C           65.60364800900811       -2.51685799725774       -2.31605367465617
C           64.65364993539519       -1.74885350601972       -1.72859268530286
N           66.68343578625574       -1.08974745217674       -0.86304122913986
C           65.33166667693006       -0.88624302845439       -0.81522451337665
C           64.67001465275102       -0.03216251741316        0.07290299734688
C           65.35443676180662        0.82710609087908        0.93870763172499
C           64.70383720528837        1.65234336213784        1.90474397089032
C           65.66452349224143        2.42952478965098        2.46222349826193
C           66.89778612382688        2.08770871256563        1.82151825767193
N           66.70128129520191        1.06388375201363        0.92149997620945
C           68.09530102920252        2.76130952163336        2.03042944139722
C           68.10533260267765        3.94625751863768        2.91618152315844
C           67.28733500669297        5.04563979496758        2.64810579003794
C           67.29842432017544        6.16286648558272        3.46530760922713
C           68.12490138001829        6.20045445742108        4.59222914760216
N           68.21193193747150        7.31158940365577        5.41664665074522
C           67.09375461343376        8.24197536560866        5.49541727763565
C           68.94902764651199        5.10117977783383        4.86426139727060
C           68.94042495708764        3.99496793843356        4.03630962843878
C           69.28508283652801        2.36451087769457        1.42884728674639
C           70.52576022769694        3.07029842399036        1.55854434086337
C           71.47176350310734        2.31877115642136        0.94641149443119
C           70.80677813151962        1.16164072506248        0.43193797726215
N           69.46003171199605        1.21929108049512        0.69342443386025
H           72.54219852496144        0.12562886229571       -0.20211341196457
H           72.56202604905211       -2.27544222233664       -1.21946512463805
H           70.66324982946261       -3.89940914311722       -2.23639026665138
H           69.37943144958504       -3.10304018219771       -4.37203259350881
H           69.37587619180238       -5.09297580991045       -5.82121525410170
H           68.42022061004795       -7.11038921688005       -6.32089807847633
H           66.05903099018124       -7.83322525356026       -5.51129888139752
H           67.03205752782127       -8.85306652027534       -4.42005864408813
H           67.21112370775973       -9.02159626645183       -6.17440213359590
H           66.73711193478876       -7.07559118457907       -3.06745235695855
H           66.74873023706033       -5.09095490153665       -1.63724261243564
H           65.47490781306266       -3.27666339258890       -3.06958175305690
H           63.58731564179336       -1.75644822050921       -1.88746029996839
H           63.64758322786845        1.62779308053251        2.11952933294590
H           65.55689502691668        3.16661599562281        3.24116293791884
H           66.65011619519984        5.03400767489350        1.77046624253350
H           66.66441521562197        7.00535916143191        3.21777662773979
H           68.59916554424579        7.09510396108084        6.32720072994247
H           66.99075521838991        8.78355413064637        4.55431379362008
H           67.30733037066268        8.95861445946759        6.28828667587643
H           66.15385649712228        7.72431499832142        5.71822529281093
H           69.59655430656449        5.12257308348390        5.73452005840899
H           69.57089291470136        3.14402661880731        4.27012507958484
H           70.64513422471441        4.02148327251946        2.05136936398257
H           72.52738285057112        2.51396375451471        0.84310799978386
C           35.77216789529833        0.02549070337991       -0.03797919505715
C           36.99667338069836        0.01772245309545       -0.03700354028990
C           38.33947567730628        0.00757636595465       -0.03535243734341
C           39.57015667260411       -0.00320228501412       -0.03456123375379
C           40.90814205061582       -0.01197021861414       -0.03266359364210
C           42.13895524386606       -0.01927975931486       -0.03092640723666
C           43.48160992533917       -0.02177180169428       -0.02773433195878
C           44.70631920156782       -0.02101110645895       -0.02564177328938
C           54.33258778971383       -0.01072557940873        0.07221961992401
C           55.55717919025235       -0.01665492456588        0.08951944339837
C           56.89967327353407       -0.02380160555555        0.10473460089694
C           58.13047152133302       -0.02933074880989        0.11280361696526
C           59.46846539179187       -0.03435653795150        0.11740017260959
C           60.69921341510076       -0.03717908236057        0.11716972133183
C           62.04197194494365       -0.03838829039669        0.10930525219137
C           63.26644997708458       -0.03828693170506        0.09679649627603
Ni          49.51973165253300        0.00860413568394       -0.00962270774858
C           46.10939222513663       -0.01246867214307       -0.02365964205406
C           46.79370578048341       -1.09681036178114       -0.58336552571139
C           46.14255918467073       -2.24674629607433       -1.12250865496548
C           47.10524923344236       -2.99755260066169       -1.71282542968585
C           48.34063019542430       -2.29734515601126       -1.53938111033430
N           48.14329600532350       -1.15421517541875       -0.79827935973846
C           49.54510303042244       -2.68646905279640       -2.11449440943982
C           49.55412034413312       -3.84608161524582       -3.03299461279835
C           50.35659947882029       -4.96042991823150       -2.77066517069995
C           50.36454660859985       -6.04303444173967       -3.62909449426582
C           49.57905816008864       -6.03791853127822       -4.78886537794994
N           49.58641037407683       -7.16492469313844       -5.59574551906704
C           49.20177559190954       -7.05437847734161       -6.99652618771895
C           48.77006243600881       -4.92841203774786       -5.05262044394135
C           48.76013637907776       -3.85264184655793       -4.18160025216991
C           50.74170095721080       -2.02826557720483       -1.85461396194364
C           51.99129230230888       -2.36261259765019       -2.46565031708792
C           52.94120466752578       -1.61574293707566       -1.85013619200040
N           50.91827123726022       -1.03734358671455       -0.91518141798916
C           52.26737235164234       -0.81692843377163       -0.87825608007777
C           52.92981436329194       -0.00279524732164        0.04707561735296
C           52.24225790355903        0.82501256594370        0.94117753452474
C           52.88925209933843        1.63704426722897        1.92032385222281
C           51.92654180514349        2.40918488673153        2.48254418501765
C           50.69563531539758        2.07197727199812        1.83638806278260
N           50.89479528414098        1.05926138274679        0.92560667971991
C           49.49458315038690        2.73951497002650        2.04893729456134
C           49.48686044550376        3.92548260390734        2.93285670103328
C           48.66585890149915        3.97241460997573        4.06132475046450
C           48.65972370260544        5.07602398630877        4.89686604419985
C           49.48055442284979        6.17282922767334        4.61754441779775
N           49.47345205785440        7.32551238364952        5.38731739235948
C           49.05257788044096        7.26193602534079        6.78056623519118
C           50.29519300190620        6.13638297213392        3.47871752086471
C           50.30232736440556        5.02678008253858        2.65558919616506
C           48.30158210119729        2.32989691023433        1.46463701974404
C           47.05666209961095        3.01906915411599        1.61242027109037
C           46.10643257390272        2.23950382712987        1.03953874436131
C           46.77555605312418        1.08660324219748        0.52978505736995
N           48.12288866155981        1.16693740038571        0.74947532715812
H           45.08411388446937       -2.44005549103070       -1.05358144852259
H           46.99782941302234       -3.94416773469727       -2.21686726693195
H           50.96290233425658       -4.98267719511172       -1.87166240281530
H           50.98243419361822       -6.90691936836607       -3.40726857201469
H           50.41329355297790       -7.73542998130725       -5.46580490744717
H           48.13500426734099       -6.84055952795559       -7.07583306091310
H           49.76664180372492       -6.26680409667445       -7.50853217816334
H           49.40213517892045       -8.01195933615230       -7.47719997055740
H           48.14540456604388       -4.89840457726397       -5.93705084237842
H           48.14168240786054       -2.99031784014518       -4.40655379198596
H           52.11728212865101       -3.07515468026629       -3.26446898647506
H           54.00437949322368       -1.59700235372302       -2.02832583387688
H           53.94514819272893        1.61162054577701        2.13675503607641
H           52.03165858107810        3.13914672890097        3.26857392355782
H           48.03879234770554        3.12013593846371        4.29990536391199
H           48.01339620899341        5.07751359627733        5.76595239804012
H           50.30683829127724        7.88707336003996        5.26064519788615
H           49.59652617181671        6.48554227840123        7.33062944527917
H           49.25014691935585        8.23206149584754        7.23647052974807
H           47.98219709585047        7.06037064720853        6.83911873285453
H           50.92359381208168        6.98939589665537        3.24508522802917
H           50.93131249568997        5.01672013829901        1.77211867671096
H           46.93391782333005        3.97738350823373        2.09005814262064
H           45.04587407576464        2.41695782691949        0.96158499787990

          :  Hamiltonian                  GFN1-xTB          :
         :: total energy            -358.888377742403 Eh    ::
         :: gradient norm              0.000472475563 Eh/a0 ::
         :: HOMO-LUMO gap              0.974239362016 eV    ::
         :: SCC energy              -364.778757042281 Eh    ::
         :: repulsion energy           6.072046441310 Eh    ::

    * Orbital Energies and Occupations

         #    Occupation            Energy/Eh            Energy/eV
      -------------------------------------------------------------
         1        2.0000           -0.7792464             -21.2044
       ...           ...                  ...                  ...
       321        2.0000           -0.3902902             -10.6203
       322        2.0000           -0.3900456             -10.6137
       323        2.0000           -0.3893360             -10.5944
       324        2.0000           -0.3892856             -10.5930
       325        2.0000           -0.3891900             -10.5904
       326        2.0000           -0.3890341             -10.5862
       327        2.0000           -0.3881649             -10.5625
       328        2.0000           -0.3881119             -10.5611
       329        2.0000           -0.3879195             -10.5558
       330        2.0000           -0.3878663             -10.5544
       331        2.0000           -0.3817198             -10.3871
       332        2.0000           -0.3778075             -10.2807
       333        2.0000           -0.3725434             -10.1374 (HOMO)
       334                         -0.3367408              -9.1632 (LUMO)
       335                         -0.3283934              -8.9360
       336                         -0.3228373              -8.7849
       337                         -0.3216827              -8.7534
       338                         -0.3208781              -8.7315
       339                         -0.3206054              -8.7241
       340                         -0.3203716              -8.7178
       341                         -0.3192609              -8.6875
       342                         -0.3191075              -8.6834
       343                         -0.3018885              -8.2148
       344                         -0.2946646              -8.0182
       ...                                ...                  ...
       719                          1.6115056              43.8513
      -------------------------------------------------------------
                  HL-Gap            0.0358026 Eh            0.9742 eV

Wiberg/Mayer (AO) data.
largest (>0.10) Wiberg bond orders for each atom

     #   Z sym  total        # sym  WBO       # sym  WBO       # sym  WBO
 ---------------------------------------------------------------------------
     1  28 Ni   3.021 --    41 N    0.665     7 N    0.665    20 N    0.662
                            27 N    0.662
     2   6 C    3.931 --    40 C    1.364     3 C    1.362    42 H    0.970
     3   6 C    3.925 --     2 C    1.362     7 N    1.212     4 C    1.178
     4   6 C    3.959 --     5 C    1.644     3 C    1.178    43 H    0.975
     5   6 C    3.963 --     4 C    1.644     6 C    1.180    44 H    0.972
     6   6 C    3.917 --     8 C    1.317     7 N    1.222     5 C    1.180
     7   7 N    3.400 --     6 C    1.222     3 C    1.212     1 Ni   0.665
     8   6 C    3.939 --    17 C    1.325     6 C    1.317     9 C    1.036
     9   6 C    3.987 --    16 C    1.383    10 C    1.373     8 C    1.036
    10   6 C    3.988 --    11 C    1.477     9 C    1.373    45 H    0.972
    11   6 C    3.989 --    10 C    1.477    12 C    1.344    46 H    0.971
    12   6 C    3.952 --    15 C    1.352    11 C    1.344    13 N    1.111
    13   7 N    3.181 --    12 C    1.111    14 C    0.971    47 H    0.931
    14   6 C    3.968 --    50 H    0.990    49 H    0.986    48 H    0.984
                            13 N    0.971
    15   6 C    3.990 --    16 C    1.465    12 C    1.352    51 H    0.970
    16   6 C    3.988 --    15 C    1.465     9 C    1.383    52 H    0.972
    17   6 C    3.914 --     8 C    1.325    20 N    1.205    18 C    1.187
    18   6 C    3.959 --    19 C    1.631    17 C    1.187    53 H    0.973
    19   6 C    3.961 --    18 C    1.631    21 C    1.194    54 H    0.974
    20   7 N    3.404 --    21 C    1.238    17 C    1.205     1 Ni   0.662
    21   6 C    3.904 --    22 C    1.260    20 N    1.238    19 C    1.194
    22   6 C    3.941 --    21 C    1.260    23 C    1.259   133 C    1.189
    23   6 C    3.904 --    22 C    1.259    27 N    1.239    24 C    1.194
    24   6 C    3.961 --    25 C    1.632    23 C    1.194    55 H    0.974
    25   6 C    3.959 --    24 C    1.632    26 C    1.187    56 H    0.973
    26   6 C    3.914 --    28 C    1.326    27 N    1.204    25 C    1.187
    27   7 N    3.404 --    23 C    1.239    26 C    1.204     1 Ni   0.662
    28   6 C    3.939 --    26 C    1.326    37 C    1.316    29 C    1.036
    29   6 C    3.987 --    30 C    1.383    36 C    1.373    28 C    1.036
    30   6 C    3.988 --    31 C    1.465    29 C    1.383    57 H    0.972
    31   6 C    3.990 --    30 C    1.465    32 C    1.353    58 H    0.970
    32   6 C    3.952 --    31 C    1.353    35 C    1.344    33 N    1.111
    33   7 N    3.181 --    32 C    1.111    34 C    0.971    59 H    0.931
    34   6 C    3.968 --    61 H    0.990    60 H    0.986    62 H    0.984
                            33 N    0.971
    35   6 C    3.989 --    36 C    1.477    32 C    1.344    63 H    0.971
    36   6 C    3.988 --    35 C    1.477    29 C    1.373    64 H    0.972
    37   6 C    3.917 --    28 C    1.316    41 N    1.223    38 C    1.180
    38   6 C    3.963 --    39 C    1.644    37 C    1.180    65 H    0.973
    39   6 C    3.959 --    38 C    1.644    40 C    1.178    66 H    0.975
    40   6 C    3.924 --     2 C    1.364    41 N    1.210    39 C    1.178
    41   7 N    3.400 --    37 C    1.223    40 C    1.210     1 Ni   0.665
    42   1 H    1.000 --     2 C    0.970
    43   1 H    0.998 --     4 C    0.975
    44   1 H    1.005 --     5 C    0.972
    45   1 H    1.005 --    10 C    0.972
    46   1 H    0.999 --    11 C    0.971
    47   1 H    0.966 --    13 N    0.931
    48   1 H    1.003 --    14 C    0.984
    49   1 H    1.012 --    14 C    0.986
    50   1 H    1.007 --    14 C    0.990
    51   1 H    1.001 --    15 C    0.970
    52   1 H    1.005 --    16 C    0.972
    53   1 H    1.005 --    18 C    0.973
    54   1 H    1.002 --    19 C    0.974
    55   1 H    1.002 --    24 C    0.974
    56   1 H    1.005 --    25 C    0.973
    57   1 H    1.005 --    30 C    0.972
    58   1 H    1.001 --    31 C    0.970
    59   1 H    0.966 --    33 N    0.931
    60   1 H    1.012 --    34 C    0.986
    61   1 H    1.007 --    34 C    0.990
    62   1 H    1.003 --    34 C    0.984
    63   1 H    0.999 --    35 C    0.971
    64   1 H    1.005 --    36 C    0.972
    65   1 H    1.005 --    38 C    0.973
    66   1 H    0.998 --    39 C    0.975
    67  28 Ni   3.022 --   107 N    0.665    73 N    0.665    93 N    0.662
                            86 N    0.662
    68   6 C    3.931 --   106 C    1.363    69 C    1.363   108 H    0.970
    69   6 C    3.924 --    68 C    1.363    73 N    1.211    70 C    1.178
    70   6 C    3.959 --    71 C    1.644    69 C    1.178   109 H    0.975
    71   6 C    3.963 --    70 C    1.644    72 C    1.180   110 H    0.973
    72   6 C    3.917 --    74 C    1.317    73 N    1.222    71 C    1.180
    73   7 N    3.400 --    72 C    1.222    69 C    1.211    67 Ni   0.665
    74   6 C    3.939 --    83 C    1.325    72 C    1.317    75 C    1.036
    75   6 C    3.987 --    82 C    1.383    76 C    1.373    74 C    1.036
    76   6 C    3.988 --    77 C    1.477    75 C    1.373   111 H    0.972
    77   6 C    3.989 --    76 C    1.477    78 C    1.344   112 H    0.971
    78   6 C    3.952 --    81 C    1.353    77 C    1.344    79 N    1.111
    79   7 N    3.181 --    78 C    1.111    80 C    0.971   113 H    0.931
    80   6 C    3.968 --   116 H    0.990   115 H    0.986   114 H    0.984
                            79 N    0.971
    81   6 C    3.990 --    82 C    1.465    78 C    1.353   117 H    0.970
    82   6 C    3.988 --    81 C    1.465    75 C    1.383   118 H    0.972
    83   6 C    3.914 --    74 C    1.325    86 N    1.205    84 C    1.187
    84   6 C    3.959 --    85 C    1.632    83 C    1.187   119 H    0.973
    85   6 C    3.961 --    84 C    1.632    87 C    1.194   120 H    0.974
    86   7 N    3.404 --    87 C    1.238    83 C    1.205    67 Ni   0.662
    87   6 C    3.904 --    88 C    1.260    86 N    1.238    85 C    1.194
    88   6 C    3.941 --    87 C    1.260    89 C    1.259   148 C    1.189
    89   6 C    3.904 --    88 C    1.259    93 N    1.239    90 C    1.195
    90   6 C    3.961 --    91 C    1.631    89 C    1.195   121 H    0.974
    91   6 C    3.959 --    90 C    1.631    92 C    1.187   122 H    0.973
    92   6 C    3.914 --    94 C    1.326    93 N    1.204    91 C    1.187
    93   7 N    3.404 --    89 C    1.239    92 C    1.204    67 Ni   0.662
    94   6 C    3.939 --    92 C    1.326   103 C    1.316    95 C    1.037
    95   6 C    3.987 --    96 C    1.383   102 C    1.372    94 C    1.037
    96   6 C    3.988 --    97 C    1.465    95 C    1.383   123 H    0.972
    97   6 C    3.989 --    96 C    1.465    98 C    1.352   124 H    0.970
    98   6 C    3.952 --    97 C    1.352   101 C    1.344    99 N    1.111
    99   7 N    3.181 --    98 C    1.111   100 C    0.971   125 H    0.931
   100   6 C    3.967 --   127 H    0.990   126 H    0.986   128 H    0.984
                            99 N    0.971
   101   6 C    3.989 --   102 C    1.477    98 C    1.344   129 H    0.971
   102   6 C    3.988 --   101 C    1.477    95 C    1.372   130 H    0.972
   103   6 C    3.917 --    94 C    1.316   107 N    1.223   104 C    1.180
   104   6 C    3.963 --   105 C    1.644   103 C    1.180   131 H    0.973
   105   6 C    3.959 --   104 C    1.644   106 C    1.178   132 H    0.975
   106   6 C    3.924 --    68 C    1.363   107 N    1.210   105 C    1.178
   107   7 N    3.400 --   103 C    1.223   106 C    1.210    67 Ni   0.665
   108   1 H    1.000 --    68 C    0.970
   109   1 H    0.998 --    70 C    0.975
   110   1 H    1.005 --    71 C    0.973
   111   1 H    1.005 --    76 C    0.972
   112   1 H    0.999 --    77 C    0.971
   113   1 H    0.966 --    79 N    0.931
   114   1 H    1.003 --    80 C    0.984
   115   1 H    1.012 --    80 C    0.986
   116   1 H    1.007 --    80 C    0.990
   117   1 H    1.001 --    81 C    0.970
   118   1 H    1.005 --    82 C    0.972
   119   1 H    1.005 --    84 C    0.973
   120   1 H    1.002 --    85 C    0.974
   121   1 H    1.002 --    90 C    0.974
   122   1 H    1.005 --    91 C    0.973
   123   1 H    1.005 --    96 C    0.972
   124   1 H    1.001 --    97 C    0.970
   125   1 H    0.965 --    99 N    0.931
   126   1 H    1.012 --   100 C    0.986
   127   1 H    1.007 --   100 C    0.990
   128   1 H    1.003 --   100 C    0.984
   129   1 H    0.999 --   101 C    0.971
   130   1 H    1.005 --   102 C    0.972
   131   1 H    1.005 --   104 C    0.973
   132   1 H    0.998 --   105 C    0.975
   133   6 C    3.877 --   134 C    2.441    22 C    1.189   136 C    0.187
   134   6 C    3.936 --   133 C    2.441   135 C    1.343
   135   6 C    3.893 --   136 C    2.337   134 C    1.343   138 C    0.182
   136   6 C    3.926 --   135 C    2.337   137 C    1.369   133 C    0.187
   137   6 C    3.925 --   138 C    2.336   136 C    1.369   140 C    0.187
   138   6 C    3.893 --   137 C    2.336   139 C    1.345   135 C    0.182
   139   6 C    3.934 --   140 C    2.439   138 C    1.345
   140   6 C    3.877 --   139 C    2.439   150 C    1.192   137 C    0.187
   141   6 C    3.877 --   142 C    2.438   170 C    1.192   144 C    0.187
   142   6 C    3.934 --   141 C    2.438   143 C    1.345
   143   6 C    3.893 --   144 C    2.336   142 C    1.345   146 C    0.182
   144   6 C    3.925 --   143 C    2.336   145 C    1.369   141 C    0.187
   145   6 C    3.926 --   146 C    2.337   144 C    1.369   148 C    0.187
   146   6 C    3.893 --   145 C    2.337   147 C    1.344   143 C    0.182
   147   6 C    3.936 --   148 C    2.441   146 C    1.344
   148   6 C    3.877 --   147 C    2.441    88 C    1.189   145 C    0.187
   149  28 Ni   3.011 --   155 N    0.661   189 N    0.661   175 N    0.661
                           168 N    0.661
   150   6 C    3.931 --   151 C    1.258   188 C    1.256   140 C    1.192
   151   6 C    3.904 --   150 C    1.258   155 N    1.238   152 C    1.196
   152   6 C    3.959 --   153 C    1.629   151 C    1.196   190 H    0.974
   153   6 C    3.960 --   152 C    1.629   154 C    1.189   191 H    0.973
   154   6 C    3.911 --   156 C    1.320   155 N    1.205   153 C    1.189
   155   7 N    3.397 --   151 C    1.238   154 C    1.205   149 Ni   0.661
   156   6 C    3.934 --   165 C    1.321   154 C    1.320   157 C    1.036
   157   6 C    3.987 --   164 C    1.382   158 C    1.372   156 C    1.036
   158   6 C    3.988 --   159 C    1.478   157 C    1.372   192 H    0.972
   159   6 C    3.989 --   158 C    1.478   160 C    1.343   193 H    0.971
   160   6 C    3.952 --   163 C    1.352   159 C    1.343   161 N    1.112
   161   7 N    3.182 --   160 C    1.112   162 C    0.971   194 H    0.931
   162   6 C    3.967 --   197 H    0.990   195 H    0.986   196 H    0.984
                           161 N    0.971
   163   6 C    3.989 --   164 C    1.466   160 C    1.352   198 H    0.970
   164   6 C    3.988 --   163 C    1.466   157 C    1.382   199 H    0.972
   165   6 C    3.911 --   156 C    1.321   168 N    1.204   166 C    1.189
   166   6 C    3.960 --   167 C    1.628   165 C    1.189   200 H    0.973
   167   6 C    3.959 --   166 C    1.628   169 C    1.197   201 H    0.974
   168   7 N    3.397 --   169 C    1.239   165 C    1.204   149 Ni   0.661
   169   6 C    3.904 --   170 C    1.256   168 N    1.239   167 C    1.197
   170   6 C    3.931 --   171 C    1.257   169 C    1.256   141 C    1.192
   171   6 C    3.904 --   170 C    1.257   175 N    1.238   172 C    1.196
   172   6 C    3.959 --   173 C    1.628   171 C    1.196   202 H    0.974
   173   6 C    3.960 --   172 C    1.628   174 C    1.190   203 H    0.973
   174   6 C    3.911 --   176 C    1.320   175 N    1.205   173 C    1.190
   175   7 N    3.397 --   171 C    1.238   174 C    1.205   149 Ni   0.661
   176   6 C    3.934 --   185 C    1.321   174 C    1.320   177 C    1.037
   177   6 C    3.987 --   178 C    1.382   184 C    1.372   176 C    1.037
   178   6 C    3.987 --   179 C    1.466   177 C    1.382   204 H    0.972
   179   6 C    3.989 --   178 C    1.466   180 C    1.352   205 H    0.970
   180   6 C    3.952 --   179 C    1.352   183 C    1.343   181 N    1.112
   181   7 N    3.182 --   180 C    1.112   182 C    0.971   206 H    0.931
   182   6 C    3.967 --   208 H    0.990   209 H    0.986   207 H    0.984
                           181 N    0.971
   183   6 C    3.989 --   184 C    1.478   180 C    1.343   210 H    0.971
   184   6 C    3.988 --   183 C    1.478   177 C    1.372   211 H    0.972
   185   6 C    3.911 --   176 C    1.321   189 N    1.204   186 C    1.189
   186   6 C    3.960 --   187 C    1.629   185 C    1.189   212 H    0.973
   187   6 C    3.959 --   186 C    1.629   188 C    1.196   213 H    0.974
   188   6 C    3.904 --   150 C    1.256   189 N    1.239   187 C    1.196
   189   7 N    3.397 --   188 C    1.239   185 C    1.204   149 Ni   0.661
   190   1 H    1.002 --   152 C    0.974
   191   1 H    1.005 --   153 C    0.973
   192   1 H    1.005 --   158 C    0.972
   193   1 H    0.999 --   159 C    0.971
   194   1 H    0.965 --   161 N    0.931
   195   1 H    1.012 --   162 C    0.986
   196   1 H    1.003 --   162 C    0.984
   197   1 H    1.007 --   162 C    0.990
   198   1 H    1.001 --   163 C    0.970
   199   1 H    1.005 --   164 C    0.972
   200   1 H    1.005 --   166 C    0.973
   201   1 H    1.002 --   167 C    0.974
   202   1 H    1.002 --   172 C    0.974
   203   1 H    1.005 --   173 C    0.973
   204   1 H    1.005 --   178 C    0.972
   205   1 H    1.001 --   179 C    0.970
   206   1 H    0.965 --   181 N    0.931
   207   1 H    1.003 --   182 C    0.984
   208   1 H    1.007 --   182 C    0.990
   209   1 H    1.012 --   182 C    0.986
   210   1 H    0.999 --   183 C    0.971
   211   1 H    1.005 --   184 C    0.972
   212   1 H    1.005 --   186 C    0.973
   213   1 H    1.002 --   187 C    0.974
 ---------------------------------------------------------------------------

           -------------------------------------------------
          | TOTAL ENERGY             -358.888377742403 Eh   |
          | GRADIENT NORM               0.000472475563 Eh/α |
          | HOMO-LUMO GAP               0.974239362016 eV   |
           -------------------------------------------------

 * finished run on 2022/07/30 at 03:41:39.091
