   * xtb version 6.5.1 (b24c23e) compiled by 'conda@728c89f4b128' on 2022-07-12
          program call               : xtb Zn_PhCN_C6_2.xyz --gfn 1 --opt -T 48

   ID    Z sym.   atoms
    1   30 Zn     1, 59
    2    6 C      2-6, 8-13, 15-19, 21-26, 28-33, 35-40, 60-64, 66-71, 73-77,
                  79-84, 86-91, 93-98, 117-122
    3    7 N      7, 14, 20, 27, 34, 41, 65, 72, 78, 85, 92, 99
    4    1 H      42-58, 100-116
########################################################################
[WARNING] Please study the warnings concerning your input carefully
-1- prog_main_parseArguments: Unknown option '-T' provided
########################################################################

          :  Hamiltonian                  GFN1-xTB          :
 * total energy  :  -212.8603110 Eh     change       -0.9817427E-09 Eh
 * total energy  :  -214.0445366 Eh     change       -0.1184226E+01 Eh
 * total energy  :  -214.1863165 Eh     change       -0.1417799E+00 Eh
 * total energy  :  -214.2478813 Eh     change       -0.6156485E-01 Eh
 * total energy  :  -214.2777950 Eh     change       -0.2991374E-01 Eh
 * total energy  :  -214.2919907 Eh     change       -0.1419561E-01 Eh
 * total energy  :  -214.3022444 Eh     change       -0.1025373E-01 Eh
 * total energy  :  -214.3098532 Eh     change       -0.7608806E-02 Eh
 * total energy  :  -214.3145610 Eh     change       -0.4707771E-02 Eh
 * total energy  :  -214.3191854 Eh     change       -0.4624455E-02 Eh
 * total energy  :  -214.3363089 Eh     change       -0.3700601E-04 Eh
 * total energy  :  -214.3363319 Eh     change       -0.2308926E-04 Eh
 * total energy  :  -214.3363492 Eh     change       -0.1730074E-04 Eh
 * total energy  :  -214.3363676 Eh     change       -0.1839193E-04 Eh
 * total energy  :  -214.3363781 Eh     change       -0.1048185E-04 Eh
 * total energy  :  -214.3363915 Eh     change       -0.1342284E-04 Eh
 * total energy  :  -214.3364017 Eh     change       -0.1014112E-04 Eh
 * total energy  :  -214.3364070 Eh     change       -0.5334589E-05 Eh
 * total energy  :  -214.3364115 Eh     change       -0.4504456E-05 Eh
   *** GEOMETRY OPTIMIZATION CONVERGED AFTER 43 ITERATIONS ***

 final structure:
================
122
 xtb: 6.5.1 (b24c23e)
Zn          15.59651945973096        0.01862508682457       -0.00188525922160
C           12.19072497393221        0.04096496421114        0.15171142972911
C           12.82681330489906        1.26096275676310        0.34662160398441
C           12.15942012748123        2.51199447255395        0.57514152110934
C           13.12303341510052        3.45572386524320        0.71798898862812
C           14.39252261866000        2.78988046691493        0.58881111142020
N           14.17721433403136        1.46365759158751        0.35450201563386
C           15.64697462511151        3.40802030242309        0.66438465725167
C           15.66794706545610        4.86163870237114        0.95865668475665
C           15.14438019486230        5.34743771462196        2.15930065762157
C           15.16515773398022        6.70136889077867        2.44165479402576
C           15.70863927969165        7.60108178056966        1.51978130557741
C           15.73021159938546        8.99513582753764        1.80616465023173
N           15.74766712571194       10.12216605209334        2.03807191403112
C           16.23113266665766        7.12092361734251        0.31511441655306
C           16.21169138351651        5.76494762352637        0.04225931923266
C           16.88211064738818        2.77311303086955        0.49206800556617
C           18.16637654487293        3.40415405743689        0.62435698326067
C           19.10570606351312        2.45066127294261        0.39881428047464
N           17.06614275025532        1.44760132281031        0.20291095671029
C           18.40645333107821        1.22719503986879        0.13617645081128
C           19.02865057937721       -0.00639710627637       -0.14242642615493
C           18.36760508020564       -1.22924861253074       -0.37369629032490
C           19.02506570117803       -2.46254183848974       -0.69217835899160
C           18.05649886168091       -3.40184726528127       -0.84108250441414
C           16.79673791276332       -2.75235398166360       -0.60355422445405
N           17.02310259519029       -1.42960986424490       -0.33216964213222
C           15.54289955991262       -3.37059280558402       -0.66605564133076
C           15.51744318155092       -4.82600049010468       -0.95191023331624
C           14.88616912925700       -5.31144570422885       -2.09967914108254
C           14.85960488134749       -6.66782682711626       -2.36997781325644
C           15.46233472805393       -7.57001893056147       -1.48828850181327
C           15.43308173367760       -8.96675613985280       -1.76098876232823
N           15.40847642558725      -10.09607277476244       -1.98155651407921
C           16.09330503791307       -7.08996889474494       -0.33665038779354
C           16.12112701305253       -5.73168686978753       -0.07633239134957
C           14.30828604938558       -2.73614571116822       -0.47980706264332
C           13.02395432921680       -3.38580960070201       -0.49133215300451
C           12.08942726139960       -2.42972470834296       -0.26302886716020
C           12.79068717011747       -1.18705604853690       -0.09909519725554
N           14.13202506841684       -1.40699083994302       -0.23005090615285
H           11.10627912000904        0.04786657186919        0.20143498658373
H           11.08907740972112        2.64114568136372        0.61138769797344
H           12.99018477741151        4.51282478109465        0.88391473987311
H           14.73380299420795        4.65153152375633        2.88224443181587
H           14.76268830152456        7.06933640449993        3.37820903750986
H           16.64971668485460        7.81591400072091       -0.40340707519863
H           16.60688789115276        5.39785488031267       -0.89827397253037
H           18.32800231341173        4.44089518176049        0.87192186722803
H           20.17859315162164        2.55758815723502        0.41490120848162
H           20.09148867234416       -2.58474091966320       -0.79534590127381
H           18.18135180155874       -4.44064720068498       -1.10101367407668
H           14.42745594373714       -4.61412905590630       -2.79166865039013
H           14.37290368480048       -7.03609398268743       -3.26555284090566
H           16.55778363113467       -7.78674974961343        0.35133338642132
H           16.60063621429568       -5.36407696372594        0.82397289705122
H           12.86313809283093       -4.44133574051396       -0.64194928819574
H           11.01873747884565       -2.54533223986311       -0.20057147389681
Zn          31.63502807393201       -0.01955306703035       -0.00109685932016
C           35.04082227725449       -0.03389472661337        0.15226857457300
C           34.40482170886607       -1.24199618817252        0.41125834074254
C           35.07218935973818       -2.47918298304052        0.70594713738238
C           34.10855091349822       -3.41393232285199        0.89899299559701
C           32.83910700245590       -2.75592637594083        0.73434912092813
N           33.05443381500933       -1.44403960551276        0.42977789851672
C           31.58468944526412       -3.36918065720111        0.84243238307631
C           31.56254981610526       -4.80431096892581        1.21668114433379
C           32.08249878317848       -5.22218223000242        2.44412972479573
C           32.05624898745643       -6.55756488186346        2.80378722667035
C           31.51093210681577       -7.50679898677126        1.93414950249555
C           31.48148808022907       -8.88172086941802        2.30121117343713
N           31.45702315564610       -9.99302821527326        2.59914572221254
C           30.99365529407004       -7.09502227298627        0.70224443851880
C           31.01854843423911       -5.75702875895219        0.35194376687526
C           30.34953779368209       -2.74449138463852        0.63600256992307
C           29.06528250020042       -3.36808259352638        0.80030954779474
C           28.12591803316569       -2.42775928300866        0.52519112616742
N           30.16542207346847       -1.43592609466924        0.27823184552747
C           28.82506341540217       -1.21940403260756        0.20000527876457
C           28.20276685368865       -0.00169189296630       -0.14108173014377
C           28.86375830410829        1.20754726794635       -0.43515314411090
C           28.20602252698983        2.42267535528457       -0.81657705152370
C           29.17453715905475        3.35268172973911       -1.01555798985822
C           30.43451614330272        2.71629832926231       -0.74592045861103
N           30.20828081084566        1.40956075546319       -0.40544705746912
C           31.68840083196248        3.33010086603973       -0.84236839283333
C           31.71233633356238        4.76780862011815       -1.20717345724176
C           32.33962225612012        5.19003701205282       -2.38176816988456
C           32.35994835368373        6.52909084012169       -2.72841285776147
C           31.75513532066914        7.47738223683293       -1.89785826027760
C           31.77550856588557        8.85623537493408       -2.25042108908217
N           31.79104497273024        9.97076660352390       -2.53649683315693
C           31.12947892805819        7.06087483561451       -0.71895526536686
C           31.10783075157769        5.71937213615283       -0.38221778364467
C           32.92307460193415        2.70627390810656       -0.62379144374210
C           34.20739563394547        3.35432491681247       -0.67048273130919
C           35.14200470497060        2.41161421571077       -0.39223601282543
C           34.44081723946157        1.17933268995892       -0.16251035165658
N           33.09941863664042        1.39216131365824       -0.30416255820912
H           36.12528775732657       -0.03819368232694        0.20202968861745
H           36.14253367885516       -2.60626374743044        0.74898555432312
H           34.24119800858602       -4.46070604688820        1.12113389917657
H           32.49382355557933       -4.48722111079433        3.12688697893976
H           32.45513134714989       -6.87246560644790        3.76098670601773
H           30.57413701824509       -7.82871552178859        0.02384003598875
H           30.62670495205319       -5.44327499024154       -0.60906083185016
H           28.90354958940111       -4.39063536449890        1.10099213615601
H           27.05304270511581       -2.53391991542620        0.54621980494506
H           27.13950075978842        2.53958355298895       -0.92454454092792
H           29.04931245664554        4.37646821709604       -1.32931543414187
H           32.79946182179995        4.45643711827319       -3.03439908864872
H           32.84259240928480        6.84800310868263       -3.64487947260298
H           30.66324638271413        7.79348520099311       -0.07063396463769
H           30.63176260927905        5.40139826691324        0.53854931480866
H           34.36792984569383        4.40041288267887       -0.87697499480923
H           36.21272669605685        2.53033600379076       -0.33641495261751
C           24.22980810295747       -0.00115058341120       -0.21808428437831
C           23.00164162773395       -0.00965228877176       -0.21855901006637
C           21.65719052580909       -0.01164202881046       -0.20609498124106
C           20.43361109490462       -0.01672477334816       -0.18546241237456
C           25.57422642571548       -0.00069920980912       -0.20375522624653
C           26.79779992233776        0.00673014789249       -0.18417178957511

          :  Hamiltonian                  GFN1-xTB          :
         :: total energy            -214.336411526601 Eh    ::
         :: gradient norm              0.000754317565 Eh/a0 ::
         :: HOMO-LUMO gap              1.137868433580 eV    ::
         :: SCC energy              -218.047506118068 Eh    ::
         :: repulsion energy           3.820955028128 Eh    ::

    * Orbital Energies and Occupations

         #    Occupation            Energy/Eh            Energy/eV
      -------------------------------------------------------------
         1        2.0000           -0.7703715             -20.9629
       ...           ...                  ...                  ...
       185        2.0000           -0.4320855             -11.7576
       186        2.0000           -0.4320809             -11.7575
       187        2.0000           -0.4316586             -11.7460
       188        2.0000           -0.4315135             -11.7421
       189        2.0000           -0.4312157             -11.7340
       190        2.0000           -0.4312047             -11.7337
       191        2.0000           -0.4311946             -11.7334
       192        2.0000           -0.4250997             -11.5676
       193        2.0000           -0.4200517             -11.4302
       194        2.0000           -0.4038594             -10.9896
       195        2.0000           -0.4038559             -10.9895
       196        2.0000           -0.3969578             -10.8018
       197        2.0000           -0.3876742             -10.5492 (HOMO)
       198                         -0.3458583              -9.4113 (LUMO)
       199                         -0.3382013              -9.2029
       200                         -0.3381961              -9.2028
       201                         -0.3353519              -9.1254
       202                         -0.3117170              -8.4823
       203                         -0.3090455              -8.4096
       204                         -0.3012262              -8.1968
       205                         -0.3012159              -8.1965
       206                         -0.2978733              -8.1055
       207                         -0.2944346              -8.0120
       208                         -0.2878773              -7.8335
       ...                                ...                  ...
       420                          1.5739155              42.8284
      -------------------------------------------------------------
                  HL-Gap            0.0418159 Eh            1.1379 eV

Wiberg/Mayer (AO) data.
largest (>0.10) Wiberg bond orders for each atom

     #   Z sym  total        # sym  WBO       # sym  WBO       # sym  WBO
 ---------------------------------------------------------------------------
     1  30 Zn   1.994 --    41 N    0.459     7 N    0.459    27 N    0.455
                            20 N    0.455
     2   6 C    3.929 --    40 C    1.358     3 C    1.358    42 H    0.971
     3   6 C    3.921 --     2 C    1.358     7 N    1.232     4 C    1.170
     4   6 C    3.960 --     5 C    1.660     3 C    1.170    43 H    0.975
     5   6 C    3.963 --     4 C    1.660     6 C    1.171    44 H    0.973
     6   6 C    3.918 --     8 C    1.312     7 N    1.246     5 C    1.171
     7   7 N    3.294 --     6 C    1.246     3 C    1.232     1 Zn   0.459
     8   6 C    3.932 --    17 C    1.322     6 C    1.312     9 C    1.031
     9   6 C    3.963 --    16 C    1.385    10 C    1.385     8 C    1.031
    10   6 C    3.987 --    11 C    1.464     9 C    1.385    45 H    0.971
                            15 C    0.102
    11   6 C    3.993 --    10 C    1.464    12 C    1.364    46 H    0.972
                            16 C    0.102
    12   6 C    3.984 --    15 C    1.364    11 C    1.364    13 C    1.099
    13   6 C    3.957 --    14 N    2.819    12 C    1.099
    14   7 N    2.972 --    13 C    2.819
    15   6 C    3.993 --    16 C    1.464    12 C    1.364    47 H    0.972
                            10 C    0.102
    16   6 C    3.987 --    15 C    1.464     9 C    1.385    48 H    0.971
                            11 C    0.102
    17   6 C    3.912 --     8 C    1.322    20 N    1.227    18 C    1.178
    18   6 C    3.960 --    19 C    1.647    17 C    1.178    49 H    0.973
    19   6 C    3.962 --    18 C    1.647    21 C    1.186    50 H    0.974
    20   7 N    3.297 --    21 C    1.262    17 C    1.227     1 Zn   0.455
    21   6 C    3.901 --    20 N    1.262    22 C    1.254    19 C    1.186
    22   6 C    3.940 --    23 C    1.255    21 C    1.254   120 C    1.190
    23   6 C    3.901 --    27 N    1.262    22 C    1.255    24 C    1.186
    24   6 C    3.962 --    25 C    1.647    23 C    1.186    51 H    0.974
    25   6 C    3.959 --    24 C    1.647    26 C    1.178    52 H    0.973
    26   6 C    3.912 --    28 C    1.322    27 N    1.227    25 C    1.178
    27   7 N    3.297 --    23 C    1.262    26 C    1.227     1 Zn   0.455
    28   6 C    3.932 --    26 C    1.322    37 C    1.313    29 C    1.031
    29   6 C    3.963 --    36 C    1.385    30 C    1.385    28 C    1.031
    30   6 C    3.987 --    31 C    1.464    29 C    1.385    53 H    0.971
                            35 C    0.102
    31   6 C    3.993 --    30 C    1.464    32 C    1.364    54 H    0.972
                            36 C    0.102
    32   6 C    3.984 --    31 C    1.364    35 C    1.364    33 C    1.098
    33   6 C    3.957 --    34 N    2.819    32 C    1.098
    34   7 N    2.972 --    33 C    2.819
    35   6 C    3.993 --    36 C    1.464    32 C    1.364    55 H    0.972
                            30 C    0.102
    36   6 C    3.987 --    35 C    1.464    29 C    1.385    56 H    0.971
                            31 C    0.102
    37   6 C    3.918 --    28 C    1.313    41 N    1.246    38 C    1.171
    38   6 C    3.963 --    39 C    1.660    37 C    1.171    57 H    0.973
    39   6 C    3.960 --    38 C    1.660    40 C    1.170    58 H    0.975
    40   6 C    3.921 --     2 C    1.358    41 N    1.232    39 C    1.170
    41   7 N    3.294 --    37 C    1.246    40 C    1.232     1 Zn   0.459
    42   1 H    1.001 --     2 C    0.971
    43   1 H    0.998 --     4 C    0.975
    44   1 H    1.004 --     5 C    0.973
    45   1 H    1.004 --    10 C    0.971
    46   1 H    1.000 --    11 C    0.972
    47   1 H    1.000 --    15 C    0.972
    48   1 H    1.004 --    16 C    0.971
    49   1 H    1.004 --    18 C    0.973
    50   1 H    1.002 --    19 C    0.974
    51   1 H    1.002 --    24 C    0.974
    52   1 H    1.004 --    25 C    0.973
    53   1 H    1.004 --    30 C    0.971
    54   1 H    1.000 --    31 C    0.972
    55   1 H    1.000 --    35 C    0.972
    56   1 H    1.004 --    36 C    0.971
    57   1 H    1.004 --    38 C    0.973
    58   1 H    0.998 --    39 C    0.975
    59  30 Zn   1.994 --    65 N    0.459    99 N    0.459    85 N    0.455
                            78 N    0.455
    60   6 C    3.929 --    98 C    1.358    61 C    1.358   100 H    0.971
    61   6 C    3.921 --    60 C    1.358    65 N    1.232    62 C    1.170
    62   6 C    3.960 --    63 C    1.660    61 C    1.170   101 H    0.975
    63   6 C    3.963 --    62 C    1.660    64 C    1.171   102 H    0.973
    64   6 C    3.918 --    66 C    1.313    65 N    1.246    63 C    1.171
    65   7 N    3.294 --    64 C    1.246    61 C    1.232    59 Zn   0.459
    66   6 C    3.932 --    75 C    1.322    64 C    1.313    67 C    1.031
    67   6 C    3.963 --    74 C    1.385    68 C    1.385    66 C    1.031
    68   6 C    3.987 --    69 C    1.464    67 C    1.385   103 H    0.971
                            73 C    0.102
    69   6 C    3.993 --    68 C    1.464    70 C    1.364   104 H    0.972
                            74 C    0.102
    70   6 C    3.984 --    73 C    1.364    69 C    1.364    71 C    1.098
    71   6 C    3.957 --    72 N    2.819    70 C    1.098
    72   7 N    2.972 --    71 C    2.819
    73   6 C    3.993 --    74 C    1.464    70 C    1.364   105 H    0.972
                            68 C    0.102
    74   6 C    3.987 --    73 C    1.464    67 C    1.385   106 H    0.971
                            69 C    0.102
    75   6 C    3.912 --    66 C    1.322    78 N    1.227    76 C    1.178
    76   6 C    3.959 --    77 C    1.647    75 C    1.178   107 H    0.973
    77   6 C    3.962 --    76 C    1.647    79 C    1.186   108 H    0.974
    78   7 N    3.297 --    79 C    1.262    75 C    1.227    59 Zn   0.455
    79   6 C    3.901 --    78 N    1.262    80 C    1.254    77 C    1.186
    80   6 C    3.940 --    81 C    1.255    79 C    1.254   122 C    1.190
    81   6 C    3.901 --    85 N    1.262    80 C    1.255    82 C    1.186
    82   6 C    3.962 --    83 C    1.647    81 C    1.186   109 H    0.974
    83   6 C    3.959 --    82 C    1.647    84 C    1.178   110 H    0.973
    84   6 C    3.912 --    86 C    1.322    85 N    1.227    83 C    1.178
    85   7 N    3.297 --    81 C    1.262    84 C    1.227    59 Zn   0.455
    86   6 C    3.932 --    84 C    1.322    95 C    1.313    87 C    1.030
    87   6 C    3.963 --    88 C    1.385    94 C    1.385    86 C    1.030
    88   6 C    3.987 --    89 C    1.464    87 C    1.385   111 H    0.971
                            93 C    0.102
    89   6 C    3.993 --    88 C    1.464    90 C    1.364   112 H    0.972
                            94 C    0.102
    90   6 C    3.984 --    89 C    1.364    93 C    1.364    91 C    1.098
    91   6 C    3.957 --    92 N    2.819    90 C    1.098
    92   7 N    2.972 --    91 C    2.819
    93   6 C    3.993 --    94 C    1.464    90 C    1.364   113 H    0.972
                            88 C    0.102
    94   6 C    3.987 --    93 C    1.464    87 C    1.385   114 H    0.971
                            89 C    0.102
    95   6 C    3.918 --    86 C    1.313    99 N    1.246    96 C    1.171
    96   6 C    3.963 --    97 C    1.660    95 C    1.171   115 H    0.973
    97   6 C    3.960 --    96 C    1.660    98 C    1.170   116 H    0.975
    98   6 C    3.921 --    60 C    1.358    99 N    1.232    97 C    1.170
    99   7 N    3.294 --    95 C    1.246    98 C    1.232    59 Zn   0.459
   100   1 H    1.001 --    60 C    0.971
   101   1 H    0.998 --    62 C    0.975
   102   1 H    1.004 --    63 C    0.973
   103   1 H    1.004 --    68 C    0.971
   104   1 H    1.000 --    69 C    0.972
   105   1 H    1.000 --    73 C    0.972
   106   1 H    1.004 --    74 C    0.971
   107   1 H    1.004 --    76 C    0.973
   108   1 H    1.002 --    77 C    0.974
   109   1 H    1.002 --    82 C    0.974
   110   1 H    1.004 --    83 C    0.973
   111   1 H    1.004 --    88 C    0.971
   112   1 H    1.000 --    89 C    0.972
   113   1 H    1.000 --    93 C    0.972
   114   1 H    1.004 --    94 C    0.971
   115   1 H    1.004 --    96 C    0.973
   116   1 H    0.998 --    97 C    0.975
   117   6 C    3.925 --   118 C    2.370   121 C    1.333   120 C    0.190
   118   6 C    3.925 --   117 C    2.370   119 C    1.333   122 C    0.190
   119   6 C    3.934 --   120 C    2.450   118 C    1.333
   120   6 C    3.890 --   119 C    2.450    22 C    1.190   117 C    0.190
   121   6 C    3.934 --   122 C    2.450   117 C    1.333
   122   6 C    3.890 --   121 C    2.450    80 C    1.190   118 C    0.190
 ---------------------------------------------------------------------------

           -------------------------------------------------
          | TOTAL ENERGY             -214.336411526601 Eh   |
          | GRADIENT NORM               0.000754317565 Eh/α |
          | HOMO-LUMO GAP               1.137868433580 eV   |
           -------------------------------------------------

 * finished run on 2022/07/30 at 16:30:37.593
