   * xtb version 6.5.1 (b24c23e) compiled by 'conda@728c89f4b128' on 2022-07-12
          program call               : xtb Ni_C2Py_C8_2.xyz --gfn 1 --opt -T 48

   ID    Z sym.   atoms
    1   28 Ni     1, 59
    2    6 C      2-6, 8-13, 15-19, 21-26, 28-33, 35-40, 60-64, 66-71, 73-77,
                  79-84, 86-91, 93-98, 117-124
    3    7 N      7, 14, 20, 27, 34, 41, 65, 72, 78, 85, 92, 99
    4    1 H      42-58, 100-116
########################################################################
[WARNING] Please study the warnings concerning your input carefully
-1- prog_main_parseArguments: Unknown option '-T' provided
########################################################################

          :  Hamiltonian                  GFN1-xTB          :
 * total energy  :  -224.7114995 Eh     change       -0.1357961E-08 Eh
 * total energy  :  -224.9709517 Eh     change       -0.2594522E+00 Eh
 * total energy  :  -225.0445647 Eh     change       -0.7361299E-01 Eh
 * total energy  :  -225.0707056 Eh     change       -0.2614099E-01 Eh
 * total energy  :  -225.0800720 Eh     change       -0.9366347E-02 Eh
 * total energy  :  -225.0850289 Eh     change       -0.4956868E-02 Eh
 * total energy  :  -225.0879352 Eh     change       -0.2906367E-02 Eh
 * total energy  :  -225.0886009 Eh     change       -0.6656286E-03 Eh
 * total energy  :  -225.0895476 Eh     change       -0.9467101E-03 Eh
 * total energy  :  -225.0900115 Eh     change       -0.4639591E-03 Eh
 * total energy  :  -225.0914833 Eh     change       -0.7947577E-05 Eh
 * total energy  :  -225.0914906 Eh     change       -0.7297405E-05 Eh
 * total energy  :  -225.0914876 Eh     change        0.2961454E-05 Eh
 * total energy  :  -225.0914934 Eh     change       -0.5764922E-05 Eh
 * total energy  :  -225.0914952 Eh     change       -0.1820931E-05 Eh
 * total energy  :  -225.0915011 Eh     change       -0.5928769E-05 Eh
 * total energy  :  -225.0914985 Eh     change        0.2574697E-05 Eh
 * total energy  :  -225.0915046 Eh     change       -0.6047509E-05 Eh
 * total energy  :  -225.0915063 Eh     change       -0.1703492E-05 Eh
   *** GEOMETRY OPTIMIZATION CONVERGED AFTER 50 ITERATIONS ***

 final structure:
================
124
 xtb: 6.5.1 (b24c23e)
Ni          13.60262422569857        0.05377780730569        0.00708304070416
C           10.19846685034011        0.11119247328777        0.00420560375967
C           10.85689399648883        0.92072976829460        0.90548443950098
C           10.18625918749447        1.77431022374358        1.83772138557337
C           11.15108552211804        2.43284139674369        2.52293266144805
C           12.40521331354469        1.98004386342869        2.00394947164723
N           12.22087099383357        1.04609671067101        1.02270323201377
C           13.63665248079311        2.47482452245289        2.43497020705324
C           13.65278036728510        3.47413171845473        3.43272707703728
C           13.66846394293289        4.33544620267854        4.28704120334172
C           13.69268818465683        5.34152624976263        5.28023251265331
C           14.89793053401474        5.91790917266393        5.69798257179615
C           14.86862471748818        6.90198106217843        6.66997099976994
N           13.74359784146032        7.33311766198175        7.23475236970425
C           12.59382349805903        6.78973064670628        6.84340067461871
C           12.51398570754483        5.80079062313271        5.87908847799664
C           14.85296805027583        2.03262937337135        1.91458728701361
C           16.11648114993378        2.54666997979430        2.33830143118497
C           17.06364512165814        1.86625846215769        1.64765561304898
N           15.01579442861447        1.05336737909155        0.96770873500526
C           16.37174099828255        0.94068214948676        0.80871709882791
C           17.02715507150935        0.02894910534637       -0.02326561781354
C           16.34487248043311       -0.88074407172220       -0.83539572359616
C           17.00834061353619       -1.82772354444008       -1.67330612268365
C           16.03900105452348       -2.51021257645701       -2.33048376969626
C           14.79067434018421       -1.97292543825286       -1.89075714735912
N           14.98465017834157       -0.97986539511086       -0.96433654515244
C           13.55924922895630       -2.39911683705126       -2.38831189927957
C           13.53951953565388       -3.41587541770554       -3.36823563810858
C           13.51786700386058       -4.29164989174104       -4.20757953602798
C           13.49011329894565       -5.31302849887947       -5.18495656770275
C           14.66399149142512       -5.94958958350788       -5.60425432706369
C           14.58110632833310       -6.94448219230308       -6.56212251408742
N           13.43276590822829       -7.33101732757641       -7.11201867831884
C           12.31246687473827       -6.73000771902244       -6.71936094644691
C           12.28645448594329       -5.72560655511344       -5.76825510473789
C           12.34426695474309       -1.86076977421973       -1.96244194505606
C           11.07640971667513       -2.27636930349538       -2.47921519672461
C           10.13378020802636       -1.56927219203824       -1.81181001455796
C           10.83135854291324       -0.72731436255649       -0.88881671968406
N           12.19033752542170       -0.90462519523654       -0.99746666569111
H            9.11479649446202        0.13147652419500        0.00084833591729
H            9.11502674607098        1.84686392784142        1.93781396118302
H           11.04323773397804        3.16441847824229        3.30759328914542
H           15.83697520534808        5.59648482831291        5.26385244817885
H           15.78861924928267        7.36697860677201        7.01239453497070
H           11.69522593022009        7.16482447904774        7.32475654330281
H           11.55593488612049        5.38610532057800        5.58967141540789
H           16.24567210113605        3.32592454966667        3.07193343002493
H           18.13585579996642        1.96732186378240        1.69379135968921
H           18.07819363124917       -1.94157648058539       -1.74047835323518
H           16.14360650776348       -3.30350339896181       -3.05292571514676
H           15.62054863880958       -5.66570370377031       -5.18240877283952
H           15.47579275104227       -7.45592566253278       -6.90537869364818
H           11.39354969534761       -7.06963714320509       -7.18854360062863
H           11.35108754955292       -5.26296406978105       -5.47727127100175
H           10.94475556058451       -3.01658892086031       -3.25204017831716
H            9.06109437206081       -1.60319130051058       -1.91668965366543
Ni          32.19514020107100       -0.03673124867697       -0.04479172055549
C           35.59926761880325       -0.06283210225946       -0.09529915696788
C           34.94119338213189       -1.25263597023601       -0.32441703697964
C           35.61215165115837       -2.49134683147875       -0.57507093700180
C           34.64760236824121       -3.41785547055261       -0.78792102440181
C           33.39333064790786       -2.73977533346120       -0.66880712867399
N           33.57728130670100       -1.41778575272170       -0.37283769279416
C           32.16215603609390       -3.36350739797551       -0.87422961984926
C           32.14653333837374       -4.73293527118445       -1.21888502352385
C           32.13170549063934       -5.90828107555096       -1.51935141863769
C           32.10906386320264       -7.27686376799222       -1.87384396162047
C           30.90461022856769       -7.93284427431877       -2.15362537506310
C           30.93565639665368       -9.27196717053492       -2.49979682581186
N           32.06163228963374       -9.97633200406448       -2.58081259462989
C           33.21067887216048       -9.36004591490699       -2.31563676432745
C           33.28878260905007       -8.02489241593496       -1.96136416527266
C           30.94581130143152       -2.68952677315285       -0.76465740185870
C           29.68259209618690       -3.31678276811439       -0.99064177624483
C           28.73516454242355       -2.37485320174924       -0.76214517267190
N           30.78258063229550       -1.37437086429779       -0.41003522825146
C           29.42659770041585       -1.18011930851077       -0.39642141229105
C           28.77066794431069        0.00128240630894       -0.04005773041128
C           29.45248011716454        1.16524839144108        0.32470298669808
C           28.78872096930058        2.37015302533629        0.70770742132316
C           29.75782551020872        3.28485320985738        0.95569752785143
C           31.00629539097141        2.63230384146301        0.71935638978810
N           30.81263051952359        1.32738989695175        0.34287676845938
C           32.23753162691416        3.27871198942879        0.82812274172245
C           32.25722802979173        4.64146947613072        1.19814817184382
C           32.27924389392633        5.81103649818062        1.51996508339295
C           32.30785899774725        7.17364634381521        1.89640931537925
C           31.13429207009290        7.86092078643787        2.22717722747742
C           31.21810749766597        9.19300438310227        2.59145671223617
N           32.36709476725487        9.86205502127893        2.64341062072421
C           33.48710989942383        9.21590073407033        2.32956719405533
C           33.51219490020063        7.88466549465842        1.95366875171626
C           33.45257019511330        2.63747996916817        0.58332450057383
C           34.72013283598460        3.29523985970997        0.67216618920087
C           35.66305084778868        2.35962885553334        0.40851268903330
C           34.96595843051872        1.13443881376392        0.16278272201391
N           33.60695162298527        1.31815308186805        0.25991198296503
H           36.68294088652972       -0.07009510403936       -0.11427633481256
H           36.68339844502226       -2.61448410312126       -0.58443098397437
H           34.75579349021584       -4.46719722205925       -1.01087044245998
H           29.96480132696594       -7.39669884839007       -2.09983505297016
H           30.01629603958247       -9.80573141472172       -2.72282484085434
H           34.11009454668441       -9.96437579400741       -2.39121398756396
H           34.24625668963145       -7.56237045332679       -1.75423081621230
H           29.55381351020280       -4.34620659787480       -1.28363235372649
H           27.66303552184233       -2.46616584798763       -0.82684846382459
H           27.71886134853481        2.48583217718493        0.77155530696080
H           29.65295919625913        4.31201795150960        1.26572380060037
H           30.17727790290797        7.35413800870398        2.19823968727579
H           30.32370725250503        9.75060761538288        2.85410329843500
H           34.40655226451564        9.79187831885906        2.38214175457611
H           34.44736293857837        7.39688333845229        1.70638211458026
H           34.85141246440752        4.33894947058763        0.90870222857246
H           36.73563960298738        2.46768440778613        0.38242193474487
C           18.43214810059596        0.02188743394177       -0.03580890446266
C           19.65624586987898        0.02150303733948       -0.04339696684472
C           20.99944456813735        0.02261467568794       -0.04998222532666
C           22.22971091447471        0.02587547590692       -0.05227651130939
C           23.56810507733351        0.02618259134227       -0.04874835292518
C           24.79839676266885        0.02590276470109       -0.04729658111384
C           26.14159788796480        0.02088042201886       -0.04547372028693
C           27.36567494364164        0.01522596076480       -0.04238190891308

          :  Hamiltonian                  GFN1-xTB          :
         :: total energy            -225.091506288018 Eh    ::
         :: gradient norm              0.000485426916 Eh/a0 ::
         :: HOMO-LUMO gap              1.189078304761 eV    ::
         :: SCC energy              -229.001391047245 Eh    ::
         :: repulsion energy           4.012173163421 Eh    ::

    * Orbital Energies and Occupations

         #    Occupation            Energy/Eh            Energy/eV
      -------------------------------------------------------------
         1        2.0000           -0.7891990             -21.4752
       ...           ...                  ...                  ...
       197        2.0000           -0.4158388             -11.3156
       198        2.0000           -0.4071452             -11.0790
       199        2.0000           -0.4071435             -11.0789
       200        2.0000           -0.4062955             -11.0559
       201        2.0000           -0.4062935             -11.0558
       202        2.0000           -0.4059320             -11.0460
       203        2.0000           -0.4059296             -11.0459
       204        2.0000           -0.4048663             -11.0170
       205        2.0000           -0.4048633             -11.0169
       206        2.0000           -0.4047170             -11.0129
       207        2.0000           -0.4047135             -11.0128
       208        2.0000           -0.3980942             -10.8327
       209        2.0000           -0.3913770             -10.6499 (HOMO)
       210                         -0.3476792              -9.4608 (LUMO)
       211                         -0.3459200              -9.4130
       212                         -0.3459193              -9.4129
       213                         -0.3385328              -9.2119
       214                         -0.3385153              -9.2115
       215                         -0.3382254              -9.2036
       216                         -0.3188625              -8.6767
       217                         -0.3157163              -8.5911
       218                         -0.3065477              -8.3416
       219                         -0.2942328              -8.0065
       220                         -0.2906077              -7.9078
       ...                                ...                  ...
       438                          1.5991176              43.5142
      -------------------------------------------------------------
                  HL-Gap            0.0436978 Eh            1.1891 eV

Wiberg/Mayer (AO) data.
largest (>0.10) Wiberg bond orders for each atom

     #   Z sym  total        # sym  WBO       # sym  WBO       # sym  WBO
 ---------------------------------------------------------------------------
     1  28 Ni   2.990 --    41 N    0.660     7 N    0.660    20 N    0.658
                            27 N    0.658
     2   6 C    3.933 --    40 C    1.366     3 C    1.366    42 H    0.970
     3   6 C    3.915 --     2 C    1.366     7 N    1.205     4 C    1.177
     4   6 C    3.959 --     5 C    1.643     3 C    1.177    43 H    0.975
     5   6 C    3.962 --     4 C    1.643     6 C    1.184    44 H    0.973
     6   6 C    3.911 --     8 C    1.273     7 N    1.241     5 C    1.184
     7   7 N    3.401 --     6 C    1.241     3 C    1.205     1 Ni   0.660
     8   6 C    3.937 --    17 C    1.279     6 C    1.273     9 C    1.156
     9   6 C    3.958 --    10 C    2.628     8 C    1.156
    10   6 C    3.935 --     9 C    2.628    11 C    1.140
    11   6 C    3.987 --    16 C    1.351    12 C    1.351    10 C    1.140
    12   6 C    3.974 --    13 C    1.457    11 C    1.351    45 H    0.974
                            15 C    0.104
    13   6 C    3.973 --    12 C    1.457    14 N    1.407    46 H    0.972
                            16 C    0.104
    14   7 N    2.995 --    15 C    1.407    13 C    1.407
    15   6 C    3.973 --    16 C    1.456    14 N    1.407    47 H    0.972
                            12 C    0.104
    16   6 C    3.974 --    15 C    1.456    11 C    1.351    48 H    0.974
                            13 C    0.104
    17   6 C    3.904 --     8 C    1.279    20 N    1.223    18 C    1.192
    18   6 C    3.958 --    19 C    1.630    17 C    1.192    49 H    0.973
    19   6 C    3.960 --    18 C    1.630    21 C    1.194    50 H    0.973
    20   7 N    3.404 --    21 C    1.231    17 C    1.223     1 Ni   0.658
    21   6 C    3.894 --    22 C    1.264    20 N    1.231    19 C    1.194
    22   6 C    3.941 --    23 C    1.264    21 C    1.264   117 C    1.185
    23   6 C    3.894 --    22 C    1.264    27 N    1.231    24 C    1.194
    24   6 C    3.960 --    25 C    1.630    23 C    1.194    51 H    0.973
    25   6 C    3.958 --    24 C    1.630    26 C    1.192    52 H    0.973
    26   6 C    3.904 --    28 C    1.279    27 N    1.223    25 C    1.192
    27   7 N    3.404 --    23 C    1.231    26 C    1.223     1 Ni   0.658
    28   6 C    3.937 --    26 C    1.279    37 C    1.273    29 C    1.156
    29   6 C    3.958 --    30 C    2.628    28 C    1.156
    30   6 C    3.935 --    29 C    2.628    31 C    1.140
    31   6 C    3.987 --    32 C    1.351    36 C    1.351    30 C    1.140
    32   6 C    3.974 --    33 C    1.456    31 C    1.351    53 H    0.974
                            35 C    0.104
    33   6 C    3.973 --    32 C    1.456    34 N    1.407    54 H    0.972
                            36 C    0.104
    34   7 N    2.995 --    33 C    1.407    35 C    1.407
    35   6 C    3.973 --    36 C    1.457    34 N    1.407    55 H    0.972
                            32 C    0.104
    36   6 C    3.974 --    35 C    1.457    31 C    1.351    56 H    0.974
                            33 C    0.104
    37   6 C    3.911 --    28 C    1.273    41 N    1.241    38 C    1.184
    38   6 C    3.962 --    39 C    1.643    37 C    1.184    57 H    0.973
    39   6 C    3.959 --    38 C    1.643    40 C    1.177    58 H    0.975
    40   6 C    3.915 --     2 C    1.366    41 N    1.205    39 C    1.177
    41   7 N    3.401 --    37 C    1.241    40 C    1.205     1 Ni   0.660
    42   1 H    1.000 --     2 C    0.970
    43   1 H    0.997 --     4 C    0.975
    44   1 H    1.002 --     5 C    0.973
    45   1 H    1.002 --    12 C    0.974
    46   1 H    1.013 --    13 C    0.972
    47   1 H    1.013 --    15 C    0.972
    48   1 H    1.002 --    16 C    0.974
    49   1 H    1.003 --    18 C    0.973
    50   1 H    1.002 --    19 C    0.973
    51   1 H    1.001 --    24 C    0.973
    52   1 H    1.002 --    25 C    0.973
    53   1 H    1.002 --    32 C    0.974
    54   1 H    1.013 --    33 C    0.972
    55   1 H    1.013 --    35 C    0.972
    56   1 H    1.002 --    36 C    0.974
    57   1 H    1.003 --    38 C    0.973
    58   1 H    0.997 --    39 C    0.975
    59  28 Ni   2.990 --    99 N    0.660    65 N    0.660    78 N    0.658
                            85 N    0.658
    60   6 C    3.933 --    98 C    1.366    61 C    1.366   100 H    0.970
    61   6 C    3.915 --    60 C    1.366    65 N    1.205    62 C    1.177
    62   6 C    3.959 --    63 C    1.643    61 C    1.177   101 H    0.975
    63   6 C    3.962 --    62 C    1.643    64 C    1.184   102 H    0.973
    64   6 C    3.911 --    66 C    1.273    65 N    1.241    63 C    1.184
    65   7 N    3.401 --    64 C    1.241    61 C    1.205    59 Ni   0.660
    66   6 C    3.937 --    75 C    1.279    64 C    1.273    67 C    1.156
    67   6 C    3.958 --    68 C    2.628    66 C    1.156
    68   6 C    3.935 --    67 C    2.628    69 C    1.140
    69   6 C    3.987 --    74 C    1.351    70 C    1.351    68 C    1.140
    70   6 C    3.974 --    71 C    1.457    69 C    1.351   103 H    0.974
                            73 C    0.104
    71   6 C    3.973 --    70 C    1.457    72 N    1.407   104 H    0.972
                            74 C    0.104
    72   7 N    2.995 --    73 C    1.407    71 C    1.407
    73   6 C    3.973 --    74 C    1.456    72 N    1.407   105 H    0.972
                            70 C    0.104
    74   6 C    3.974 --    73 C    1.456    69 C    1.351   106 H    0.974
                            71 C    0.104
    75   6 C    3.904 --    66 C    1.279    78 N    1.223    76 C    1.192
    76   6 C    3.958 --    77 C    1.630    75 C    1.192   107 H    0.973
    77   6 C    3.960 --    76 C    1.630    79 C    1.194   108 H    0.973
    78   7 N    3.404 --    79 C    1.231    75 C    1.223    59 Ni   0.658
    79   6 C    3.894 --    80 C    1.264    78 N    1.231    77 C    1.194
    80   6 C    3.941 --    81 C    1.264    79 C    1.264   124 C    1.185
    81   6 C    3.894 --    80 C    1.264    85 N    1.231    82 C    1.194
    82   6 C    3.960 --    83 C    1.630    81 C    1.194   109 H    0.973
    83   6 C    3.958 --    82 C    1.630    84 C    1.192   110 H    0.973
    84   6 C    3.904 --    86 C    1.279    85 N    1.223    83 C    1.192
    85   7 N    3.404 --    81 C    1.231    84 C    1.223    59 Ni   0.658
    86   6 C    3.937 --    84 C    1.279    95 C    1.273    87 C    1.156
    87   6 C    3.958 --    88 C    2.628    86 C    1.156
    88   6 C    3.935 --    87 C    2.628    89 C    1.140
    89   6 C    3.987 --    90 C    1.351    94 C    1.351    88 C    1.140
    90   6 C    3.974 --    91 C    1.456    89 C    1.351   111 H    0.974
                            93 C    0.104
    91   6 C    3.973 --    90 C    1.456    92 N    1.407   112 H    0.972
                            94 C    0.104
    92   7 N    2.995 --    91 C    1.407    93 C    1.407
    93   6 C    3.973 --    94 C    1.457    92 N    1.407   113 H    0.972
                            90 C    0.104
    94   6 C    3.974 --    93 C    1.457    89 C    1.351   114 H    0.974
                            91 C    0.104
    95   6 C    3.911 --    86 C    1.273    99 N    1.241    96 C    1.184
    96   6 C    3.962 --    97 C    1.643    95 C    1.184   115 H    0.973
    97   6 C    3.959 --    96 C    1.643    98 C    1.177   116 H    0.975
    98   6 C    3.915 --    60 C    1.366    99 N    1.205    97 C    1.177
    99   7 N    3.401 --    95 C    1.241    98 C    1.205    59 Ni   0.660
   100   1 H    1.000 --    60 C    0.970
   101   1 H    0.997 --    62 C    0.975
   102   1 H    1.002 --    63 C    0.973
   103   1 H    1.002 --    70 C    0.974
   104   1 H    1.013 --    71 C    0.972
   105   1 H    1.013 --    73 C    0.972
   106   1 H    1.002 --    74 C    0.974
   107   1 H    1.003 --    76 C    0.973
   108   1 H    1.002 --    77 C    0.973
   109   1 H    1.001 --    82 C    0.973
   110   1 H    1.002 --    83 C    0.973
   111   1 H    1.002 --    90 C    0.974
   112   1 H    1.013 --    91 C    0.972
   113   1 H    1.013 --    93 C    0.972
   114   1 H    1.002 --    94 C    0.974
   115   1 H    1.003 --    96 C    0.973
   116   1 H    0.997 --    97 C    0.975
   117   6 C    3.878 --   118 C    2.446    22 C    1.185   120 C    0.187
   118   6 C    3.938 --   117 C    2.446   119 C    1.340
   119   6 C    3.894 --   120 C    2.341   118 C    1.340   122 C    0.183
   120   6 C    3.928 --   119 C    2.341   121 C    1.366   117 C    0.187
   121   6 C    3.928 --   122 C    2.341   120 C    1.366   124 C    0.187
   122   6 C    3.894 --   121 C    2.341   123 C    1.340   119 C    0.183
   123   6 C    3.938 --   124 C    2.446   122 C    1.340
   124   6 C    3.878 --   123 C    2.446    80 C    1.185   121 C    0.187
 ---------------------------------------------------------------------------

           -------------------------------------------------
          | TOTAL ENERGY             -225.091506288018 Eh   |
          | GRADIENT NORM               0.000485426916 Eh/α |
          | HOMO-LUMO GAP               1.189078304761 eV   |
           -------------------------------------------------

 * finished run on 2022/07/30 at 05:08:42.716
