   * xtb version 6.5.1 (b24c23e) compiled by 'conda@728c89f4b128' on 2022-07-12
          program call               : xtb Co_Ph_C6_3.xyz --gfn 1 --opt -T 48

   ID    Z sym.   atoms
    1   27 Co     1, 57, 125
    2    6 C      2-6, 8-11, 13-29, 32-37, 58-62, 64-67, 69-85, 88-93,
                  113-124, 126-130, 132-135, 137-153, 156-161
    3    7 N      7, 12, 30, 31, 63, 68, 86, 87, 131, 136, 154, 155
    4    1 H      38-56, 94-112, 162-179

          :  Hamiltonian                  GFN1-xTB          :
 * total energy  :  -306.3642839 Eh     change        0.1460762E-08 Eh
 * total energy  :  -306.4685480 Eh     change       -0.1042641E+00 Eh
 * total energy  :  -306.5331054 Eh     change       -0.6455738E-01 Eh
 * total energy  :  -306.5510562 Eh     change       -0.1795083E-01 Eh
 * total energy  :  -306.5629391 Eh     change       -0.1188290E-01 Eh
 * total energy  :  -306.5722987 Eh     change       -0.9359554E-02 Eh
 * total energy  :  -306.5807307 Eh     change       -0.8432004E-02 Eh
 * total energy  :  -306.5925405 Eh     change       -0.1180982E-01 Eh
 * total energy  :  -306.6082378 Eh     change       -0.1569726E-01 Eh
 * total energy  :  -306.6303824 Eh     change       -0.2214458E-01 Eh
 * total energy  :  -307.0032420 Eh     change       -0.1152787E-04 Eh
 * total energy  :  -307.0032495 Eh     change       -0.7561030E-05 Eh
 * total energy  :  -307.0032556 Eh     change       -0.6038726E-05 Eh
 * total energy  :  -307.0032633 Eh     change       -0.7680782E-05 Eh
 * total energy  :  -307.0032714 Eh     change       -0.8147437E-05 Eh
 * total energy  :  -307.0032790 Eh     change       -0.7620417E-05 Eh
 * total energy  :  -307.0032860 Eh     change       -0.6974667E-05 Eh
 * total energy  :  -307.0032915 Eh     change       -0.5485988E-05 Eh
 * total energy  :  -307.0032961 Eh     change       -0.4599585E-05 Eh
   *** GEOMETRY OPTIMIZATION CONVERGED AFTER 110 ITERATIONS ***

 final structure:
================
179
 xtb: 6.5.1 (b24c23e)
Co          26.35667837361476       -0.01656634162389        0.04799516526131
C           22.98639152325826       -0.04527812571518        0.18650604118732
C           23.63597573578129       -1.20662559502489       -0.17397507935461
C           22.96504810007635       -2.42742787768372       -0.50262648028337
C           23.92326510236461       -3.37519678040276       -0.62854338404874
C           25.17913132125941       -2.73274070202661       -0.37115500126229
N           24.99502640272477       -1.39270203710198       -0.14326022383428
C           26.37346908650884       -3.41489711826892       -0.18250939731567
C           27.55425720136630       -2.75859656650519        0.12707393883214
C           28.80346372369848       -3.41946603920102        0.35865448357726
C           29.74882807578741       -2.45285176646301        0.44010368056396
N           27.73203936405576       -1.39343836348132        0.10160943819394
C           29.07799724106687       -1.20672100968960        0.24273761790765
C           29.75006782316913        0.00322173272206        0.04642383848324
C           29.06345062928492        1.19973209174524       -0.18144978008964
C           29.71169164977781        2.43867354198920       -0.47367575969614
C           28.74828396190896        3.39143521443044       -0.46858607705845
C           27.51701544686774        2.73178424701984       -0.15264135748992
C           26.33220266705841        3.39077553948243        0.13650748155863
C           26.31709180267269        4.87151611004967        0.16558072747219
C           25.47207002657343        5.58739701846428       -0.68365753437327
C           25.46023248768302        6.97372958771556       -0.65452750348691
C           26.28491632781232        7.66087246973936        0.22592074779625
C           27.12519310354195        6.95566962129213        1.07678683586552
C           27.14479424660901        5.56953523462592        1.04627016953601
C           25.15998186976904        2.69965109834452        0.41706218296023
C           23.92829078640201        3.32410266149261        0.80178663829655
C           22.98644119973923        2.35156322795393        0.82421573365565
C           23.64483005802640        1.13475414879162        0.45769244009408
N           24.98798249626177        1.34774699571169        0.27053192307816
N           27.71568499494039        1.37317185145377       -0.04623826971629
C           26.37920153535058       -4.89445714649995       -0.29497368426489
C           26.16137137309363       -5.50666354763319       -1.52903770659844
C           26.17063773481594       -6.88956505535665       -1.63480695274792
C           26.39110842473839       -7.67416690097479       -0.51100158901032
C           26.60403955338064       -7.07081466414540        0.72094326627644
C           26.60074696577293       -5.68814854988329        0.83028228620398
H           21.90450941186374       -0.05763983227654        0.24741777556638
H           21.89620340662785       -2.52850331884417       -0.60469713264816
H           23.80342345198068       -4.42349655272373       -0.84920577354604
H           28.93175665323754       -4.48722629334937        0.42960320670640
H           30.81058332681104       -2.55849504054503        0.59449536086590
H           30.76885363731751        2.54853182653839       -0.65445170783371
H           28.85109125903212        4.44784148695763       -0.65592831076957
H           24.83571842951441        5.05244386991800       -1.37984520762432
H           24.80420677865858        7.52025757007467       -1.32297744542403
H           26.27242313937328        8.74465676233220        0.24932358636938
H           27.76829867895563        7.48751926344981        1.76920290955431
H           27.79179636771893        5.01970301393953        1.72069734248687
H           23.81353551712365        4.37283434854827        1.02323689486872
H           21.93592001755760        2.43250435813767        1.05419141107978
H           25.99866170887322       -4.89391047131917       -2.40866663872382
H           26.00583341567905       -7.35638083932809       -2.59956952962090
H           26.39652644094907       -8.75499670376337       -0.59511896508125
H           26.77285452710520       -7.67963260797757        1.60225414250367
H           26.75592745084825       -5.21767651040895        1.79477377204357
Co          58.26128264142509        0.05075381076829        0.06154660510531
C           61.63127294939920        0.06539639075968        0.21266328799855
C           60.98568423079087        1.24334887139590       -0.09754855717891
C           61.66081002269063        2.47573191742739       -0.36933648233909
C           60.70510116591382        3.43000572078894       -0.46010071328460
C           59.44658405163143        2.77977721895555       -0.23742901005522
N           59.62688001783501        1.43087234939195       -0.06571838901204
C           58.25265089299569        3.45616407455235       -0.02675482582775
C           57.06950496666816        2.79034385134530        0.25209069319912
C           55.82135423268559        3.44402115296605        0.50838810079743
C           54.87411284116379        2.47679757537035        0.55128751758243
N           56.88903213738442        1.42766020622855        0.17173065043708
C           55.54258561667649        1.23819595925291        0.30465758149433
C           54.86774641859645        0.03883917738063        0.05920550527422
C           55.55130762598630       -1.14841147167186       -0.22049233430567
C           54.89972954755349       -2.37164330163978       -0.56658488372061
C           55.86106810605170       -3.32566716842903       -0.60657057643165
C           57.09431497026454       -2.68353527030201       -0.26347576499004
C           58.27800325951261       -3.35744179914241       -0.00634168149967
C           58.29177066435933       -4.83800936084820       -0.04664836444457
C           59.13524354802947       -5.51332114221240       -0.92999836120932
C           59.14850264849434       -6.89949279383398       -0.96454378798972
C           58.32666788431221       -7.62712041150941       -0.11446250900155
C           57.48746650927764       -6.96253003049873        0.76949924029768
C           57.46647154298984       -5.57643912489556        0.80270283667021
C           59.45136523593039       -2.68249155249734        0.30699570627680
C           60.68086127104752       -3.32714657969464        0.66445607499622
C           61.62445306011819       -2.35871311060449        0.73595255362153
C           60.96942533698964       -1.12453555371558        0.42583549412876
N           59.62639697692433       -1.32558263625336        0.22490728095880
N           56.89880911967172       -1.33064472943574       -0.09524590685872
C           58.25025313650489        4.93899402843678       -0.08044669885762
C           58.47725955773737        5.59862259633232       -1.28817907252882
C           58.47108289932603        6.98459412121994       -1.33988546997514
C           58.24448320214490        7.72509831165262       -0.18773249699521
C           58.02251737581496        7.07444804524165        1.01827712317002
C           58.02285185893992        5.68855665474227        1.07354624608331
H           62.71291968420065        0.07247907579101        0.27838924797381
H           62.73040917488414        2.57879077469642       -0.46098709306403
H           60.82823491681262        4.48655477717390       -0.63479222314248
H           55.69494076997746        4.50837199145248        0.62136905535682
H           53.81247753109543        2.57835704875341        0.70916468547182
H           53.84199799551872       -2.47094240883553       -0.75015227691291
H           55.75565365938676       -4.37237601017979       -0.84101920994436
H           59.76961534685563       -4.94624104831852       -1.60215676993663
H           59.80350419765723       -7.41409626881555       -1.65884006092187
H           58.34060286457195       -8.71082531074310       -0.14041650416119
H           56.84666146475484       -7.52631465063055        1.43837027940628
H           56.82065648783919       -5.05886775775216        1.50328334195557
H           60.79295026819559       -4.38547776877591        0.83594069827594
H           62.67418377548125       -2.45265564590946        0.96456950805593
H           58.64469276898903        5.02038872113144       -2.19001217472328
H           58.64309788648423        7.48841055737748       -2.28457073697259
H           58.24140910075869        8.80839428553866       -0.22957507464584
H           57.84896123056321        7.64869031134773        1.92160124239572
H           57.86085729105771        5.18114780189323        2.01798631132917
C           34.94871397780393        0.04130064067634        0.06072906265419
C           33.71893154328085        0.03415344579242        0.06060948214884
C           32.37651639626036        0.02537420600628        0.05812036512676
C           31.15157449897064        0.01398482387486        0.05414370442136
C           36.29086624025351        0.04325824656886        0.06179626812394
C           37.51622903909757        0.04389002732549        0.06275216206840
C           50.89886179448236        0.01735673475581        0.07682443711566
C           49.66907189803401        0.01030447562534        0.07709548680546
C           48.32693227146439        0.00810612942715        0.07765382993822
C           47.10157946625751        0.00671557379746        0.07532504558045
C           52.24128362514949        0.02254997581141        0.07434382053241
C           53.46623263362171        0.03085793846077        0.06785025821659
Co          42.30895986191893        0.02609856951921        0.02755401495260
C           38.91625930658395        0.03991375288730        0.06327146147758
C           39.59542489607159       -1.14919971162426        0.35146434641079
C           38.94391876639067       -2.37356455108211        0.69187746189133
C           39.89644704932885       -3.33837564754300        0.67207232218372
C           41.12380687676335       -2.69814340560808        0.30806171909245
N           40.93794711332271       -1.34043134088332        0.18845337515776
C           42.29404070096287       -3.37093861249708       -0.01707647873679
C           43.47224412028223       -2.69541260493971       -0.30686343975754
C           44.69433655399276       -3.32758417619087       -0.70061184384610
C           45.65591639981666       -2.37155052532367       -0.67007320135485
N           43.67197576083676       -1.34903686062367       -0.11049281331150
C           45.01480338944116       -1.16005871625906       -0.27039636693408
C           45.70157164582950        0.01031769411994        0.07252868371906
C           45.02143765786060        1.18642642801303        0.40776402862345
C           45.67210603383422        2.39547445468022        0.80059648887691
C           44.71971604073487        3.36042491635360        0.81828419663701
C           43.49330091186323        2.73618268723610        0.42441762232426
C           42.32379514491156        3.42213121389054        0.12473132763116
C           42.33317473486934        4.90201772870570        0.14603698745327
C           41.46484536001891        5.60349756392875        0.98404977844335
C           41.47795301616227        6.98984184045705        1.00395042373876
C           42.35098643390671        7.69185727681105        0.18388014456794
C           43.21529059584515        7.00133697126964       -0.65497482117287
C           43.21065888786793        5.61494411015885       -0.67267513084922
C           41.14634606995318        2.75924161676924       -0.19606502486774
C           39.92525456036059        3.40715253295642       -0.56669857672283
C           38.96382541224797        2.45059030884642       -0.57919796067666
C           39.60401442344507        1.22345277528069       -0.22860996752734
N           40.94636139517097        1.40579543673954       -0.05696947158031
N           43.67937161998077        1.38458825774098        0.24908054755438
C           42.28503808375700       -4.85053000446609       -0.05825869328304
C           41.41487106352415       -5.52819733674737       -0.91377296904143
C           41.41198317036446       -6.91409285973140       -0.95585994376924
C           42.27009710726551       -7.63924641986038       -0.14022178276315
C           43.13529978448420       -6.97242049889965        0.71668862008050
C           43.14723739055172       -5.58647801792310        0.75611137729460
H           37.89139385923882       -2.46852721696051        0.90512394582983
H           39.78739619274358       -4.39049001436167        0.87903039675127
H           44.79429402904986       -4.36851632871181       -0.96176536455189
H           46.70778384421317       -2.46532428617574       -0.88716725165643
H           46.72405139978758        2.48123091640288        1.02046859244011
H           44.82855293632228        4.40290266146585        1.06938610765251
H           40.79186179635198        5.05646169928536        1.63487067756576
H           40.80384774532891        7.52451724036417        1.66383185156949
H           42.35787723002134        8.77580921388935        0.19850433724047
H           43.89638678128017        7.54509243521558       -1.30011401297885
H           43.87695583237726        5.07725487232806       -1.33800335625586
H           39.82562216634362        4.45804544843335       -0.78448748093531
H           37.91259585606552        2.55321903643485       -0.79537715888402
H           40.75308465701483       -4.96286682961255       -1.56044958089558
H           40.73701657235597       -7.43025567627516       -1.62952773025254
H           42.26457177681601       -8.72282964647390       -0.17238536968202
H           43.80452475238010       -7.53439850704454        1.35866427356357
H           43.81462287188501       -5.06715509130581        1.43481935546302

          :  Hamiltonian                  GFN1-xTB          :
         :: total energy            -307.003296082196 Eh    ::
         :: gradient norm              0.000394782911 Eh/a0 ::
         :: HOMO-LUMO gap              0.006659005878 eV    ::
         :: SCC energy              -312.234460159560 Eh    ::
         :: repulsion energy           5.391744772178 Eh    ::

    * Orbital Energies and Occupations

         #    Occupation            Energy/Eh            Energy/eV
      -------------------------------------------------------------
         1        2.0000           -0.7739195             -21.0594
       ...           ...                  ...                  ...
       276        2.0000           -0.3944705             -10.7341
       277        2.0000           -0.3943615             -10.7311
       278        2.0000           -0.3941940             -10.7266
       279        1.9999           -0.3914679             -10.6524
       280        1.9998           -0.3912809             -10.6473
       281        1.9998           -0.3910059             -10.6398
       282        1.9998           -0.3909970             -10.6396
       283        1.9998           -0.3909599             -10.6386
       284        1.9998           -0.3909503             -10.6383
       285        1.9994           -0.3900545             -10.6139
       286        1.7111           -0.3839287             -10.4472
       287        1.1364           -0.3824042             -10.4057
       288        1.1357           -0.3824026             -10.4057 (HOMO)
       289        1.0185           -0.3821579             -10.3990 (LUMO)
       290                         -0.3446392              -9.3781
       291                         -0.3342080              -9.0943
       292                         -0.3302116              -8.9855
       293                         -0.3272825              -8.9058
       294                         -0.3272179              -8.9041
       295                         -0.3272077              -8.9038
       296                         -0.3078926              -8.3782
       297                         -0.2965768              -8.0703
       298                         -0.2939116              -7.9977
       299                         -0.2926375              -7.9631
       ...                                ...                  ...
       619                          1.5729199              42.8013
      -------------------------------------------------------------
                  HL-Gap            0.0002447 Eh            0.0067 eV

Wiberg/Mayer (AO) data.
largest (>0.10) Wiberg bond orders for each atom

     #   Z sym  total        # sym  WBO       # sym  WBO       # sym  WBO
 ---------------------------------------------------------------------------
     1  27 Co   3.027 --     7 N    0.637    30 N    0.636    12 N    0.631
                            31 N    0.631
     2   6 C    3.926 --    29 C    1.366     3 C    1.364    38 H    0.970
     3   6 C    3.925 --     2 C    1.364     7 N    1.202     4 C    1.174
     4   6 C    3.960 --     5 C    1.650     3 C    1.174    39 H    0.975
     5   6 C    3.963 --     4 C    1.650     6 C    1.176    40 H    0.973
     6   6 C    3.919 --     8 C    1.321     7 N    1.212     5 C    1.176
     7   7 N    3.345 --     6 C    1.212     3 C    1.202     1 Co   0.637
     8   6 C    3.931 --     9 C    1.336     6 C    1.321    32 C    1.019
     9   6 C    3.917 --     8 C    1.336    12 N    1.192    10 C    1.181
    10   6 C    3.958 --    11 C    1.639     9 C    1.181    41 H    0.973
    11   6 C    3.962 --    10 C    1.639    13 C    1.189    42 H    0.974
    12   7 N    3.346 --    13 C    1.233     9 C    1.192     1 Co   0.631
    13   6 C    3.903 --    14 C    1.257    12 N    1.233    11 C    1.189
    14   6 C    3.931 --    13 C    1.257    15 C    1.254   116 C    1.198
    15   6 C    3.903 --    14 C    1.254    31 N    1.235    16 C    1.191
    16   6 C    3.961 --    17 C    1.636    15 C    1.191    43 H    0.974
    17   6 C    3.958 --    16 C    1.636    18 C    1.181    44 H    0.973
    18   6 C    3.918 --    19 C    1.335    31 N    1.190    17 C    1.181
    19   6 C    3.931 --    18 C    1.335    26 C    1.314    20 C    1.030
    20   6 C    3.988 --    21 C    1.394    25 C    1.394    19 C    1.030
                            23 C    0.107
    21   6 C    3.987 --    22 C    1.448    20 C    1.394    45 H    0.973
                            24 C    0.109
    22   6 C    3.995 --    21 C    1.448    23 C    1.437    46 H    0.973
                            25 C    0.109
    23   6 C    3.989 --    24 C    1.437    22 C    1.437    47 H    0.974
                            20 C    0.107
    24   6 C    3.995 --    25 C    1.448    23 C    1.437    48 H    0.973
                            21 C    0.109
    25   6 C    3.988 --    24 C    1.448    20 C    1.394    49 H    0.973
                            22 C    0.109
    26   6 C    3.920 --    19 C    1.314    30 N    1.216    27 C    1.178
    27   6 C    3.963 --    28 C    1.647    26 C    1.178    50 H    0.973
    28   6 C    3.959 --    27 C    1.647    29 C    1.175    51 H    0.975
    29   6 C    3.925 --     2 C    1.366    30 N    1.199    28 C    1.175
    30   7 N    3.345 --    26 C    1.216    29 C    1.199     1 Co   0.636
    31   7 N    3.345 --    15 C    1.235    18 C    1.190     1 Co   0.631
    32   6 C    3.988 --    33 C    1.398    37 C    1.398     8 C    1.019
                            35 C    0.109
    33   6 C    3.988 --    34 C    1.446    32 C    1.398    52 H    0.973
                            36 C    0.110
    34   6 C    3.995 --    33 C    1.446    35 C    1.438    53 H    0.973
                            37 C    0.110
    35   6 C    3.991 --    36 C    1.438    34 C    1.438    54 H    0.974
                            32 C    0.109
    36   6 C    3.995 --    37 C    1.446    35 C    1.438    55 H    0.973
                            33 C    0.110
    37   6 C    3.989 --    36 C    1.446    32 C    1.398    56 H    0.973
                            34 C    0.110
    38   1 H    1.000 --     2 C    0.970
    39   1 H    0.998 --     4 C    0.975
    40   1 H    1.004 --     5 C    0.973
    41   1 H    1.004 --    10 C    0.973
    42   1 H    1.001 --    11 C    0.974
    43   1 H    1.001 --    16 C    0.974
    44   1 H    1.004 --    17 C    0.973
    45   1 H    1.005 --    21 C    0.973
    46   1 H    1.003 --    22 C    0.973
    47   1 H    1.003 --    23 C    0.974
    48   1 H    1.003 --    24 C    0.973
    49   1 H    1.005 --    25 C    0.973
    50   1 H    1.004 --    27 C    0.973
    51   1 H    0.998 --    28 C    0.975
    52   1 H    1.004 --    33 C    0.973
    53   1 H    1.003 --    34 C    0.973
    54   1 H    1.003 --    35 C    0.974
    55   1 H    1.003 --    36 C    0.973
    56   1 H    1.004 --    37 C    0.973
    57  27 Co   3.026 --    63 N    0.637    86 N    0.636    68 N    0.631
                            87 N    0.631
    58   6 C    3.926 --    85 C    1.366    59 C    1.364    94 H    0.970
    59   6 C    3.925 --    58 C    1.364    63 N    1.203    60 C    1.174
    60   6 C    3.960 --    61 C    1.650    59 C    1.174    95 H    0.975
    61   6 C    3.963 --    60 C    1.650    62 C    1.176    96 H    0.973
    62   6 C    3.919 --    64 C    1.321    63 N    1.212    61 C    1.176
    63   7 N    3.345 --    62 C    1.212    59 C    1.203    57 Co   0.637
    64   6 C    3.931 --    65 C    1.336    62 C    1.321    88 C    1.020
    65   6 C    3.917 --    64 C    1.336    68 N    1.192    66 C    1.181
    66   6 C    3.958 --    67 C    1.639    65 C    1.181    97 H    0.973
    67   6 C    3.962 --    66 C    1.639    69 C    1.188    98 H    0.974
    68   7 N    3.346 --    69 C    1.233    65 C    1.192    57 Co   0.631
    69   6 C    3.903 --    70 C    1.257    68 N    1.233    67 C    1.188
    70   6 C    3.931 --    69 C    1.257    71 C    1.254   124 C    1.198
    71   6 C    3.903 --    70 C    1.254    87 N    1.235    72 C    1.191
    72   6 C    3.961 --    73 C    1.637    71 C    1.191    99 H    0.974
    73   6 C    3.958 --    72 C    1.637    74 C    1.181   100 H    0.973
    74   6 C    3.918 --    75 C    1.335    87 N    1.190    73 C    1.181
    75   6 C    3.931 --    74 C    1.335    82 C    1.314    76 C    1.029
    76   6 C    3.988 --    77 C    1.394    81 C    1.394    75 C    1.029
                            79 C    0.107
    77   6 C    3.987 --    78 C    1.448    76 C    1.394   101 H    0.973
                            80 C    0.109
    78   6 C    3.995 --    77 C    1.448    79 C    1.437   102 H    0.973
                            81 C    0.109
    79   6 C    3.990 --    80 C    1.437    78 C    1.437   103 H    0.974
                            76 C    0.107
    80   6 C    3.995 --    81 C    1.448    79 C    1.437   104 H    0.973
                            77 C    0.109
    81   6 C    3.988 --    80 C    1.448    76 C    1.394   105 H    0.973
                            78 C    0.109
    82   6 C    3.920 --    75 C    1.314    86 N    1.216    83 C    1.178
    83   6 C    3.963 --    84 C    1.647    82 C    1.178   106 H    0.973
    84   6 C    3.959 --    83 C    1.647    85 C    1.175   107 H    0.975
    85   6 C    3.925 --    58 C    1.366    86 N    1.199    84 C    1.175
    86   7 N    3.345 --    82 C    1.216    85 C    1.199    57 Co   0.636
    87   7 N    3.345 --    71 C    1.235    74 C    1.190    57 Co   0.631
    88   6 C    3.988 --    89 C    1.398    93 C    1.398    64 C    1.020
                            91 C    0.109
    89   6 C    3.988 --    90 C    1.446    88 C    1.398   108 H    0.973
                            92 C    0.110
    90   6 C    3.995 --    89 C    1.446    91 C    1.438   109 H    0.973
                            93 C    0.110
    91   6 C    3.991 --    92 C    1.438    90 C    1.438   110 H    0.974
                            88 C    0.109
    92   6 C    3.995 --    93 C    1.446    91 C    1.438   111 H    0.973
                            89 C    0.110
    93   6 C    3.989 --    92 C    1.446    88 C    1.398   112 H    0.973
                            90 C    0.110
    94   1 H    1.000 --    58 C    0.970
    95   1 H    0.998 --    60 C    0.975
    96   1 H    1.004 --    61 C    0.973
    97   1 H    1.004 --    66 C    0.973
    98   1 H    1.001 --    67 C    0.974
    99   1 H    1.001 --    72 C    0.974
   100   1 H    1.004 --    73 C    0.973
   101   1 H    1.005 --    77 C    0.973
   102   1 H    1.003 --    78 C    0.973
   103   1 H    1.003 --    79 C    0.974
   104   1 H    1.003 --    80 C    0.973
   105   1 H    1.005 --    81 C    0.973
   106   1 H    1.004 --    83 C    0.973
   107   1 H    0.998 --    84 C    0.975
   108   1 H    1.004 --    89 C    0.973
   109   1 H    1.003 --    90 C    0.973
   110   1 H    1.003 --    91 C    0.974
   111   1 H    1.003 --    92 C    0.973
   112   1 H    1.004 --    93 C    0.973
   113   6 C    3.920 --   114 C    2.349   117 C    1.348   116 C    0.188
   114   6 C    3.917 --   113 C    2.349   115 C    1.346   118 C    0.187
   115   6 C    3.929 --   116 C    2.434   114 C    1.346
   116   6 C    3.881 --   115 C    2.434    14 C    1.198   113 C    0.188
   117   6 C    3.924 --   118 C    2.429   113 C    1.348
   118   6 C    3.884 --   117 C    2.429   126 C    1.204   114 C    0.187
   119   6 C    3.917 --   120 C    2.349   123 C    1.346   122 C    0.187
   120   6 C    3.920 --   119 C    2.349   121 C    1.348   124 C    0.188
   121   6 C    3.924 --   122 C    2.429   120 C    1.348
   122   6 C    3.884 --   121 C    2.429   138 C    1.204   119 C    0.187
   123   6 C    3.929 --   124 C    2.434   119 C    1.346
   124   6 C    3.881 --   123 C    2.434    70 C    1.198   120 C    0.188
   125  27 Co   3.037 --   155 N    0.629   131 N    0.629   154 N    0.625
                           136 N    0.625
   126   6 C    3.917 --   127 C    1.251   153 C    1.249   118 C    1.204
   127   6 C    3.904 --   126 C    1.251   131 N    1.234   128 C    1.193
   128   6 C    3.960 --   129 C    1.632   127 C    1.193   162 H    0.974
   129   6 C    3.960 --   128 C    1.632   130 C    1.185   163 H    0.973
   130   6 C    3.915 --   132 C    1.323   131 N    1.196   129 C    1.185
   131   7 N    3.337 --   127 C    1.234   130 C    1.196   125 Co   0.629
   132   6 C    3.924 --   130 C    1.323   133 C    1.321   156 C    1.032
   133   6 C    3.915 --   132 C    1.321   136 N    1.196   134 C    1.186
   134   6 C    3.959 --   135 C    1.630   133 C    1.186   164 H    0.973
   135   6 C    3.959 --   134 C    1.630   137 C    1.194   165 H    0.974
   136   7 N    3.337 --   137 C    1.235   133 C    1.196   125 Co   0.625
   137   6 C    3.904 --   138 C    1.249   136 N    1.235   135 C    1.194
   138   6 C    3.917 --   139 C    1.251   137 C    1.249   122 C    1.204
   139   6 C    3.904 --   138 C    1.251   155 N    1.234   140 C    1.193
   140   6 C    3.959 --   141 C    1.632   139 C    1.193   166 H    0.974
   141   6 C    3.960 --   140 C    1.632   142 C    1.185   167 H    0.973
   142   6 C    3.915 --   143 C    1.323   155 N    1.196   141 C    1.185
   143   6 C    3.924 --   142 C    1.323   150 C    1.321   144 C    1.032
   144   6 C    3.988 --   145 C    1.392   149 C    1.392   143 C    1.032
                           147 C    0.107
   145   6 C    3.985 --   146 C    1.448   144 C    1.392   168 H    0.973
                           148 C    0.109
   146   6 C    3.995 --   145 C    1.448   147 C    1.437   169 H    0.973
                           149 C    0.109
   147   6 C    3.989 --   146 C    1.437   148 C    1.437   170 H    0.974
                           144 C    0.107
   148   6 C    3.995 --   149 C    1.448   147 C    1.437   171 H    0.973
                           145 C    0.109
   149   6 C    3.985 --   148 C    1.448   144 C    1.392   172 H    0.973
                           146 C    0.109
   150   6 C    3.915 --   143 C    1.321   154 N    1.196   151 C    1.186
   151   6 C    3.959 --   152 C    1.630   150 C    1.186   173 H    0.973
   152   6 C    3.959 --   151 C    1.630   153 C    1.194   174 H    0.974
   153   6 C    3.904 --   126 C    1.249   154 N    1.235   152 C    1.194
   154   7 N    3.337 --   153 C    1.235   150 C    1.196   125 Co   0.625
   155   7 N    3.337 --   139 C    1.234   142 C    1.196   125 Co   0.629
   156   6 C    3.988 --   161 C    1.393   157 C    1.393   132 C    1.032
                           159 C    0.107
   157   6 C    3.985 --   158 C    1.448   156 C    1.393   175 H    0.973
                           160 C    0.109
   158   6 C    3.995 --   157 C    1.448   159 C    1.437   176 H    0.973
                           161 C    0.109
   159   6 C    3.989 --   160 C    1.437   158 C    1.437   177 H    0.974
                           156 C    0.107
   160   6 C    3.995 --   161 C    1.448   159 C    1.437   178 H    0.973
                           157 C    0.109
   161   6 C    3.987 --   160 C    1.448   156 C    1.393   179 H    0.973
                           158 C    0.109
   162   1 H    1.001 --   128 C    0.974
   163   1 H    1.004 --   129 C    0.973
   164   1 H    1.004 --   134 C    0.973
   165   1 H    1.001 --   135 C    0.974
   166   1 H    1.001 --   140 C    0.974
   167   1 H    1.004 --   141 C    0.973
   168   1 H    1.005 --   145 C    0.973
   169   1 H    1.002 --   146 C    0.973
   170   1 H    1.003 --   147 C    0.974
   171   1 H    1.002 --   148 C    0.973
   172   1 H    1.005 --   149 C    0.973
   173   1 H    1.004 --   151 C    0.973
   174   1 H    1.001 --   152 C    0.974
   175   1 H    1.005 --   157 C    0.973
   176   1 H    1.002 --   158 C    0.973
   177   1 H    1.003 --   159 C    0.974
   178   1 H    1.002 --   160 C    0.973
   179   1 H    1.005 --   161 C    0.973
 ---------------------------------------------------------------------------

           -------------------------------------------------
          | TOTAL ENERGY             -307.003296082196 Eh   |
          | GRADIENT NORM               0.000394782911 Eh/α |
          | HOMO-LUMO GAP               0.006659005878 eV   |
           -------------------------------------------------

 * finished run on 2022/07/30 at 01:52:01.754
