   * xtb version 6.5.1 (b24c23e) compiled by 'conda@728c89f4b128' on 2022-07-12
          program call               : xtb p-CP_C2_3.xyz --gfn 1 --opt -T 48

   ID    Z sym.   atoms
    1    6 C      1-5, 7-10, 12-23, 26-31, 34-38, 41, 42, 64-68, 70-73,
                  75-86, 89-94, 97-101, 104, 105, 127-135, 137-140, 142-153,
                  156-161, 164-168, 171, 172
    2    7 N      6, 11, 32, 33, 69, 74, 95, 96, 136, 141, 162, 163
    3    8 O      24, 25, 39, 40, 87, 88, 102, 103, 154, 155, 169, 170
    4    1 H      43-63, 106-126, 173-192

          :  Hamiltonian                  GFN1-xTB          :
 * total energy  :  -351.5239813 Eh     change       -0.1428020E-08 Eh
 * total energy  :  -351.6651786 Eh     change       -0.1411973E+00 Eh
 * total energy  :  -351.7614835 Eh     change       -0.9630493E-01 Eh
 * total energy  :  -351.8127871 Eh     change       -0.5130351E-01 Eh
 * total energy  :  -351.8625835 Eh     change       -0.4979641E-01 Eh
 * total energy  :  -351.8951528 Eh     change       -0.3256934E-01 Eh
 * total energy  :  -351.9230914 Eh     change       -0.2793858E-01 Eh
 * total energy  :  -351.9489070 Eh     change       -0.2581564E-01 Eh
 * total energy  :  -351.9719652 Eh     change       -0.2305813E-01 Eh
 * total energy  :  -351.9920579 Eh     change       -0.2009276E-01 Eh
 * total energy  :  -352.1118973 Eh     change       -0.1588250E-04 Eh
 * total energy  :  -352.1119101 Eh     change       -0.1274964E-04 Eh
 * total energy  :  -352.1119207 Eh     change       -0.1061824E-04 Eh
 * total energy  :  -352.1119321 Eh     change       -0.1138398E-04 Eh
 * total energy  :  -352.1119458 Eh     change       -0.1371018E-04 Eh
 * total energy  :  -352.1119601 Eh     change       -0.1432209E-04 Eh
 * total energy  :  -352.1119732 Eh     change       -0.1315179E-04 Eh
 * total energy  :  -352.1119849 Eh     change       -0.1169801E-04 Eh
 * total energy  :  -352.1119875 Eh     change       -0.2548083E-05 Eh
   *** GEOMETRY OPTIMIZATION CONVERGED AFTER 152 ITERATIONS ***

 final structure:
================
192
 xtb: 6.5.1 (b24c23e)
C           34.85874203718895       -0.08947422310953       -0.04102672919133
C           35.46826715557523       -1.33591166275170       -0.10025833787204
C           34.81660127820438       -2.60067110380890       -0.13945219099461
C           35.77901898738386       -3.56883275474779       -0.19361623751661
C           37.05019669591048       -2.92595923240239       -0.19932763754128
N           36.81175999864381       -1.58275967381576       -0.13390973201578
C           38.31375310517095       -3.52653739329938       -0.23301352561353
C           39.53060897456227       -2.84063127243792       -0.19527651366149
C           40.82803096923263       -3.48570723525639       -0.29213157210546
C           41.74882855862744       -2.50174908810537       -0.23453674733878
N           39.68509829301158       -1.49214179062355       -0.09838907438437
C           41.01368782181527       -1.25743739731255       -0.11131764093261
C           41.64824181453432       -0.00273386430449       -0.03645095316379
C           41.01416688193325        1.25051878393021        0.03840328450052
C           41.65857645705689        2.50980389505594        0.16611406121848
C           40.69206311758857        3.47433456135957        0.23506513625925
C           39.42556931692916        2.83321922073537        0.14129789707100
C           38.16246979044195        3.43335711386269        0.19118211967791
C           38.13005874773142        4.90920692706350        0.31630687542288
C           38.70895053429590        5.71965269976347       -0.66423596042184
C           38.68064934519252        7.09626047517079       -0.53837745597695
C           38.07806556113844        7.68924308610646        0.57277194491445
C           38.08043604105857        9.16867978113610        0.66673492997286
O           37.48359935958074        9.63747033533424        1.77310686159478
O           38.56589650885425        9.90164743976330       -0.15699745913042
C           37.49831500292212        6.88496789392258        1.55450084921104
C           37.52306668522378        5.50768502375223        1.42380896862253
C           36.94543160440669        2.74528197902458        0.13874512988201
C           35.64104183675680        3.38985394380392        0.12654188361685
C           34.72722248677793        2.40118502842860        0.05903168817750
C           35.47193389911904        1.15469152569405        0.02210565537444
N           36.80450391988323        1.40105370717089        0.06275598715557
N           39.67214983118892        1.49079808534045        0.02887487925470
C           38.34302134636203       -5.00610610005804       -0.31979414028355
C           37.77278321665435       -5.66052903248507       -1.41482532176586
C           37.79623277731197       -7.04159352105168       -1.49994796999633
C           38.38711844072593       -7.79286360934217       -0.48360369158527
C           38.43320214709409       -9.27408771668040       -0.52488708443171
O           37.87044984627953       -9.79836067238293       -1.62436470416219
O           38.92183305746278       -9.96367302407480        0.33351805979140
C           38.95618577825563       -7.14341555232450        0.61355968097620
C           38.93691184436068       -5.76322171792440        0.69355885411317
H           33.77345598146261       -0.09859264262585       -0.04317959725434
H           33.74727979254965       -2.73821584417063       -0.12108084626514
H           35.62788981933966       -4.63581160787541       -0.21795910416546
H           37.53692608181196       -0.87376806831910       -0.10720529473419
H           40.99041449607874       -4.54528945609530       -0.40504519786057
H           42.82273155974310       -2.58401621070585       -0.28256673876510
H           42.72647505275091        2.65016110630040        0.21170149433842
H           40.84078487374011        4.53514053331881        0.35345441722413
H           39.16511867523869        5.26249464127916       -1.53502313917248
H           39.12366128168777        7.73087136175319       -1.29807002555489
H           37.52895370702566       10.60730370617336        1.75915039962078
H           37.03179203572409        7.34063652767364        2.41987532193519
H           37.08550214268783        4.88260029137341        2.19399386580794
H           35.47308243472818        4.45451752194160        0.15041161538556
H           33.65157034255795        2.47631017755203        0.02861744682089
H           38.94962379422645        0.78099848513585       -0.03292173583850
H           37.32539003347931       -5.07683265221063       -2.21154458920154
H           37.35716309149477       -7.54105681164576       -2.35547742355446
H           37.94361360824638      -10.76535077854733       -1.57504772521834
H           39.40999463663867       -7.73725571666199        1.39936848929713
H           39.36792155538751       -5.26142630472720        1.55234899053796
C           63.36617872023179        0.07164562554461       -0.05979075507638
C           62.77993957654171        1.29408460289925        0.24107506163470
C           63.45464758938964        2.51025800901336        0.54422627092583
C           62.51007956051944        3.47051004635008        0.77270360759013
C           61.22718714152359        2.87488085899339        0.60331621192244
N           61.44114893073569        1.56158760559002        0.29483640894496
C           59.97422514093813        3.48260569152266        0.73802747636899
C           58.74614507897851        2.83266154673582        0.58612806948330
C           57.46086429878387        3.50456956949390        0.65761613868441
C           56.52282716660440        2.55561674179429        0.46059610629140
N           58.56791188634706        1.50810553710598        0.33223214416911
C           57.23498362906292        1.30782301858558        0.26277895692180
C           56.57821476488376        0.07784721611257        0.06931585707551
C           57.19148577496203       -1.17222981319528       -0.13060562397966
C           56.52774432360936       -2.41649668226195       -0.29877667082205
C           57.47749887785077       -3.37899524513610       -0.50123661862823
C           58.75224280058463       -2.74827948147728       -0.47671502445239
C           60.00316240959678       -3.35152034028350       -0.64932777242198
C           60.00950162345384       -4.80365028867604       -0.94308797767130
C           59.37026279210824       -5.29715275869010       -2.08403322285279
C           59.38305699489054       -6.65148605111962       -2.36134579265311
C           60.03026697884069       -7.53999033722364       -1.50046702847942
C           60.01595397316873       -8.98269113937990       -1.84100476907759
O           60.66430515184840       -9.75090470072349       -0.95255624650152
O           59.48033391205310       -9.44593146308684       -2.81577958974032
C           60.66669076300681       -7.05344894523301       -0.35808734019443
C           60.65719080917614       -5.69677143184770       -0.08533622342603
C           61.23071604459170       -2.68460267063599       -0.57580434217509
C           62.51997956547325       -3.31178964505677       -0.82381850223777
C           63.45033611761821       -2.35046088442057       -0.65844443978557
C           62.73032493579758       -1.13509845182771       -0.32021869524097
N           61.39582231634552       -1.37143989471412       -0.29048617418014
N           58.52842364386247       -1.41903169238736       -0.23547212205255
C           59.96473403213860        4.92773538367528        1.06791834589462
C           60.54740596933691        5.85807399438009        0.20360855557846
C           60.53555409746560        7.20760128093506        0.51060549863634
C           59.94428804490598        7.64844356968971        1.69490735331938
C           59.90658880448080        9.08197034611299        2.07078024088588
O           60.48310879573574        9.88956065516547        1.16774273107105
O           59.41175065535373        9.50657067671678        3.08384946814551
C           59.36421479240624        6.72192507793966        2.56358083324987
C           59.37186080377031        5.37507978746312        2.25192037197953
H           64.45106786916952        0.06749677079079       -0.09012063617943
H           64.52646540731939        2.62035609781669        0.58657066289655
H           62.68069820578090        4.50008560656179        1.04246885785449
H           60.70287301365655        0.88472078025248        0.13349496582287
H           57.31764154584674        4.56022448251290        0.82168195849608
H           55.45051981962020        2.66537417403484        0.44666392624879
H           55.45866470523367       -2.55055510583195       -0.26645325423736
H           57.31240868028811       -4.43391386738872       -0.64751034999508
H           58.88039816075204       -4.60794740623215       -2.76255575937259
H           58.89501346386990       -7.03958956569169       -3.24865952207866
H           60.60882410754146      -10.67459390536210       -1.24678462226093
H           61.16685484684550       -7.73977845743693        0.31493879375091
H           61.14080866606471       -5.32086417863528        0.80918120744861
H           62.66702306982003       -4.34343976421921       -1.10014681360559
H           64.52202198131117       -2.42333716863213       -0.75731682693640
H           59.26187979516674       -0.72265820458690       -0.15292203623545
H           60.99413222894219        5.51819932465575       -0.72402669173637
H           60.98309929014587        7.92353474114464       -0.16861225923105
H           60.41387452809187       10.80438567730509        1.48582402517241
H           58.91040798305103        7.07501166986316        3.48307910705116
H           58.93103450480184        4.65601208678510        2.93290575485217
C           43.05887558385455        0.01523216318953       -0.02839404507454
C           44.27505294787289        0.03288313931865       -0.01444334764553
C           53.95057749664891        0.08454336695421        0.07545176943283
C           55.16695355216946        0.08228934953382        0.07696413435004
C           45.68497194260648        0.04598503122747        0.00365413315578
C           46.30765476820599        1.14093139833722       -0.62247231209759
C           45.65796518065286        2.19586737928565       -1.31495015550755
C           46.62000539783529        3.04657480671657       -1.78599333266103
C           47.88677611524622        2.54043724844724       -1.38507462176342
N           47.64740039178398        1.38442975732508       -0.69191139553459
C           49.14591229760963        3.08790151623659       -1.65959221982144
C           50.37149938999591        2.53262785836020       -1.28492206680593
C           51.65455791745041        3.16729396097278       -1.53036900171020
C           52.59358332798055        2.33098215817118       -1.04259313020398
N           50.55124068441884        1.34808263568530       -0.64046795091149
C           51.88389687286048        1.19267081570931       -0.49273322609783
C           52.53996953936969        0.08318430288687        0.07224418377084
C           51.91689810682093       -1.04423381185828        0.63773361346232
C           52.56753581126063       -2.16951666152289        1.20744098707247
C           51.60519273756431       -3.01825769834713        1.68137292335318
C           50.33703373189617       -2.43010490339438        1.42278439175710
C           49.07873325660216       -2.95597649542437        1.74069964817609
C           49.06967599863295       -4.23674342003458        2.48788120765237
C           48.47378172903022       -5.37505670096281        1.93848459083528
C           48.46771276527034       -6.56685870760751        2.63949638747963
C           49.05246489917649       -6.64210807682258        3.90509382990319
C           49.01754713751966       -7.94094251162450        4.61928857877062
O           49.59972625286947       -7.90486149330972        5.82762030085535
O           48.52252592814438       -8.94662452988897        4.17818734116611
C           49.64700793557453       -5.50806523523989        4.45908702166421
C           49.65704851200343       -4.31779768889755        3.75324161668640
C           47.85134232218933       -2.37277518533249        1.42042496209960
C           46.56603429103888       -2.92169043406416        1.81526441712866
C           45.62736867270510       -2.08707388048642        1.32392762326841
C           46.33986325111437       -1.02487119004182        0.64080002576154
N           47.67269381114185       -1.21727143321969        0.72416203385759
N           50.57579957943361       -1.24539967266534        0.78011489749660
C           49.16299069412536        4.35711008425219       -2.42588711120396
C           48.54956826007238        5.50592659370489       -1.91932759032314
C           48.56882314222233        6.68418871521738       -2.64296471686561
C           49.19697642705120        6.73514446104494       -3.88876708927619
C           49.18701053828892        8.01977226344549       -4.62893281110327
O           49.82276583328434        7.96413331323189       -5.80905222085438
O           48.66603151018649        9.03024755965518       -4.23050443640982
C           49.80970643711639        5.59059136442477       -4.39984420938532
C           49.79317948177074        4.41396049987438       -3.67200529671364
H           44.59087795008499        2.27963293227445       -1.44321514624007
H           46.46744917565534        3.93963637068364       -2.36959535997406
H           48.37006873679786        0.78911924924725       -0.30126371166410
H           51.79561048433966        4.12785497890983       -1.99858853956199
H           53.66481921201060        2.45155495230767       -1.04252563726458
H           53.63608400505453       -2.30553944230424        1.24729984732738
H           51.75850857382840       -3.97139506044324        2.16043080802936
H           48.02978506021903       -5.32171651483062        0.95102957527566
H           48.01115108596950       -7.45523804506035        2.21712129277316
H           49.53356330904867       -8.78758960543014        6.22672364941227
H           50.09867983468038       -5.56060441457853        5.44265512027539
H           50.10714069032936       -3.43339356317457        4.19013353967898
H           46.42288406396048       -3.81515367211949        2.40089031775410
H           44.55522433890958       -2.15438085807439        1.41476488184799
H           49.85275969241435       -0.61023357224726        0.45900722099362
H           48.07372318230239        5.47350735957770       -0.94575581714235
H           48.09940063746166        7.58081456107640       -2.25330033405091
H           49.77162387816323        8.83893810597482       -6.22731111424944
H           50.29594664848155        5.62442506438207       -5.36760007338096
H           50.25795173421604        3.52118433513513       -4.07487581100028

          :  Hamiltonian                  GFN1-xTB          :
         :: total energy            -352.111987496881 Eh    ::
         :: gradient norm              0.000390252145 Eh/a0 ::
         :: HOMO-LUMO gap              0.888749334490 eV    ::
         :: SCC energy              -357.262472373650 Eh    ::
         :: repulsion energy           5.317422902137 Eh    ::

    * Orbital Energies and Occupations

         #    Occupation            Energy/Eh            Energy/eV
      -------------------------------------------------------------
         1        2.0000           -0.8330067             -22.6673
       ...           ...                  ...                  ...
       297        2.0000           -0.4279433             -11.6449
       298        2.0000           -0.4269122             -11.6169
       299        2.0000           -0.4263459             -11.6015
       300        2.0000           -0.4256871             -11.5835
       301        2.0000           -0.4246109             -11.5542
       302        2.0000           -0.4245377             -11.5523
       303        2.0000           -0.4241686             -11.5422
       304        2.0000           -0.4091010             -11.1322
       305        2.0000           -0.4084772             -11.1152
       306        2.0000           -0.4079462             -11.1008
       307        2.0000           -0.4010018             -10.9118
       308        2.0000           -0.3942045             -10.7268
       309        2.0000           -0.3859234             -10.5015 (HOMO)
       310                         -0.3532625              -9.6128 (LUMO)
       311                         -0.3437698              -9.3545
       312                         -0.3425347              -9.3208
       313                         -0.3421947              -9.3116
       314                         -0.3413057              -9.2874
       315                         -0.3338398              -9.0842
       316                         -0.3173003              -8.6342
       317                         -0.3147605              -8.5651
       318                         -0.3138083              -8.5392
       319                         -0.3093410              -8.4176
       320                         -0.3091100              -8.4113
       ...                                ...                  ...
       644                          1.3304918              36.2045
      -------------------------------------------------------------
                  HL-Gap            0.0326609 Eh            0.8887 eV

Wiberg/Mayer (AO) data.
largest (>0.10) Wiberg bond orders for each atom

     #   Z sym  total        # sym  WBO       # sym  WBO       # sym  WBO
 ---------------------------------------------------------------------------
     1   6 C    3.927 --    31 C    1.367     2 C    1.347    43 H    0.971
     2   6 C    3.901 --     1 C    1.347     3 C    1.229     6 N    1.169
     3   6 C    3.954 --     4 C    1.597     2 C    1.229    44 H    0.976
     4   6 C    3.959 --     3 C    1.597     5 C    1.233    45 H    0.974
     5   6 C    3.897 --     7 C    1.303     4 C    1.233     6 N    1.178
     6   7 N    3.470 --     5 C    1.178     2 C    1.169    46 H    0.873
     7   6 C    3.938 --     8 C    1.332     5 C    1.303    34 C    1.032
     8   6 C    3.915 --     7 C    1.332    11 N    1.289     9 C    1.124
     9   6 C    3.966 --    10 C    1.711     8 C    1.124    47 H    0.973
    10   6 C    3.965 --     9 C    1.711    12 C    1.127    48 H    0.972
    11   7 N    3.021 --    12 C    1.339     8 C    1.289
    12   6 C    3.914 --    11 N    1.339    13 C    1.263    10 C    1.127
    13   6 C    3.937 --    12 C    1.263    14 C    1.259   127 C    1.171
    14   6 C    3.890 --    13 C    1.259    15 C    1.247    33 N    1.187
    15   6 C    3.959 --    16 C    1.584    14 C    1.247    49 H    0.973
    16   6 C    3.955 --    15 C    1.584    17 C    1.240    50 H    0.974
    17   6 C    3.898 --    18 C    1.307    16 C    1.240    33 N    1.167
    18   6 C    3.925 --    28 C    1.319    17 C    1.307    19 C    1.034
    19   6 C    3.986 --    27 C    1.385    20 C    1.384    18 C    1.034
    20   6 C    3.986 --    21 C    1.465    19 C    1.384    51 H    0.972
                            26 C    0.102
    21   6 C    3.990 --    20 C    1.465    22 C    1.385    52 H    0.968
                            27 C    0.102
    22   6 C    3.981 --    26 C    1.388    21 C    1.385    23 C    1.009
    23   6 C    3.836 --    25 O    1.690    24 O    1.088    22 C    1.009
    24   8 O    2.096 --    23 C    1.088    53 H    0.838    25 O    0.128
    25   8 O    1.958 --    23 C    1.690    24 O    0.128
    26   6 C    3.991 --    27 C    1.462    22 C    1.388    54 H    0.970
                            20 C    0.102
    27   6 C    3.987 --    26 C    1.462    19 C    1.385    55 H    0.972
                            21 C    0.102
    28   6 C    3.929 --    18 C    1.319    32 N    1.318    29 C    1.117
    29   6 C    3.967 --    30 C    1.724    28 C    1.117    56 H    0.973
    30   6 C    3.966 --    29 C    1.724    31 C    1.116    57 H    0.976
    31   6 C    3.928 --     1 C    1.367    32 N    1.299    30 C    1.116
    32   7 N    3.013 --    28 C    1.318    31 C    1.299
    33   7 N    3.474 --    14 C    1.187    17 C    1.167    58 H    0.873
    34   6 C    3.986 --    35 C    1.386    42 C    1.385     7 C    1.032
    35   6 C    3.987 --    36 C    1.462    34 C    1.386    59 H    0.972
                            41 C    0.102
    36   6 C    3.991 --    35 C    1.462    37 C    1.388    60 H    0.970
                            42 C    0.103
    37   6 C    3.982 --    36 C    1.388    41 C    1.385    38 C    1.009
    38   6 C    3.836 --    40 O    1.690    39 O    1.088    37 C    1.009
    39   8 O    2.096 --    38 C    1.088    61 H    0.838    40 O    0.129
    40   8 O    1.959 --    38 C    1.690    39 O    0.129
    41   6 C    3.990 --    42 C    1.464    37 C    1.385    62 H    0.968
                            35 C    0.102
    42   6 C    3.987 --    41 C    1.464    34 C    1.385    63 H    0.972
                            36 C    0.103
    43   1 H    1.002 --     1 C    0.971
    44   1 H    0.997 --     3 C    0.976
    45   1 H    1.004 --     4 C    0.974
    46   1 H    0.986 --     6 N    0.873
    47   1 H    1.004 --     9 C    0.973
    48   1 H    1.004 --    10 C    0.972
    49   1 H    1.004 --    15 C    0.973
    50   1 H    1.004 --    16 C    0.974
    51   1 H    1.004 --    20 C    0.972
    52   1 H    1.005 --    21 C    0.968
    53   1 H    0.873 --    24 O    0.838
    54   1 H    1.005 --    26 C    0.970
    55   1 H    1.004 --    27 C    0.972
    56   1 H    1.004 --    29 C    0.973
    57   1 H    0.998 --    30 C    0.976
    58   1 H    0.987 --    33 N    0.873
    59   1 H    1.004 --    35 C    0.972
    60   1 H    1.005 --    36 C    0.970
    61   1 H    0.873 --    39 O    0.838
    62   1 H    1.005 --    41 C    0.968
    63   1 H    1.004 --    42 C    0.972
    64   6 C    3.927 --    94 C    1.366    65 C    1.347   106 H    0.971
    65   6 C    3.901 --    64 C    1.347    66 C    1.228    69 N    1.169
    66   6 C    3.954 --    67 C    1.597    65 C    1.228   107 H    0.976
    67   6 C    3.959 --    66 C    1.597    68 C    1.233   108 H    0.974
    68   6 C    3.897 --    70 C    1.304    67 C    1.233    69 N    1.178
    69   7 N    3.470 --    68 C    1.178    65 C    1.169   109 H    0.873
    70   6 C    3.938 --    71 C    1.330    68 C    1.304    97 C    1.032
    71   6 C    3.915 --    70 C    1.330    74 N    1.291    72 C    1.124
    72   6 C    3.966 --    73 C    1.711    71 C    1.124   110 H    0.973
    73   6 C    3.965 --    72 C    1.711    75 C    1.127   111 H    0.971
    74   7 N    3.022 --    75 C    1.337    71 C    1.291
    75   6 C    3.915 --    74 N    1.337    76 C    1.265    73 C    1.127
    76   6 C    3.937 --    75 C    1.265    77 C    1.258   130 C    1.170
    77   6 C    3.891 --    76 C    1.258    78 C    1.248    96 N    1.186
    78   6 C    3.959 --    79 C    1.583    77 C    1.248   112 H    0.972
    79   6 C    3.955 --    78 C    1.583    80 C    1.240   113 H    0.974
    80   6 C    3.898 --    81 C    1.306    79 C    1.240    96 N    1.168
    81   6 C    3.925 --    91 C    1.320    80 C    1.306    82 C    1.034
    82   6 C    3.986 --    90 C    1.385    83 C    1.383    81 C    1.034
    83   6 C    3.985 --    84 C    1.465    82 C    1.383   114 H    0.972
                            89 C    0.102
    84   6 C    3.990 --    83 C    1.465    85 C    1.384   115 H    0.968
                            90 C    0.102
    85   6 C    3.981 --    89 C    1.388    84 C    1.384    86 C    1.009
    86   6 C    3.836 --    88 O    1.689    87 O    1.088    85 C    1.009
    87   8 O    2.096 --    86 C    1.088   116 H    0.838    88 O    0.128
    88   8 O    1.957 --    86 C    1.689    87 O    0.128
    89   6 C    3.991 --    90 C    1.462    85 C    1.388   117 H    0.970
                            83 C    0.102
    90   6 C    3.987 --    89 C    1.462    82 C    1.385   118 H    0.972
                            84 C    0.102
    91   6 C    3.929 --    81 C    1.320    95 N    1.317    92 C    1.117
    92   6 C    3.967 --    93 C    1.724    91 C    1.117   119 H    0.973
    93   6 C    3.966 --    92 C    1.724    94 C    1.116   120 H    0.976
    94   6 C    3.928 --    64 C    1.366    95 N    1.300    93 C    1.116
    95   7 N    3.013 --    91 C    1.317    94 C    1.300
    96   7 N    3.474 --    77 C    1.186    80 C    1.168   121 H    0.872
    97   6 C    3.986 --    98 C    1.387   105 C    1.384    70 C    1.032
    98   6 C    3.987 --    99 C    1.461    97 C    1.387   122 H    0.972
                           104 C    0.102
    99   6 C    3.991 --    98 C    1.461   100 C    1.389   123 H    0.970
                           105 C    0.103
   100   6 C    3.982 --    99 C    1.389   104 C    1.384   101 C    1.009
   101   6 C    3.836 --   103 O    1.690   102 O    1.088   100 C    1.009
   102   8 O    2.096 --   101 C    1.088   124 H    0.838   103 O    0.128
   103   8 O    1.958 --   101 C    1.690   102 O    0.128
   104   6 C    3.990 --   105 C    1.465   100 C    1.384   125 H    0.968
                            98 C    0.102
   105   6 C    3.987 --   104 C    1.465    97 C    1.384   126 H    0.972
                            99 C    0.103
   106   1 H    1.002 --    64 C    0.971
   107   1 H    0.997 --    66 C    0.976
   108   1 H    1.004 --    67 C    0.974
   109   1 H    0.986 --    69 N    0.873
   110   1 H    1.004 --    72 C    0.973
   111   1 H    1.005 --    73 C    0.971
   112   1 H    1.004 --    78 C    0.972
   113   1 H    1.004 --    79 C    0.974
   114   1 H    1.004 --    83 C    0.972
   115   1 H    1.005 --    84 C    0.968
   116   1 H    0.873 --    87 O    0.838
   117   1 H    1.005 --    89 C    0.970
   118   1 H    1.004 --    90 C    0.972
   119   1 H    1.004 --    92 C    0.973
   120   1 H    0.998 --    93 C    0.976
   121   1 H    0.987 --    96 N    0.872
   122   1 H    1.004 --    98 C    0.972
   123   1 H    1.005 --    99 C    0.970
   124   1 H    0.873 --   102 O    0.838
   125   1 H    1.005 --   104 C    0.968
   126   1 H    1.004 --   105 C    0.972
   127   6 C    3.929 --   128 C    2.579    13 C    1.171
   128   6 C    3.932 --   127 C    2.579   131 C    1.173
   129   6 C    3.931 --   130 C    2.580   143 C    1.172
   130   6 C    3.928 --   129 C    2.580    76 C    1.170
   131   6 C    3.926 --   161 C    1.263   132 C    1.256   128 C    1.173
   132   6 C    3.891 --   131 C    1.256   133 C    1.251   136 N    1.187
   133   6 C    3.956 --   134 C    1.579   132 C    1.251   173 H    0.973
   134   6 C    3.956 --   133 C    1.579   135 C    1.244   174 H    0.974
   135   6 C    3.894 --   137 C    1.299   134 C    1.244   136 N    1.168
   136   7 N    3.471 --   132 C    1.187   135 C    1.168   175 H    0.874
   137   6 C    3.927 --   138 C    1.333   135 C    1.299   164 C    1.032
   138   6 C    3.917 --   137 C    1.333   141 N    1.289   139 C    1.124
   139   6 C    3.966 --   140 C    1.711   138 C    1.124   176 H    0.973
   140   6 C    3.965 --   139 C    1.711   142 C    1.128   177 H    0.971
   141   7 N    3.010 --   142 C    1.337   138 C    1.289
   142   6 C    3.915 --   141 N    1.337   143 C    1.265   140 C    1.128
   143   6 C    3.926 --   142 C    1.265   144 C    1.255   129 C    1.172
   144   6 C    3.891 --   143 C    1.255   145 C    1.251   163 N    1.187
   145   6 C    3.956 --   146 C    1.578   144 C    1.251   178 H    0.973
   146   6 C    3.956 --   145 C    1.578   147 C    1.245   179 H    0.974
   147   6 C    3.894 --   148 C    1.298   146 C    1.245   163 N    1.169
   148   6 C    3.927 --   158 C    1.336   147 C    1.298   149 C    1.031
   149   6 C    3.986 --   157 C    1.386   150 C    1.385   148 C    1.031
   150   6 C    3.987 --   151 C    1.464   149 C    1.385   180 H    0.972
                           156 C    0.103
   151   6 C    3.990 --   150 C    1.464   152 C    1.385   181 H    0.968
                           157 C    0.102
   152   6 C    3.982 --   156 C    1.389   151 C    1.385   153 C    1.009
   153   6 C    3.836 --   155 O    1.691   154 O    1.088   152 C    1.009
   154   8 O    2.096 --   153 C    1.088   182 H    0.838   155 O    0.129
   155   8 O    1.959 --   153 C    1.691   154 O    0.129
   156   6 C    3.991 --   157 C    1.462   152 C    1.389   183 H    0.970
                           150 C    0.103
   157   6 C    3.986 --   156 C    1.462   149 C    1.386   184 H    0.972
                           151 C    0.102
   158   6 C    3.917 --   148 C    1.336   162 N    1.287   159 C    1.124
   159   6 C    3.967 --   160 C    1.711   158 C    1.124   185 H    0.973
   160   6 C    3.965 --   159 C    1.711   161 C    1.127   186 H    0.972
   161   6 C    3.915 --   162 N    1.340   131 C    1.263   160 C    1.127
   162   7 N    3.010 --   161 C    1.340   158 C    1.287
   163   7 N    3.471 --   144 C    1.187   147 C    1.169   187 H    0.874
   164   6 C    3.986 --   165 C    1.385   172 C    1.385   137 C    1.032
   165   6 C    3.986 --   166 C    1.464   164 C    1.385   188 H    0.972
                           171 C    0.102
   166   6 C    3.990 --   165 C    1.464   167 C    1.385   189 H    0.968
                           172 C    0.103
   167   6 C    3.982 --   171 C    1.388   166 C    1.385   168 C    1.009
   168   6 C    3.836 --   170 O    1.690   169 O    1.088   167 C    1.009
   169   8 O    2.096 --   168 C    1.088   190 H    0.838   170 O    0.129
   170   8 O    1.958 --   168 C    1.690   169 O    0.129
   171   6 C    3.991 --   172 C    1.462   167 C    1.388   191 H    0.969
                           165 C    0.102
   172   6 C    3.987 --   171 C    1.462   164 C    1.385   192 H    0.972
                           166 C    0.103
   173   1 H    1.004 --   133 C    0.973
   174   1 H    1.004 --   134 C    0.974
   175   1 H    0.987 --   136 N    0.874
   176   1 H    1.004 --   139 C    0.973
   177   1 H    1.005 --   140 C    0.971
   178   1 H    1.004 --   145 C    0.973
   179   1 H    1.004 --   146 C    0.974
   180   1 H    1.004 --   150 C    0.972
   181   1 H    1.005 --   151 C    0.968
   182   1 H    0.873 --   154 O    0.838
   183   1 H    1.005 --   156 C    0.970
   184   1 H    1.004 --   157 C    0.972
   185   1 H    1.004 --   159 C    0.973
   186   1 H    1.004 --   160 C    0.972
   187   1 H    0.987 --   163 N    0.874
   188   1 H    1.004 --   165 C    0.972
   189   1 H    1.005 --   166 C    0.968
   190   1 H    0.873 --   169 O    0.838
   191   1 H    1.005 --   171 C    0.969
   192   1 H    1.004 --   172 C    0.972
 ---------------------------------------------------------------------------

           -------------------------------------------------
          | TOTAL ENERGY             -352.111987496881 Eh   |
          | GRADIENT NORM               0.000390252145 Eh/α |
          | HOMO-LUMO GAP               0.888749334490 eV   |
           -------------------------------------------------

 * finished run on 2022/07/30 at 03:22:50.009
