   * xtb version 6.5.1 (b24c23e) compiled by 'conda@728c89f4b128' on 2022-07-12
          program call               : xtb Zn_BSA_C2_2.xyz --gfn 1 --opt -T 48

   ID    Z sym.   atoms
    1   30 Zn     1, 65
    2    6 C      2-6, 8-12, 17-21, 23-28, 30-34, 39-44, 66-70, 72-76, 81-85,
                  87-92, 94-98, 103-108, 129, 130
    3    7 N      7, 22, 29, 45, 71, 86, 93, 109
    4   16 S      13, 35, 77, 99
    5    8 O      14-16, 36-38, 78-80, 100-102
    6    1 H      46-64, 110-128
########################################################################
[WARNING] Please study the warnings concerning your input carefully
-1- prog_main_parseArguments: Unknown option '-T' provided
########################################################################

          :  Hamiltonian                  GFN1-xTB          :
 * total energy  :  -257.6531304 Eh     change       -0.2215188E-09 Eh
 * total energy  :  -257.7674994 Eh     change       -0.1143690E+00 Eh
 * total energy  :  -257.8399380 Eh     change       -0.7243858E-01 Eh
 * total energy  :  -257.8570873 Eh     change       -0.1714935E-01 Eh
 * total energy  :  -257.8680645 Eh     change       -0.1097715E-01 Eh
 * total energy  :  -257.8748381 Eh     change       -0.6773669E-02 Eh
 * total energy  :  -257.8798774 Eh     change       -0.5039224E-02 Eh
 * total energy  :  -257.8833004 Eh     change       -0.3423005E-02 Eh
 * total energy  :  -257.8853067 Eh     change       -0.2006344E-02 Eh
 * total energy  :  -257.8865028 Eh     change       -0.1196082E-02 Eh
 * total energy  :  -257.8922986 Eh     change       -0.1154702E-04 Eh
 * total energy  :  -257.8923071 Eh     change       -0.8572035E-05 Eh
 * total energy  :  -257.8923164 Eh     change       -0.9254067E-05 Eh
 * total energy  :  -257.8923295 Eh     change       -0.1306326E-04 Eh
 * total energy  :  -257.8923414 Eh     change       -0.1196066E-04 Eh
 * total energy  :  -257.8923516 Eh     change       -0.1018571E-04 Eh
 * total energy  :  -257.8923611 Eh     change       -0.9468822E-05 Eh
 * total energy  :  -257.8923688 Eh     change       -0.7768520E-05 Eh
 * total energy  :  -257.8923732 Eh     change       -0.4381314E-05 Eh
   *** GEOMETRY OPTIMIZATION CONVERGED AFTER 59 ITERATIONS ***

 final structure:
================
130
 xtb: 6.5.1 (b24c23e)
Zn          18.26739913375506        0.03156462421632        0.04794636535388
C           14.85519143442789        0.10606168041945        0.08976067563225
C           15.48342623735973       -0.19332067300824        1.29234954019781
C           14.80810360710373       -0.50603604266661        2.52098807794083
C           15.76575910744542       -0.72692667529561        3.45539164169102
C           17.03905482687669       -0.53678714312116        2.81115877196614
N           16.83265119132513       -0.22900696668516        1.49879364785713
C           18.29137887637219       -0.65362321356928        3.42534126127397
C           18.31062009777569       -0.97280752567921        4.87348786216199
C           17.71860822313663       -0.11164615106319        5.80105363675524
C           17.73952927220094       -0.41134992613841        7.15325232382968
C           18.35360388037676       -1.58287641107331        7.56582084063043
S           18.39353960383885       -1.96407718557507        9.27575910502500
O           18.25906372294831       -0.77554162653895       10.06546146524190
O           17.00107085126464       -2.79643303578474        9.36586603151649
O           19.46866566832427       -2.86457060020333        9.57427123982858
C           18.95091656061877       -2.45622273285720        6.67115153837081
C           18.92764286353354       -2.14399920970494        5.32230358856551
C           19.53174435168739       -0.49866111367548        2.79414421298401
C           20.80408273477117       -0.52036900544107        3.46012241335956
C           21.75339931868043       -0.33153708325944        2.50908826577829
N           19.73262081396442       -0.28021988316230        1.45808767151518
C           21.07643926052659       -0.19344528861293        1.25431276546572
C           21.71611912643734       -0.02617144693361        0.00862699352947
C           21.05468528168966        0.15362240361628       -1.22408749321399
C           21.70681859064100        0.26036254220572       -2.49505646062275
C           20.74253628357926        0.47406508919490       -3.42566372156288
C           19.48611187734424        0.50106545956394       -2.73042319049288
N           19.71025748745672        0.28346281853546       -1.39779533090441
C           18.23807481265919        0.70105692444351       -3.33264104978229
C           18.23164760110114        1.00694939327092       -4.78408738686413
C           17.58164910373218        0.16019029900284       -5.68543144696473
C           17.56886547451794        0.44996341033592       -7.04003768837801
C           18.20962968298199        1.59612255964738       -7.48128608958435
S           18.18233803820520        1.98044084434586       -9.19193069320307
O           18.29098622941343        3.39468597895644       -9.40489299984742
O           19.60186515369151        1.31682842629947       -9.61709127041231
O           17.12557909943621        1.26678685880313       -9.84400052669335
C           18.86045488720842        2.45710740101269       -6.61210547770799
C           18.87100995200926        2.15483097473125       -5.26077783666579
C           16.99760022993054        0.64242549823902       -2.68689086171094
C           15.71850039834920        0.88728042776113       -3.30058871717289
C           14.77542471104689        0.71445732738368       -2.34168683287529
C           15.46623089658948        0.37571407654728       -1.12859589020204
N           16.81017205830672        0.34952662405952       -1.36829377057133
H           13.77004929461997        0.13063170529826        0.10330426096877
H           13.73713353808312       -0.55558403354702        2.63960255170969
H           15.62664483682996       -1.00440263934061        4.48796814919223
H           17.25630168354333        0.80723830770362        5.45977210608697
H           17.29382236234047        0.25474275192339        7.88129186544491
H           16.87820546212937       -3.14472908275507       10.25727339798167
H           19.42721106767827       -3.36050385756795        7.02863669941416
H           19.38009744116611       -2.81849017814827        4.60463707204747
H           20.95118989706967       -0.64381621633069        4.52089424964235
H           22.82023978510130       -0.27647754217693        2.64495259112330
H           22.76765259433056        0.16619609494212       -2.65480999988883
H           20.86843333027318        0.58546573009033       -4.49051931953102
H           17.09571720062324       -0.73763902375950       -5.32163701040467
H           17.06722543890484       -0.19929203116219       -7.74653360877728
H           19.91156962107722        1.69554105151335      -10.44884578048728
H           19.34177822990908        3.35057089276325       -6.98964948282601
H           19.36350576462813        2.82157830286066       -4.56248990847380
H           15.56657184902285        1.16658505116518       -4.33082584031721
H           13.70521462749116        0.81247585991775       -2.43388701774525
Zn          29.20617477512967        0.04720424104917       -0.03282376693850
C           32.61843010928887        0.13196768506777       -0.04411809849295
C           31.99019165758903        0.29775781311650       -1.27226932021243
C           32.66550396761220        0.46069445479276       -2.52956767117690
C           31.70784242998029        0.60051312107169       -3.47948461471184
C           30.43455869146689        0.53951079191843       -2.81053489873160
N           30.64096459052137        0.34094899578400       -1.47727097030436
C           29.18224515808065        0.65784833782519       -3.42444517075605
C           29.16303262842943        0.89597773984733       -4.88810354860852
C           29.75505160087701        2.03877927138827       -5.43213111035266
C           29.73396121057450        2.25963817462756       -6.79942122340088
C           29.11973435079963        1.32332365775456       -7.61539598697656
S           29.07917902660497        1.60076718596768       -9.34518636330436
O           29.21353112293889        2.99697065343901       -9.63997182874139
O           30.47145498293173        0.86057264223423       -9.73701850540058
O           28.00377339275894        0.87429213199939       -9.95480670919365
C           28.52251719071970        0.18128604826074       -7.10644179382714
C           28.54596373668595       -0.02670316704684       -5.73764836228923
C           27.94185889741092        0.56879217141185       -2.78067807174034
C           26.66952348210145        0.79446749032720       -3.40764369810343
C           25.72018166423462        0.61863943906532       -2.45414433225933
N           27.74095356936558        0.27838580151604       -1.45839996921181
C           26.39712657400793        0.28366028809549       -1.23703739023118
C           25.75743711522661       -0.02094803942565       -0.01764592298844
C           26.41886707518876       -0.30913351355322        1.19432380247479
C           25.76671361824051       -0.67930498755666        2.41485761950125
C           26.73099904155899       -0.82464794145262        3.35855535328944
C           27.98744822762000       -0.54291459069270        2.72243028505135
N           27.76330705200809       -0.25281501380528        1.40368167531789
C           29.23549918458403       -0.57961372607756        3.35588970458170
C           29.24207357552294       -0.83153297395343        4.81766210885824
C           29.89238770183174       -1.95118400906953        5.34244679885503
C           29.90540773807705       -2.18223238715088        6.70830385911708
C           29.26454069804988       -1.28020487649532        7.54170391689298
S           29.29121888619838       -1.55496981817961        9.27333060121658
O           29.18320625978893       -0.31941305881616        9.99375881731526
O           27.87092280197803       -2.32753929198263        9.42255199147151
O           30.34720002276680       -2.45968934553976        9.61626073843748
C           28.61342187252428       -0.15919851166324        7.05207716816242
C           28.60266557197415        0.05902472217762        5.68467021267993
C           30.47596734413269       -0.39538833500346        2.73418998600718
C           31.75502779585200       -0.39429889462535        3.39500876845733
C           32.69812187080781       -0.20053102422554        2.44014032383288
C           32.00736194790460       -0.06738369747441        1.18767640264647
N           30.66342515746645       -0.18046379520978        1.40067709204904
H           33.70356971473316        0.15984435277858       -0.04760905874618
H           33.73647008688994        0.45827490420979       -2.65811904706289
H           31.84693652140961        0.72384991858209       -4.54155791878086
H           30.21746018030070        2.76665315109342       -4.77567993226056
H           30.17962628900822        3.14750543125380       -7.23006077330757
H           30.59392451919837        0.86618025103473      -10.69408821112221
H           28.04613624434676       -0.52704297112042       -7.77255418015798
H           28.09356169163008       -0.91854304792694       -5.31973444899329
H           26.52242898376727        1.07147276246276       -4.43902612804170
H           24.65333063817830        0.71983760275077       -2.56013284482535
H           24.70585467330301       -0.82560083938854        2.52857165506516
H           26.60507403129190       -1.11446051885019        4.38924875744957
H           30.37835758406026       -2.65106620511541        4.67269088177834
H           30.40726999359932       -3.04642608998972        7.12497602559672
H           27.56036533917187       -2.28176203923204       10.33504687280629
H           28.13205107888152        0.53151758168441        7.73301254446394
H           28.10995325524846        0.93643951994547        5.28207499316371
H           31.90691808539396       -0.51523336493567        4.45556703513089
H           33.76830999259707       -0.14326653586577        2.56209793831749
C           23.12757679198315       -0.03463334588800       -0.00386398071446
C           24.34597929648421       -0.03349122366853       -0.00918025420612

          :  Hamiltonian                  GFN1-xTB          :
         :: total energy            -257.892373226807 Eh    ::
         :: gradient norm              0.000359625363 Eh/a0 ::
         :: HOMO-LUMO gap              1.103644842362 eV    ::
         :: SCC energy              -261.231904999128 Eh    ::
         :: repulsion energy           3.460400071210 Eh    ::

    * Orbital Energies and Occupations

         #    Occupation            Energy/Eh            Energy/eV
      -------------------------------------------------------------
         1        2.0000           -1.0351407             -28.1676
       ...           ...                  ...                  ...
       209        2.0000           -0.4467096             -12.1556
       210        2.0000           -0.4381768             -11.9234
       211        2.0000           -0.4381601             -11.9229
       212        2.0000           -0.4377661             -11.9122
       213        2.0000           -0.4377012             -11.9105
       214        2.0000           -0.4375657             -11.9068
       215        2.0000           -0.4373472             -11.9008
       216        2.0000           -0.4373424             -11.9007
       217        2.0000           -0.4361104             -11.8672
       218        2.0000           -0.4101196             -11.1599
       219        2.0000           -0.4101056             -11.1595
       220        2.0000           -0.4086514             -11.1200
       221        2.0000           -0.3936290             -10.7112 (HOMO)
       222                         -0.3530708              -9.6075 (LUMO)
       223                         -0.3452740              -9.3954
       224                         -0.3452692              -9.3953
       225                         -0.3355241              -9.1301
       226                         -0.3174673              -8.6387
       227                         -0.3134624              -8.5297
       228                         -0.3066362              -8.3440
       229                         -0.3065707              -8.3422
       230                         -0.3010249              -8.1913
       231                         -0.2954038              -8.0383
       232                         -0.2936545              -7.9907
       ...                                ...                  ...
       464                          1.3157278              35.8028
      -------------------------------------------------------------
                  HL-Gap            0.0405582 Eh            1.1036 eV

Wiberg/Mayer (AO) data.
largest (>0.10) Wiberg bond orders for each atom

     #   Z sym  total        # sym  WBO       # sym  WBO       # sym  WBO
 ---------------------------------------------------------------------------
     1  30 Zn   1.992 --    45 N    0.459     7 N    0.458    22 N    0.455
                            29 N    0.455
     2   6 C    3.929 --    44 C    1.358     3 C    1.358    46 H    0.971
     3   6 C    3.920 --     2 C    1.358     7 N    1.233     4 C    1.169
     4   6 C    3.960 --     5 C    1.661     3 C    1.169    47 H    0.975
     5   6 C    3.963 --     4 C    1.661     6 C    1.170    48 H    0.973
     6   6 C    3.920 --     8 C    1.315     7 N    1.245     5 C    1.170
     7   7 N    3.292 --     6 C    1.245     3 C    1.233     1 Zn   0.458
     8   6 C    3.930 --    19 C    1.317     6 C    1.315     9 C    1.032
     9   6 C    3.985 --    10 C    1.390    18 C    1.388     8 C    1.032
    10   6 C    3.986 --    11 C    1.450     9 C    1.390    49 H    0.971
                            17 C    0.105
    11   6 C    3.989 --    10 C    1.450    12 C    1.406    50 H    0.967
                            18 C    0.105
    12   6 C    3.928 --    11 C    1.406    17 C    1.405    13 S    0.755
    13  16 S    5.263 --    14 O    1.720    16 O    1.717    15 O    1.012
                            12 C    0.755
    14   8 O    2.079 --    13 S    1.720    16 O    0.139
    15   8 O    2.086 --    13 S    1.012    51 H    0.828
    16   8 O    2.075 --    13 S    1.717    14 O    0.139
    17   6 C    3.989 --    18 C    1.452    12 C    1.405    52 H    0.967
                            10 C    0.105
    18   6 C    3.986 --    17 C    1.452     9 C    1.388    53 H    0.971
                            11 C    0.105
    19   6 C    3.914 --     8 C    1.317    22 N    1.230    20 C    1.179
    20   6 C    3.959 --    21 C    1.644    19 C    1.179    54 H    0.973
    21   6 C    3.962 --    20 C    1.644    23 C    1.187    55 H    0.965
    22   7 N    3.295 --    23 C    1.258    19 C    1.230     1 Zn   0.455
    23   6 C    3.904 --    22 N    1.258    24 C    1.258    21 C    1.187
    24   6 C    3.940 --    23 C    1.258    25 C    1.258   129 C    1.181
    25   6 C    3.905 --    29 N    1.259    24 C    1.258    26 C    1.187
    26   6 C    3.962 --    27 C    1.644    25 C    1.187    56 H    0.965
    27   6 C    3.959 --    26 C    1.644    28 C    1.179    57 H    0.973
    28   6 C    3.914 --    30 C    1.318    29 N    1.230    27 C    1.179
    29   7 N    3.295 --    25 C    1.259    28 C    1.230     1 Zn   0.455
    30   6 C    3.930 --    28 C    1.318    41 C    1.315    31 C    1.031
    31   6 C    3.985 --    32 C    1.391    40 C    1.388    30 C    1.031
    32   6 C    3.986 --    33 C    1.449    31 C    1.391    58 H    0.971
                            39 C    0.106
    33   6 C    3.989 --    32 C    1.449    34 C    1.408    59 H    0.967
                            40 C    0.105
    34   6 C    3.930 --    33 C    1.408    39 C    1.405    35 S    0.754
    35  16 S    5.268 --    38 O    1.728    36 O    1.712    37 O    1.016
                            34 C    0.754
    36   8 O    2.071 --    35 S    1.712    38 O    0.138
    37   8 O    2.090 --    35 S    1.016    60 H    0.827
    38   8 O    2.085 --    35 S    1.728    36 O    0.138
    39   6 C    3.989 --    40 C    1.452    34 C    1.405    61 H    0.967
                            32 C    0.106
    40   6 C    3.986 --    39 C    1.452    31 C    1.388    62 H    0.971
                            33 C    0.105
    41   6 C    3.919 --    30 C    1.315    45 N    1.245    42 C    1.169
    42   6 C    3.963 --    43 C    1.662    41 C    1.169    63 H    0.973
    43   6 C    3.960 --    42 C    1.662    44 C    1.169    64 H    0.975
    44   6 C    3.920 --     2 C    1.358    45 N    1.233    43 C    1.169
    45   7 N    3.293 --    41 C    1.245    44 C    1.233     1 Zn   0.459
    46   1 H    1.001 --     2 C    0.971
    47   1 H    0.997 --     4 C    0.975
    48   1 H    1.004 --     5 C    0.973
    49   1 H    1.003 --    10 C    0.971
    50   1 H    0.999 --    11 C    0.967
    51   1 H    0.854 --    15 O    0.828
    52   1 H    1.000 --    17 C    0.967
    53   1 H    1.004 --    18 C    0.971
    54   1 H    1.004 --    20 C    0.973
    55   1 H    1.007 --    21 C    0.965
    56   1 H    1.007 --    26 C    0.965
    57   1 H    1.004 --    27 C    0.973
    58   1 H    1.003 --    32 C    0.971
    59   1 H    1.000 --    33 C    0.967
    60   1 H    0.854 --    37 O    0.827
    61   1 H    0.999 --    39 C    0.967
    62   1 H    1.003 --    40 C    0.971
    63   1 H    1.004 --    42 C    0.973
    64   1 H    0.997 --    43 C    0.975
    65  30 Zn   1.992 --   109 N    0.459    71 N    0.458    86 N    0.455
                            93 N    0.455
    66   6 C    3.929 --   108 C    1.358    67 C    1.358   110 H    0.971
    67   6 C    3.920 --    66 C    1.358    71 N    1.233    68 C    1.169
    68   6 C    3.960 --    69 C    1.661    67 C    1.169   111 H    0.975
    69   6 C    3.963 --    68 C    1.661    70 C    1.170   112 H    0.973
    70   6 C    3.920 --    72 C    1.315    71 N    1.245    69 C    1.170
    71   7 N    3.292 --    70 C    1.245    67 C    1.233    65 Zn   0.458
    72   6 C    3.930 --    83 C    1.317    70 C    1.315    73 C    1.032
    73   6 C    3.985 --    74 C    1.390    82 C    1.388    72 C    1.032
    74   6 C    3.986 --    75 C    1.450    73 C    1.390   113 H    0.971
                            81 C    0.105
    75   6 C    3.989 --    74 C    1.450    76 C    1.406   114 H    0.967
                            82 C    0.105
    76   6 C    3.928 --    75 C    1.406    81 C    1.405    77 S    0.755
    77  16 S    5.263 --    78 O    1.720    80 O    1.717    79 O    1.012
                            76 C    0.755
    78   8 O    2.079 --    77 S    1.720    80 O    0.139
    79   8 O    2.086 --    77 S    1.012   115 H    0.828
    80   8 O    2.075 --    77 S    1.717    78 O    0.139
    81   6 C    3.989 --    82 C    1.452    76 C    1.405   116 H    0.967
                            74 C    0.105
    82   6 C    3.986 --    81 C    1.452    73 C    1.388   117 H    0.971
                            75 C    0.105
    83   6 C    3.914 --    72 C    1.317    86 N    1.230    84 C    1.179
    84   6 C    3.959 --    85 C    1.644    83 C    1.179   118 H    0.973
    85   6 C    3.962 --    84 C    1.644    87 C    1.187   119 H    0.965
    86   7 N    3.295 --    87 C    1.258    83 C    1.230    65 Zn   0.455
    87   6 C    3.904 --    86 N    1.258    88 C    1.258    85 C    1.187
    88   6 C    3.940 --    87 C    1.258    89 C    1.258   130 C    1.181
    89   6 C    3.905 --    93 N    1.259    88 C    1.258    90 C    1.187
    90   6 C    3.962 --    91 C    1.644    89 C    1.187   120 H    0.965
    91   6 C    3.959 --    90 C    1.644    92 C    1.179   121 H    0.973
    92   6 C    3.914 --    94 C    1.318    93 N    1.230    91 C    1.179
    93   7 N    3.295 --    89 C    1.259    92 C    1.230    65 Zn   0.455
    94   6 C    3.930 --    92 C    1.318   105 C    1.315    95 C    1.031
    95   6 C    3.985 --    96 C    1.391   104 C    1.388    94 C    1.031
    96   6 C    3.986 --    97 C    1.449    95 C    1.391   122 H    0.971
                           103 C    0.106
    97   6 C    3.989 --    96 C    1.449    98 C    1.408   123 H    0.967
                           104 C    0.105
    98   6 C    3.930 --    97 C    1.408   103 C    1.405    99 S    0.754
    99  16 S    5.268 --   102 O    1.728   100 O    1.712   101 O    1.016
                            98 C    0.754
   100   8 O    2.071 --    99 S    1.712   102 O    0.138
   101   8 O    2.090 --    99 S    1.016   124 H    0.827
   102   8 O    2.085 --    99 S    1.728   100 O    0.138
   103   6 C    3.989 --   104 C    1.452    98 C    1.405   125 H    0.967
                            96 C    0.106
   104   6 C    3.986 --   103 C    1.452    95 C    1.388   126 H    0.971
                            97 C    0.105
   105   6 C    3.919 --    94 C    1.315   109 N    1.245   106 C    1.169
   106   6 C    3.963 --   107 C    1.662   105 C    1.169   127 H    0.973
   107   6 C    3.960 --   106 C    1.662   108 C    1.169   128 H    0.975
   108   6 C    3.920 --    66 C    1.358   109 N    1.233   107 C    1.169
   109   7 N    3.293 --   105 C    1.245   108 C    1.233    65 Zn   0.459
   110   1 H    1.001 --    66 C    0.971
   111   1 H    0.997 --    68 C    0.975
   112   1 H    1.004 --    69 C    0.973
   113   1 H    1.003 --    74 C    0.971
   114   1 H    0.999 --    75 C    0.967
   115   1 H    0.854 --    79 O    0.828
   116   1 H    1.000 --    81 C    0.967
   117   1 H    1.004 --    82 C    0.971
   118   1 H    1.004 --    84 C    0.973
   119   1 H    1.007 --    85 C    0.965
   120   1 H    1.007 --    90 C    0.965
   121   1 H    1.004 --    91 C    0.973
   122   1 H    1.003 --    96 C    0.971
   123   1 H    1.000 --    97 C    0.967
   124   1 H    0.854 --   101 O    0.827
   125   1 H    0.999 --   103 C    0.967
   126   1 H    1.003 --   104 C    0.971
   127   1 H    1.004 --   106 C    0.973
   128   1 H    0.997 --   107 C    0.975
   129   6 C    3.935 --   130 C    2.577    24 C    1.181
   130   6 C    3.935 --   129 C    2.577    88 C    1.181
 ---------------------------------------------------------------------------

           -------------------------------------------------
          | TOTAL ENERGY             -257.892373226807 Eh   |
          | GRADIENT NORM               0.000359625363 Eh/α |
          | HOMO-LUMO GAP               1.103644842362 eV   |
           -------------------------------------------------

 * finished run on 2022/07/30 at 15:35:56.648
