   * xtb version 6.5.1 (b24c23e) compiled by 'conda@728c89f4b128' on 2022-07-12
          program call               : xtb Co_DHP_C8_3.xyz --gfn 1 --opt -T 48

   ID    Z sym.   atoms
    1   27 Co     1, 59, 133
    2    6 C      2-6, 8-11, 13-17, 19-24, 26-29, 31-36, 60-64, 66-69, 71-75,
                  77-82, 84-87, 89-94, 117-132, 134-138, 140-143, 145-149,
                  151-156, 158-161, 163-168
    3    7 N      7, 12, 18, 25, 30, 37, 65, 70, 76, 83, 88, 95, 139, 144,
                  150, 157, 162, 169
    4    1 H      38-58, 96-116, 170-189
########################################################################
[WARNING] Please study the warnings concerning your input carefully
-1- prog_main_parseArguments: Unknown option '-T' provided
########################################################################

          :  Hamiltonian                  GFN1-xTB          :
 * total energy  :  -323.6993125 Eh     change        0.4466301E-08 Eh
 * total energy  :  -324.1815608 Eh     change       -0.4822483E+00 Eh
 * total energy  :  -324.3612559 Eh     change       -0.1796951E+00 Eh
 * total energy  :  -324.4525279 Eh     change       -0.9127200E-01 Eh
 * total energy  :  -324.5094180 Eh     change       -0.5689004E-01 Eh
 * total energy  :  -324.5506192 Eh     change       -0.4120128E-01 Eh
 * total energy  :  -324.5843177 Eh     change       -0.3369844E-01 Eh
 * total energy  :  -324.6146596 Eh     change       -0.3034190E-01 Eh
 * total energy  :  -324.6432424 Eh     change       -0.2858284E-01 Eh
 * total energy  :  -324.6710617 Eh     change       -0.2781925E-01 Eh
 * total energy  :  -324.9669112 Eh     change       -0.9283177E-05 Eh
 * total energy  :  -324.9669203 Eh     change       -0.9091480E-05 Eh
 * total energy  :  -324.9669195 Eh     change        0.7786339E-06 Eh
 * total energy  :  -324.9669295 Eh     change       -0.1001640E-04 Eh
 * total energy  :  -324.9669370 Eh     change       -0.7508553E-05 Eh
 * total energy  :  -324.9669436 Eh     change       -0.6531541E-05 Eh
 * total energy  :  -324.9669504 Eh     change       -0.6775020E-05 Eh
 * total energy  :  -324.9669564 Eh     change       -0.6081373E-05 Eh
 * total energy  :  -324.9669573 Eh     change       -0.8225561E-06 Eh
   *** GEOMETRY OPTIMIZATION CONVERGED AFTER 122 ITERATIONS ***

 final structure:
================
189
 xtb: 6.5.1 (b24c23e)
Co          22.80673490123161        0.23523152610160        0.12563522422428
C           19.43601114782987        0.15058183757702        0.11527324960686
C           20.12159363775662       -1.02589171746947        0.33092591070556
C           19.49112823970993       -2.28477085148941        0.58864545827767
C           20.46695586344999       -3.22276475297810        0.54952182005952
C           21.69066322227572       -2.53664625001220        0.25236526507377
N           21.47763317609326       -1.18276167822391        0.19028654425100
C           22.88877938394259       -3.16794223412871       -0.05422663359806
C           22.93070004636542       -4.64555657901104       -0.13744106966954
C           22.15384392634090       -5.32531121238306       -0.99656251824693
C           22.16927269543805       -6.82710483703537       -1.09499882532087
N           23.32335677062382       -7.39645430142863       -0.39738122408360
C           23.98125908132502       -6.70011870603280        0.57689995886948
C           23.85209711934593       -5.36790572418844        0.72446762249622
C           24.05293219391773       -2.44930852733274       -0.28625934775904
C           25.30245733987069       -3.04092545646203       -0.65951024894384
C           26.23282024160521       -2.05730646772150       -0.60534044432435
N           24.20640722146820       -1.09823745341238       -0.07686457609761
C           25.54747621846498       -0.86779006188136       -0.20976202213292
C           26.19660171647476        0.31931024910696        0.13636058570742
C           25.48756521730352        1.47355634589221        0.47576170106311
C           26.11085811763452        2.69607482512104        0.87336634517153
C           25.13267696765057        3.63254915648081        0.92056741989418
C           23.91591450649207        2.97915524964668        0.54210616166545
N           24.13750404506789        1.63738273833637        0.33428391086369
C           22.71745539722827        3.63818205687009        0.30772048075533
C           22.68205072119176        5.11560776146693        0.39714421498725
C           21.86748758270330        5.74854847845702        1.25719244645104
C           21.80249373524468        7.24834623582019        1.36420614453152
N           22.92406472409877        7.88276615013353        0.66968067636671
C           23.62139276342566        7.22717578640372       -0.30534241316696
C           23.56572921200713        5.89045295158883       -0.45849781294202
C           21.55392867257982        2.94755348135429       -0.00439713259810
C           20.29897094893191        3.57191349670943       -0.30756860349220
C           19.37193417737706        2.58608770413414       -0.35507890448094
C           20.06326732568571        1.35998203096885       -0.09538365388997
N           21.40891241290401        1.58462437385692        0.05387006617230
H           18.35263235407995        0.12348534488110        0.11163596734334
H           18.43541771565271       -2.41443010076050        0.76763355140882
H           20.37927094493944       -4.28618577180862        0.70337559215660
H           21.46393556430176       -4.82064476742856       -1.66275836287517
H           22.21891965164749       -7.13736178917375       -2.14821502690503
H           21.23480494806457       -7.24579451783115       -0.67771684548299
H           23.30776333186705       -8.40173729749218       -0.31204285187669
H           24.66923269043327       -7.29086858661398        1.17315116872071
H           24.41433229382251       -4.82926439036371        1.47386549115491
H           25.43937420800207       -4.07751750780383       -0.92164957133422
H           27.29107533711525       -2.11690728748723       -0.80300054547806
H           27.16375304453708        2.80822095856595        1.07681807956865
H           25.21693358220130        4.67515980391150        1.18110166373575
H           21.20344313557499        5.20403702068979        1.91828447350576
H           21.83575837976704        7.55476579991852        2.41924789437276
H           20.84677266102222        7.61872998286156        0.94945150061820
H           22.85380350190859        8.88603547227554        0.58844958891708
H           24.27724994759603        7.85710657031438       -0.89768126570795
H           24.15829317645578        5.38666687870092       -1.20876350728163
H           20.15875958332347        4.62991314507348       -0.45985469379531
H           18.31223712056525        2.66284010395621       -0.54085026726752
Co          59.76954561897725        0.13404823516596        0.12037985303737
C           63.13560915589854        0.30893407880632        0.15085400254567
C           62.41738743006701        1.39918624230902        0.59405177189155
C           63.01128477110956        2.59625911255309        1.10695591057857
C           62.00948328443719        3.49594233779837        1.25082183809677
C           60.80661161984914        2.85211221287768        0.80908853853597
N           61.05797526874126        1.54491604812425        0.47655432275836
C           59.59310670299448        3.50012693316099        0.62105218678191
C           59.50625199085204        4.96150530032156        0.84149069315856
C           60.26986850835974        5.82606659265544        0.15370488801125
C           60.20794384875956        7.31481537612656        0.36628348120892
N           59.03120958391465        7.69460046481411        1.14977990510853
C           58.38506992590234        6.79318721721601        1.94772293785878
C           58.55373993738939        5.46350972021862        1.81846691177723
C           58.45290038373141        2.81217961957828        0.23041257464246
C           57.19129733564064        3.43299560961744       -0.04043707977084
C           56.28921506650647        2.43407139215808       -0.19724978083414
N           58.33614196793125        1.44308033192109        0.16595431141321
C           57.00353318074546        1.20801909438789       -0.03016362846347
C           56.38474772014135       -0.03925217261711        0.08392316126427
C           57.12346713615840       -1.21745073876921        0.20766140051059
C           56.53364558108435       -2.50967683671783        0.36043899993348
C           57.53668090489821       -3.41154280221840        0.23041940943807
C           58.73533488328504       -2.66563366686485       -0.01000090079207
N           58.47755036436727       -1.31547912602197        0.04379836218702
C           59.95099551623188       -3.23401306785706       -0.36353448970738
C           60.02706106664021       -4.69885234686463       -0.56441754963582
C           60.86119097277939       -5.46520628183278        0.15721003929272
C           60.96879647071128       -6.95439006200082       -0.03188856956782
N           59.86610858186628       -7.47134772542308       -0.84411039600845
C           59.14804647531639       -6.65655870684761       -1.67310485936485
C           59.16390900242830       -5.31490310922830       -1.55876854713337
C           61.09491626721854       -2.46466281556624       -0.53068314235971
C           62.36615843906531       -2.98285734120525       -0.94568421510313
C           63.26594327989332       -1.98232488669820       -0.79423484099442
C           62.54193144180264       -0.85054964514200       -0.30056315735516
N           61.20303973961977       -1.13649624874043       -0.20490103939617
H           64.21782447915045        0.36530607928816        0.15977405412370
H           64.06233362621985        2.71533647306721        1.31788517048515
H           62.06681380462875        4.50795263006916        1.61795941138857
H           60.98194645521586        5.48996308966666       -0.59090711192954
H           60.15688696296712        7.83386857851006       -0.60122116006457
H           61.12547544085098        7.66560399402507        0.87391290737245
H           59.01526018810986        8.66036618480682        1.44154510470709
H           57.67326748521110        7.22788496462841        2.64212710053853
H           58.00056150085510        4.76567673989953        2.43073454265630
H           57.02746217499912        4.49701591475231       -0.09544862452132
H           55.23219607265477        2.50461960856954       -0.39775665674376
H           55.48403418738296       -2.68634427386635        0.53294915520278
H           57.48073224459633       -4.48671598360770        0.28457689186909
H           61.51147176314326       -5.04260490173049        0.91420939804330
H           60.94408639507241       -7.46286109933752        0.94229713301363
H           61.93482424748792       -7.20922748552166       -0.50561555390630
H           59.96647356877422       -8.43601187407827       -1.12240866355392
H           58.51023136488115       -7.17586002619992       -2.38116007181397
H           58.55556037526157       -4.69023431931782       -2.19715001588032
H           62.53513808388823       -3.98591568576112       -1.30282382665366
H           64.32714223130895       -1.99256382668117       -0.98691784676888
C           27.60003067822526        0.35143917434292        0.14672012427977
C           28.82401747077451        0.37381855548814        0.16232985798719
C           30.16653617075388        0.40063052220439        0.18710819112022
C           31.39671622796033        0.41996043957270        0.21490748985309
C           32.73387257662415        0.44962625622046        0.25601839392939
C           33.96339071360278        0.47792828653681        0.30135016384579
C           35.30381607213910        0.51955633865111        0.36653148717391
C           36.52563175255040        0.56529047943846        0.43614812754993
C           46.06749212110859        0.25618044153921        0.37241714287537
C           47.28429640283909        0.13588129832392        0.30539193888558
C           48.62142246959900        0.02895372232774        0.24468709160594
C           49.84880387389858       -0.04612213700424        0.19488096564493
C           51.18524283510174       -0.09857677326351        0.14925041283593
C           52.41524743163242       -0.12569308335398        0.12038771598537
C           53.75813207758314       -0.12164629070295        0.09500264403956
C           54.98213009977076       -0.10019431696082        0.08544774367592
Co          41.30787988086149        0.71959539895150        0.63185696637506
C           37.92440684558396        0.62999678233900        0.51662753819928
C           38.60176170485582        1.61711861731496       -0.20802989762901
C           37.95223698729838        2.65856934262362       -0.93768380198211
C           38.92512210960420        3.34129932769531       -1.59050101964636
C           40.16177516373114        2.68427957250435       -1.29066769405714
N           39.95430312364375        1.67248046531489       -0.37984248185608
C           41.35405786894895        2.90598042231878       -1.96415842746548
C           41.40322292819974        3.89693092375642       -3.06159966655674
C           40.59985175608528        3.80484987993090       -4.13448173218464
C           40.66942001199367        4.76825153029337       -5.28778934923774
N           41.45841682590918        5.95325215193735       -4.94777643158527
C           42.36199344056023        5.93880162356642       -3.92320828180899
C           42.36301284435915        4.98481571262613       -2.97291318114401
C           42.50416747428687        2.18104638757459       -1.67326700767493
C           43.70447577808250        2.22407543925631       -2.45146424462841
C           44.62389331015452        1.47382091632385       -1.79545415763716
N           42.67389533297509        1.37353031134927       -0.57617216914152
C           43.98733112267492        0.99213888043887       -0.61049249258329
C           44.67603102580289        0.41210523159922        0.45746998053688
C           44.02276118459980        0.05730379007174        1.64282668743633
C           44.69704843764210       -0.34536485860191        2.83518091786033
C           43.73666402879609       -0.70259206895123        3.72345335376875
C           42.47986169991326       -0.55894753279006        3.05210970489730
N           42.66910676623476       -0.01903929173937        1.79957879556995
C           41.27546370022301       -1.06684082692016        3.51803216237875
C           41.23335918160017       -1.79496803545241        4.80525714418469
C           41.99291915143996       -2.87899523000755        5.03419741308650
C           41.96688222370575       -3.62964326926927        6.33828813888183
N           40.81574736578089       -3.24198523717543        7.15489654637792
C           40.17150137318634       -2.05343237347283        6.95962427394098
C           40.31432879129179       -1.33136702251665        5.83197711247411
C           40.10153658387632       -0.95503930123198        2.78156214077120
C           38.87605875087410       -1.61798983008439        3.10925029901052
C           37.94628947881930       -1.18364338428290        2.22338139249635
C           38.60201750315585       -0.24146393928714        1.37232477614832
N           39.93295516608592       -0.15676784906198        1.67747056107095
H           36.88902580471864        2.83785586986622       -0.93396862344056
H           38.82266776806910        4.20405501517496       -2.22840647961821
H           39.90512485749315        2.98208195402679       -4.25656591809417
H           41.10239744011386        4.27028984842198       -6.17505302308539
H           39.65833296273458        5.09790871007570       -5.56564484799483
H           41.65744137499527        6.56257091940180       -5.72708784217242
H           43.02851276340107        6.79474180560310       -3.89304447569225
H           43.04326075551432        5.02874658474617       -2.13438120457068
H           43.81624188463447        2.75615452848660       -3.38248650125543
H           45.64917804880277        1.27574994410787       -2.06391974602820
H           45.76740176016625       -0.34017621252064        2.96517712436642
H           43.86027651372281       -1.04295963735585        4.73863790788377
H           42.67158568266745       -3.26856706908447        4.28457906868349
H           42.90235962432124       -3.44992457715131        6.89957115743917
H           41.90582112459875       -4.71099589341611        6.15185188702030
H           40.82217716546356       -3.61316694736479        8.09307517240462
H           39.48250054190558       -1.77359862593162        7.75011277674837
H           39.76073011689035       -0.41625305461993        5.67737073313234
H           38.75549444434434       -2.32733237609846        3.91201365362172
H           36.90296354654027       -1.44724216639878        2.15628036956718

          :  Hamiltonian                  GFN1-xTB          :
         :: total energy            -324.966957257731 Eh    ::
         :: gradient norm              0.000721995025 Eh/a0 ::
         :: HOMO-LUMO gap              0.000028846097 eV    ::
         :: SCC energy              -330.304995900861 Eh    ::
         :: repulsion energy           5.501986065323 Eh    ::

    * Orbital Energies and Occupations

         #    Occupation            Energy/Eh            Energy/eV
      -------------------------------------------------------------
         1        2.0000           -0.7877087             -21.4346
       ...           ...                  ...                  ...
       290        1.9999           -0.3784357             -10.2978
       291        1.9999           -0.3784043             -10.2969
       292        1.9999           -0.3783717             -10.2960
       293        1.9999           -0.3783412             -10.2952
       294        1.9994           -0.3769510             -10.2574
       295        1.9906           -0.3743786             -10.1874
       296        1.9766           -0.3735071             -10.1636
       297        1.9765           -0.3735024             -10.1635
       298        1.9262           -0.3723865             -10.1332
       299        1.8906           -0.3719910             -10.1224
       300        1.7145           -0.3709651             -10.0945
       301        1.1987           -0.3695758             -10.0567
       302        1.1642           -0.3695032             -10.0547 (HOMO)
       303        1.1637           -0.3695021             -10.0547 (LUMO)
       304                         -0.3308050              -9.0017
       305                         -0.3238117              -8.8114
       306                         -0.3219406              -8.7604
       307                         -0.3181675              -8.6578
       308                         -0.3166272              -8.6159
       309                         -0.3166177              -8.6156
       310                         -0.3024476              -8.2300
       311                         -0.2929028              -7.9703
       312                         -0.2924018              -7.9567
       313                         -0.2841092              -7.7310
       ...                                ...                  ...
       647                          1.6131286              43.8955
      -------------------------------------------------------------
                  HL-Gap            0.0000011 Eh            0.0000 eV

Wiberg/Mayer (AO) data.
largest (>0.10) Wiberg bond orders for each atom

     #   Z sym  total        # sym  WBO       # sym  WBO       # sym  WBO
 ---------------------------------------------------------------------------
     1  27 Co   3.036 --    37 N    0.636     7 N    0.635    18 N    0.632
                            25 N    0.632
     2   6 C    3.934 --    36 C    1.365     3 C    1.365    38 H    0.970
     3   6 C    3.927 --     2 C    1.365     7 N    1.202     4 C    1.175
     4   6 C    3.960 --     5 C    1.648     3 C    1.175    39 H    0.975
     5   6 C    3.964 --     4 C    1.648     6 C    1.176    40 H    0.974
     6   6 C    3.923 --     8 C    1.321     7 N    1.212     5 C    1.176
     7   7 N    3.346 --     6 C    1.212     3 C    1.202     1 Co   0.635
     8   6 C    3.939 --    15 C    1.328     6 C    1.321     9 C    1.029
     9   6 C    3.983 --    10 C    1.751    14 C    1.106     8 C    1.029
    10   6 C    3.947 --     9 C    1.751    11 C    1.015    41 H    0.971
    11   6 C    3.957 --    10 C    1.015    42 H    0.973    43 H    0.964
                            12 N    0.947
    12   7 N    3.244 --    13 C    1.174    11 C    0.947    44 H    0.926
                            14 C    0.120
    13   6 C    3.947 --    14 C    1.672    12 N    1.174    45 H    0.970
    14   6 C    3.943 --    13 C    1.672     9 C    1.106    46 H    0.973
                            12 N    0.120
    15   6 C    3.917 --     8 C    1.328    18 N    1.196    16 C    1.182
    16   6 C    3.960 --    17 C    1.637    15 C    1.182    47 H    0.973
    17   6 C    3.962 --    16 C    1.637    19 C    1.190    48 H    0.974
    18   7 N    3.350 --    19 C    1.228    15 C    1.196     1 Co   0.632
    19   6 C    3.905 --    20 C    1.262    18 N    1.228    17 C    1.190
    20   6 C    3.942 --    21 C    1.263    19 C    1.262   117 C    1.186
    21   6 C    3.905 --    20 C    1.263    25 N    1.228    22 C    1.190
    22   6 C    3.962 --    23 C    1.637    21 C    1.190    49 H    0.974
    23   6 C    3.960 --    22 C    1.637    24 C    1.182    50 H    0.973
    24   6 C    3.917 --    26 C    1.328    25 N    1.197    23 C    1.182
    25   7 N    3.349 --    21 C    1.228    24 C    1.197     1 Co   0.632
    26   6 C    3.939 --    24 C    1.328    33 C    1.321    27 C    1.029
    27   6 C    3.983 --    28 C    1.751    32 C    1.106    26 C    1.029
    28   6 C    3.947 --    27 C    1.751    29 C    1.015    51 H    0.971
    29   6 C    3.957 --    28 C    1.015    52 H    0.973    53 H    0.964
                            30 N    0.947
    30   7 N    3.244 --    31 C    1.174    29 C    0.947    54 H    0.926
                            32 C    0.120
    31   6 C    3.947 --    32 C    1.672    30 N    1.174    55 H    0.970
    32   6 C    3.943 --    31 C    1.672    27 C    1.106    56 H    0.973
                            30 N    0.120
    33   6 C    3.923 --    26 C    1.321    37 N    1.212    34 C    1.176
    34   6 C    3.964 --    35 C    1.648    33 C    1.176    57 H    0.974
    35   6 C    3.960 --    34 C    1.648    36 C    1.175    58 H    0.975
    36   6 C    3.927 --     2 C    1.365    37 N    1.202    35 C    1.175
    37   7 N    3.346 --    33 C    1.212    36 C    1.202     1 Co   0.636
    38   1 H    1.000 --     2 C    0.970
    39   1 H    0.998 --     4 C    0.975
    40   1 H    1.006 --     5 C    0.974
    41   1 H    1.004 --    10 C    0.971
    42   1 H    1.014 --    11 C    0.973
    43   1 H    1.003 --    11 C    0.964
    44   1 H    0.961 --    12 N    0.926
    45   1 H    1.001 --    13 C    0.970
    46   1 H    1.003 --    14 C    0.973
    47   1 H    1.005 --    16 C    0.973
    48   1 H    1.002 --    17 C    0.974
    49   1 H    1.002 --    22 C    0.974
    50   1 H    1.005 --    23 C    0.973
    51   1 H    1.004 --    28 C    0.971
    52   1 H    1.014 --    29 C    0.973
    53   1 H    1.003 --    29 C    0.964
    54   1 H    0.961 --    30 N    0.926
    55   1 H    1.001 --    31 C    0.970
    56   1 H    1.003 --    32 C    0.973
    57   1 H    1.006 --    34 C    0.974
    58   1 H    0.998 --    35 C    0.975
    59  27 Co   3.040 --    95 N    0.636    65 N    0.636    76 N    0.633
                            83 N    0.633
    60   6 C    3.934 --    94 C    1.366    61 C    1.365    96 H    0.970
    61   6 C    3.927 --    60 C    1.365    65 N    1.202    62 C    1.175
    62   6 C    3.960 --    63 C    1.648    61 C    1.175    97 H    0.975
    63   6 C    3.964 --    62 C    1.648    64 C    1.176    98 H    0.974
    64   6 C    3.923 --    66 C    1.322    65 N    1.211    63 C    1.176
    65   7 N    3.346 --    64 C    1.211    61 C    1.202    59 Co   0.636
    66   6 C    3.940 --    73 C    1.327    64 C    1.322    67 C    1.029
    67   6 C    3.983 --    68 C    1.751    72 C    1.106    66 C    1.029
    68   6 C    3.947 --    67 C    1.751    69 C    1.015    99 H    0.971
    69   6 C    3.957 --    68 C    1.015   100 H    0.973   101 H    0.964
                            70 N    0.947
    70   7 N    3.244 --    71 C    1.174    69 C    0.947   102 H    0.926
                            72 C    0.120
    71   6 C    3.947 --    72 C    1.672    70 N    1.174   103 H    0.970
    72   6 C    3.943 --    71 C    1.672    67 C    1.106   104 H    0.973
                            70 N    0.120
    73   6 C    3.917 --    66 C    1.327    76 N    1.196    74 C    1.182
    74   6 C    3.960 --    75 C    1.637    73 C    1.182   105 H    0.973
    75   6 C    3.962 --    74 C    1.637    77 C    1.190   106 H    0.974
    76   7 N    3.350 --    77 C    1.227    73 C    1.196    59 Co   0.633
    77   6 C    3.904 --    78 C    1.262    76 N    1.227    75 C    1.190
    78   6 C    3.943 --    79 C    1.265    77 C    1.262   132 C    1.186
    79   6 C    3.905 --    78 C    1.265    83 N    1.227    80 C    1.189
    80   6 C    3.962 --    81 C    1.637    79 C    1.189   107 H    0.974
    81   6 C    3.960 --    80 C    1.637    82 C    1.182   108 H    0.973
    82   6 C    3.917 --    84 C    1.328    83 N    1.197    81 C    1.182
    83   7 N    3.350 --    79 C    1.227    82 C    1.197    59 Co   0.633
    84   6 C    3.940 --    82 C    1.328    91 C    1.321    85 C    1.029
    85   6 C    3.983 --    86 C    1.751    90 C    1.106    84 C    1.029
    86   6 C    3.946 --    85 C    1.751    87 C    1.015   109 H    0.971
    87   6 C    3.957 --    86 C    1.015   110 H    0.973   111 H    0.964
                            88 N    0.947
    88   7 N    3.244 --    89 C    1.174    87 C    0.947   112 H    0.926
                            90 C    0.120
    89   6 C    3.947 --    90 C    1.672    88 N    1.174   113 H    0.970
    90   6 C    3.943 --    89 C    1.672    85 C    1.106   114 H    0.973
                            88 N    0.120
    91   6 C    3.923 --    84 C    1.321    95 N    1.212    92 C    1.176
    92   6 C    3.964 --    93 C    1.648    91 C    1.176   115 H    0.974
    93   6 C    3.960 --    92 C    1.648    94 C    1.175   116 H    0.975
    94   6 C    3.927 --    60 C    1.366    95 N    1.201    93 C    1.175
    95   7 N    3.346 --    91 C    1.212    94 C    1.201    59 Co   0.636
    96   1 H    1.000 --    60 C    0.970
    97   1 H    0.998 --    62 C    0.975
    98   1 H    1.006 --    63 C    0.974
    99   1 H    1.004 --    68 C    0.971
   100   1 H    1.014 --    69 C    0.973
   101   1 H    1.003 --    69 C    0.964
   102   1 H    0.961 --    70 N    0.926
   103   1 H    1.001 --    71 C    0.970
   104   1 H    1.003 --    72 C    0.973
   105   1 H    1.005 --    74 C    0.973
   106   1 H    1.002 --    75 C    0.974
   107   1 H    1.001 --    80 C    0.974
   108   1 H    1.005 --    81 C    0.973
   109   1 H    1.004 --    86 C    0.971
   110   1 H    1.014 --    87 C    0.973
   111   1 H    1.003 --    87 C    0.964
   112   1 H    0.961 --    88 N    0.926
   113   1 H    1.001 --    89 C    0.970
   114   1 H    1.003 --    90 C    0.973
   115   1 H    1.006 --    92 C    0.974
   116   1 H    0.998 --    93 C    0.975
   117   6 C    3.874 --   118 C    2.443    20 C    1.186   120 C    0.186
   118   6 C    3.937 --   117 C    2.443   119 C    1.342
   119   6 C    3.890 --   120 C    2.337   118 C    1.342   122 C    0.182
   120   6 C    3.925 --   119 C    2.337   121 C    1.368   117 C    0.186
   121   6 C    3.923 --   122 C    2.336   120 C    1.368   124 C    0.186
   122   6 C    3.892 --   121 C    2.336   123 C    1.344   119 C    0.182
   123   6 C    3.932 --   124 C    2.438   122 C    1.344
   124   6 C    3.875 --   123 C    2.438   134 C    1.191   121 C    0.186
   125   6 C    3.875 --   126 C    2.439   152 C    1.191   128 C    0.186
   126   6 C    3.932 --   125 C    2.439   127 C    1.343
   127   6 C    3.892 --   128 C    2.336   126 C    1.343   130 C    0.182
   128   6 C    3.923 --   127 C    2.336   129 C    1.367   125 C    0.186
   129   6 C    3.925 --   130 C    2.338   128 C    1.367   132 C    0.187
   130   6 C    3.890 --   129 C    2.338   131 C    1.342   127 C    0.182
   131   6 C    3.937 --   132 C    2.443   130 C    1.342
   132   6 C    3.874 --   131 C    2.443    78 C    1.186   129 C    0.187
   133  27 Co   3.015 --   169 N    0.629   150 N    0.628   157 N    0.626
                           139 N    0.626
   134   6 C    3.928 --   168 C    1.266   135 C    1.250   124 C    1.191
   135   6 C    3.907 --   134 C    1.250   139 N    1.238   136 C    1.194
   136   6 C    3.961 --   137 C    1.632   135 C    1.194   170 H    0.974
   137   6 C    3.960 --   136 C    1.632   138 C    1.183   171 H    0.973
   138   6 C    3.917 --   140 C    1.331   139 N    1.190   137 C    1.183
   139   7 N    3.341 --   135 C    1.238   138 C    1.190   133 Co   0.626
   140   6 C    3.932 --   138 C    1.331   147 C    1.313   141 C    1.031
   141   6 C    3.983 --   142 C    1.746   146 C    1.107   140 C    1.031
   142   6 C    3.946 --   141 C    1.746   143 C    1.016   172 H    0.971
   143   6 C    3.957 --   142 C    1.016   174 H    0.972   173 H    0.965
                           144 N    0.947
   144   7 N    3.247 --   145 C    1.175   143 C    0.947   175 H    0.925
                           146 C    0.121
   145   6 C    3.947 --   146 C    1.672   144 N    1.175   176 H    0.970
   146   6 C    3.944 --   145 C    1.672   141 C    1.107   177 H    0.973
                           144 N    0.121
   147   6 C    3.913 --   140 C    1.313   150 N    1.205   148 C    1.186
   148   6 C    3.961 --   149 C    1.633   147 C    1.186   178 H    0.973
   149   6 C    3.960 --   148 C    1.633   151 C    1.190   179 H    0.974
   150   7 N    3.341 --   151 C    1.223   147 C    1.205   133 Co   0.628
   151   6 C    3.905 --   152 C    1.265   150 N    1.223   149 C    1.190
   152   6 C    3.928 --   151 C    1.265   153 C    1.251   125 C    1.191
   153   6 C    3.907 --   152 C    1.251   157 N    1.237   154 C    1.194
   154   6 C    3.961 --   155 C    1.632   153 C    1.194   180 H    0.974
   155   6 C    3.960 --   154 C    1.632   156 C    1.183   181 H    0.973
   156   6 C    3.917 --   158 C    1.330   157 N    1.191   155 C    1.183
   157   7 N    3.341 --   153 C    1.237   156 C    1.191   133 Co   0.626
   158   6 C    3.932 --   156 C    1.330   165 C    1.314   159 C    1.032
   159   6 C    3.983 --   160 C    1.747   164 C    1.106   158 C    1.032
   160   6 C    3.945 --   159 C    1.747   161 C    1.015   182 H    0.971
   161   6 C    3.957 --   160 C    1.015   184 H    0.973   183 H    0.964
                           162 N    0.947
   162   7 N    3.246 --   163 C    1.175   161 C    0.947   185 H    0.925
                           164 C    0.121
   163   6 C    3.947 --   164 C    1.672   162 N    1.175   186 H    0.970
   164   6 C    3.944 --   163 C    1.672   159 C    1.106   187 H    0.974
                           162 N    0.121
   165   6 C    3.913 --   158 C    1.314   169 N    1.205   166 C    1.186
   166   6 C    3.961 --   167 C    1.635   165 C    1.186   188 H    0.973
   167   6 C    3.960 --   166 C    1.635   168 C    1.189   189 H    0.974
   168   6 C    3.905 --   134 C    1.266   169 N    1.223   167 C    1.189
   169   7 N    3.341 --   168 C    1.223   165 C    1.205   133 Co   0.629
   170   1 H    1.001 --   136 C    0.974
   171   1 H    1.006 --   137 C    0.973
   172   1 H    1.004 --   142 C    0.971
   173   1 H    1.004 --   143 C    0.965
   174   1 H    1.013 --   143 C    0.972
   175   1 H    0.961 --   144 N    0.925
   176   1 H    1.001 --   145 C    0.970
   177   1 H    1.003 --   146 C    0.973
   178   1 H    1.004 --   148 C    0.973
   179   1 H    1.001 --   149 C    0.974
   180   1 H    1.001 --   154 C    0.974
   181   1 H    1.006 --   155 C    0.973
   182   1 H    1.004 --   160 C    0.971
   183   1 H    1.002 --   161 C    0.964
   184   1 H    1.014 --   161 C    0.973
   185   1 H    0.961 --   162 N    0.925
   186   1 H    1.001 --   163 C    0.970
   187   1 H    1.003 --   164 C    0.974
   188   1 H    1.004 --   166 C    0.973
   189   1 H    1.001 --   167 C    0.974
 ---------------------------------------------------------------------------

           -------------------------------------------------
          | TOTAL ENERGY             -324.966957257731 Eh   |
          | GRADIENT NORM               0.000721995025 Eh/α |
          | HOMO-LUMO GAP               0.000028846097 eV   |
           -------------------------------------------------

 * finished run on 2022/07/30 at 01:32:21.883
