   * xtb version 6.5.1 (b24c23e) compiled by 'conda@728c89f4b128' on 2022-07-12
          program call               : xtb Fe_C2Py_C8_3.xyz --gfn 1 --opt -T 48

   ID    Z sym.   atoms
    1   26 Fe     1, 59, 133
    2    6 C      2-6, 8-13, 15-19, 21-26, 28-33, 35-40, 60-64, 66-71, 73-77,
                  79-84, 86-91, 93-98, 117-132, 134-138, 140-145, 147-151,
                  153-158, 160-165, 167-172
    3    7 N      7, 14, 20, 27, 34, 41, 65, 72, 78, 85, 92, 99, 139, 146,
                  152, 159, 166, 173
    4    1 H      42-58, 100-116, 174-189

          :  Hamiltonian                  GFN1-xTB          :
 * total energy  :  -341.0644238 Eh     change       -0.1283456E-07 Eh
 * total energy  :  -341.4505517 Eh     change       -0.3861279E+00 Eh
 * total energy  :  -341.6130523 Eh     change       -0.1625006E+00 Eh
 * total energy  :  -341.7173734 Eh     change       -0.1043211E+00 Eh
 * total energy  :  -341.8082025 Eh     change       -0.9082911E-01 Eh
 * total energy  :  -341.8730329 Eh     change       -0.6483032E-01 Eh
 * total energy  :  -341.9134256 Eh     change       -0.4039278E-01 Eh
 * total energy  :  -341.9450649 Eh     change       -0.3163926E-01 Eh
 * total energy  :  -341.9670043 Eh     change       -0.2193938E-01 Eh
 * total energy  :  -341.9811469 Eh     change       -0.1414267E-01 Eh
 * total energy  :  -342.0211719 Eh     change       -0.1392149E-03 Eh
 * total energy  :  -342.0209743 Eh     change        0.1976102E-03 Eh
 * total energy  :  -342.0211640 Eh     change       -0.1896418E-03 Eh
 * total energy  :  -342.0211783 Eh     change       -0.1434375E-04 Eh
 * total energy  :  -342.0211900 Eh     change       -0.1170829E-04 Eh
 * total energy  :  -342.0211973 Eh     change       -0.7221434E-05 Eh
 * total energy  :  -342.0211878 Eh     change        0.9439459E-05 Eh
 * total energy  :  -342.0212008 Eh     change       -0.1297061E-04 Eh
 * total energy  :  -342.0212026 Eh     change       -0.1851709E-05 Eh
   *** GEOMETRY OPTIMIZATION CONVERGED AFTER 110 ITERATIONS ***

 final structure:
================
189
 xtb: 6.5.1 (b24c23e)
Fe          27.22984411770318       -0.06707997229135       -0.02036417029543
C           23.82696014538523       -0.03104656571226       -0.12755171935323
C           24.45152852344432        0.81327151066029        0.76615454668774
C           23.74676438047313        1.67311039615473        1.66844368477360
C           24.68625021292709        2.34398981571184        2.37659389397432
C           25.95894225589562        1.89346945280328        1.89975024182862
N           25.80763199522584        0.96024895245693        0.91660455151829
C           27.17590309896673        2.38498762988933        2.37705840953788
C           27.15402533388139        3.37320012568843        3.38494263917290
C           27.13696620323053        4.22310953075102        4.25093788325891
C           27.11902267897920        5.21447817559453        5.25863974303293
C           28.30562014214684        5.77549045931908        5.74514266540724
C           28.23400579728581        6.74344860751442        6.73102856360478
N           27.08490808859290        7.17283280403863        7.24649557364513
C           25.95255255318663        6.64425918906391        6.78952929304344
C           25.91471503677906        5.67194031555643        5.80601774955139
C           28.41207889656131        1.94779432126084        1.90115410759599
C           29.66005468311006        2.45590185247614        2.37905720711106
C           30.63169991422490        1.79416341638471        1.70467888863409
N           28.61231397559384        0.99398644520536        0.93938331458921
C           29.96958893884675        0.88544277998585        0.82220383137114
C           30.65338893697881        0.00832833924530       -0.02491210133461
C           30.00591482751163       -0.89426861925401       -0.87412394058291
C           30.70461390753420       -1.81235548385307       -1.71782990161002
C           29.76083961203751       -2.51694642869640       -2.38854499047548
C           28.49309059500824       -2.02124478486936       -1.95152876378654
N           28.65405082704113       -1.02614096329317       -1.02481298615202
C           27.27631352769986       -2.49355361776067       -2.44366816092206
C           27.29258306071592       -3.51618062490002       -3.41679415295502
C           27.30200775635642       -4.39478449744049       -4.25381720618961
C           27.30858762918933       -5.41933893285662       -5.22798234081633
C           28.50695238122207       -5.98009927900427       -5.68480859795015
C           28.45747510540529       -6.97963886633109       -6.64013211108470
N           27.31922328512572       -7.44019331999224       -7.15270746491489
C           26.17567684501461       -6.91211231555341       -6.72384262256012
C           26.11571037021807       -5.90959127682689       -5.77230071115424
C           26.04037249817283       -1.99932229408256       -2.02082072240308
C           24.78796384969650       -2.46870559152585       -2.53201698417049
C           23.82069010177649       -1.77241154877410       -1.88888221124705
C           24.48816281718174       -0.88491839110305       -0.98499804301823
N           25.84971127974632       -1.02504757300901       -1.08547251773210
H           22.74292026004078       -0.03124433852957       -0.15014417273935
H           22.67254254631667        1.73780498821096        1.73768419457232
H           24.54949115257702        3.08041241954122        3.15222470598274
H           29.26308653296707        5.45458280435407        5.35295292421870
H           29.13858222681179        7.19622675301911        7.12668697724309
H           25.03356557785284        7.01749787650246        7.23221410730355
H           24.96985391460217        5.26840291947675        5.46262446922483
H           29.76289823360699        3.21840927254550        3.13422896616653
H           31.70149393182373        1.89755634314928        1.78849653750263
H           31.77779313138569       -1.89659672447283       -1.77602195149725
H           29.89473644584124       -3.30206182989727       -3.11516903808365
H           29.45634301260591       -5.63443895172635       -5.29405493405587
H           29.37165586812701       -7.43287832402619       -7.01250863584530
H           25.26598900980056       -7.31116690546873       -7.16323310016407
H           25.16239447359960       -5.50752878221224       -5.45122483243471
H           24.68243841341693       -3.23322899404913       -3.28500742724885
H           22.75010413786385       -1.84249113441171       -1.99780448378559
Fe          64.32025802900812       -0.11070966643739       -0.03261836811229
C           67.71936382633643       -0.21842372101525       -0.15883962992048
C           67.02852792321318       -1.37372926497349       -0.45814698518068
C           67.66435096469425       -2.61031562830985       -0.79985152435343
C           66.67340411146510       -3.50751100467524       -1.01721249423524
C           65.43861691578141       -2.81463547694757       -0.80430841044915
N           65.66306952533471       -1.51091132482893       -0.47302496289660
C           64.18665012744512       -3.42382274516300       -0.91637777197183
C           64.13336011025470       -4.78959278739278       -1.26954894620508
C           64.09059367919447       -5.96332765750196       -1.57468874331518
C           64.04112545016568       -7.33052724787503       -1.93109173261417
C           62.81992904358023       -7.99523324260182       -2.09289704674205
C           62.82707506377102       -9.33388576269062       -2.44233792917031
N           63.94499798344959      -10.02955181577507       -2.63412851290560
C           65.10996180506397       -9.40487525469139       -2.48225211867815
C           65.21229822802121       -8.06950168789627       -2.13527041495500
C           62.98872258202172       -2.74725995898073       -0.68713071459838
C           61.70609997271981       -3.37272802764642       -0.77402386833092
C           60.78843452181820       -2.41576219375476       -0.49277338055063
N           62.86211570394895       -1.42345173642441       -0.36080053903128
C           61.51753746897045       -1.21252525034289       -0.24041197174295
C           60.90041579141066        0.00815171901552        0.05251881876326
C           61.61320655276066        1.18729387870697        0.29128871698596
C           60.98171628631496        2.43400191349690        0.59096362985564
C           61.97582360691033        3.33509016265589        0.78267431172920
C           63.20659567502308        2.63106557844154        0.59934077858892
N           62.97322882136992        1.31814357212410        0.28831562637047
C           64.45848035813461        3.23021797761244        0.73749506580170
C           64.51710441534878        4.59897072618972        1.07787073040338
C           64.56951663193347        5.77420971069251        1.37571185490261
C           64.63177472876885        7.14221185905089        1.72682007567602
C           63.46950522402992        7.88205758608287        1.97390754692883
C           63.58577186728819        9.21717478651567        2.31752275240010
N           64.75603959192476        9.84106167192266        2.42567315314573
C           65.86552266631175        9.14484436961039        2.19162106168597
C           65.85863959954440        7.80608560714211        1.84270513785237
C           65.65823332767513        2.53624187871539        0.56418666735796
C           66.94701324316749        3.14120619777218        0.71622701037592
C           67.86164016198856        2.17378881701481        0.46765733459922
C           67.12570243417231        0.98363208579579        0.16425512686616
N           65.77531918717897        1.22055782766712        0.22497040209238
H           68.80273285245825       -0.25725682143008       -0.18105292581324
H           68.73163332607083       -2.75307956109573       -0.85868990397598
H           66.75193423124355       -4.54690866367269       -1.29307753514175
H           61.88592686838278       -7.46640260392413       -1.94628891306887
H           61.89446295521866       -9.87471547455024       -2.57477965802314
H           66.00207351782365      -10.00244261134459       -2.64618757968892
H           66.18185751912884       -7.59976839390576       -2.02197981220174
H           61.54531948447750       -4.41064515148941       -1.01728646811829
H           59.71434572964841       -2.50090834275852       -0.45781024630987
H           59.91548065017597        2.58317577191287        0.64668979707708
H           61.89904378071987        4.38177116802155        1.02935016600717
H           62.49609366338737        7.41290070175889        1.89727099190618
H           62.70091483073101        9.81513952342209        2.51568514294106
H           66.80282710085028        9.68508135973624        2.28861787510952
H           66.78607971418464        7.27653217112399        1.66115034098231
H           67.11080235228115        4.17386711115099        0.97966562585690
H           68.93790050166034        2.23978125675082        0.48297197247746
C           32.05727712503639        0.02517437787303       -0.01257658758112
C           33.28195394591773        0.03905526189834       -0.00020819772379
C           34.62404179422754        0.04215412343078        0.00844979347969
C           35.85509412898544        0.03654414554974        0.01090552616743
C           37.19195335007096        0.01124110142098        0.00050058461105
C           38.42235281728934       -0.02885139089119       -0.01799059886809
C           39.76156410236771       -0.10027021900262       -0.05936029857054
C           40.98239971287409       -0.18771027393934       -0.11306038465880
C           50.57797205545037       -0.14117975677340       -0.03457653292271
C           51.79733185782646       -0.04530289474649        0.04152654670422
C           53.13479907537470        0.03133637426863        0.10283126861419
C           54.36515945241130        0.07442652602011        0.13546374873865
C           55.70131054566642        0.09661691893541        0.15405532262703
C           56.93296390377444        0.09557657220864        0.15243076722340
C           58.27422973447318        0.08094366143125        0.13275297294155
C           59.49866101776752        0.05091326193888        0.10102926984883
Fe          45.78502258838346       -0.58670178215555       -0.37977242585242
C           42.37700333886093       -0.31246753780284       -0.19565442586034
C           43.03803651502494        0.27134288954825       -1.28293699619353
C           42.36089904002011        0.91295570416583       -2.36549189934039
C           43.31302008297424        1.25783670207752       -3.26773863216289
C           44.56713752853140        0.85651792846893       -2.71156483137160
N           44.38565993135639        0.24863012069750       -1.49947483880551
C           45.80031486110334        1.15611810301855       -3.29544438708688
C           45.80950564526373        1.79137922379818       -4.55562490717745
C           45.81812390341628        2.32896066383536       -5.64363711625174
C           45.82759001504857        2.96281133201977       -6.90726443680574
C           47.02922697476388        3.25948837230638       -7.56077745360848
C           46.98382535723561        3.88351192348722       -8.79481030199423
N           45.84660622788346        4.22020498017615       -9.39775554179436
C           44.70005812078610        3.94164194370734       -8.78299848348034
C           44.63579628152618        3.31935443820139       -7.54893675941101
C           47.02194381256253        0.92977220283629       -2.65693957657035
C           48.27269379490412        1.41393903666420       -3.15110032201312
C           49.20902435018683        1.08169798095213       -2.22786756648077
N           47.18950736749828        0.29526557682731       -1.45668200446449
C           48.52797756747415        0.36462369862023       -1.19606082292564
C           49.18683972716947       -0.27787143814207       -0.14094637196704
C           48.52915282545215       -1.14337186100254        0.74181563336366
C           49.20855499306184       -1.96452241067687        1.69376787968552
C           48.26069681814741       -2.72653805561697        2.29409745188370
C           47.00637010265496       -2.33858562845633        1.72885666605952
N           47.18428711088620       -1.37338395535432        0.77539037252567
C           45.77529999357693       -2.81549791657275        2.18440071173761
C           45.76976206002610       -3.81347218849625        3.18226397619797
C           45.76494053352655       -4.67763718727187        4.03435278246332
C           45.75956610019657       -5.67909837238807        5.03215958625545
C           44.55964410927902       -6.18914000682236        5.54141188071232
C           44.60917346716284       -7.16663284035088        6.51933852657961
N           45.74887499109308       -7.65134138125477        7.00557127024430
C           46.89379827259193       -7.17174074444325        6.52662371096983
C           46.95393502492096       -6.19477405263078        5.54875744916999
C           44.55020376984183       -2.29699563814017        1.75716584718621
C           43.29772017318591       -2.63521625110515        2.35703643470357
C           42.35615252316089       -1.87698004127643        1.74223913493433
C           43.03661724777294       -1.10926636665357        0.74721935158299
N           44.37923106463055       -1.35754886870831        0.77802713518267
H           41.29417298115427        1.05791186055771       -2.42234401925349
H           43.19321785325058        1.75479184239846       -4.21693435192969
H           47.97759762913189        3.00269104884792       -7.10463370511809
H           47.90031281194373        4.12540659171851       -9.32503781534096
H           43.79162923108499        4.23066839215142       -9.30347379755952
H           43.68037830965402        3.11093634226078       -7.08298540289411
H           48.40063355488186        1.95002185893550       -4.07768796927149
H           50.26899803701352        1.27767533612485       -2.24182940716038
H           50.27390570653860       -1.95986600842564        1.85857484743085
H           48.38323645213520       -3.47254382089287        3.06269875910579
H           43.60937787177175       -5.82178087492066        5.17328203280954
H           43.69410867389396       -7.58066211952532        6.93278877738096
H           47.80435166092427       -7.58964675448518        6.94611218788180
H           47.90818608344021       -5.83173261928170        5.18669824568003
H           43.17196261614594       -3.35013415592226        3.15413820588288
H           41.29344635247288       -1.84578148005337        1.92065623133086

          :  Hamiltonian                  GFN1-xTB          :
         :: total energy            -342.021202637247 Eh    ::
         :: gradient norm              0.000582890442 Eh/a0 ::
         :: HOMO-LUMO gap              0.084394552170 eV    ::
         :: SCC energy              -348.146886572115 Eh    ::
         :: repulsion energy           6.283673119307 Eh    ::

    * Orbital Energies and Occupations

         #    Occupation            Energy/Eh            Energy/eV
      -------------------------------------------------------------
         1        2.0000           -0.7805526             -21.2399
       ...           ...                  ...                  ...
       306        2.0000           -0.4043563             -11.0031
       307        1.9986           -0.3988833             -10.8542
       308        1.9915           -0.3971316             -10.8065
       309        1.9915           -0.3971307             -10.8065
       310        1.9733           -0.3960405             -10.7768
       311        1.9687           -0.3958859             -10.7726
       312        1.9626           -0.3957122             -10.7679
       313        1.9503           -0.3954365             -10.7604
       314        1.9420           -0.3952860             -10.7563
       315        1.9349           -0.3951737             -10.7532
       316        1.9328           -0.3951427             -10.7524
       317        1.9288           -0.3950853             -10.7508
       318        1.6456           -0.3934096             -10.7052 (HOMO)
       319        0.3014           -0.3903082             -10.6208 (LUMO)
       320        0.2513           -0.3901077             -10.6154
       321        0.2268           -0.3899972             -10.6124
       322                         -0.3505389              -9.5386
       323                         -0.3476767              -9.4608
       324                         -0.3445227              -9.3749
       325                         -0.3443526              -9.3703
       326                         -0.3429728              -9.3328
       327                         -0.3423653              -9.3162
       328                         -0.3287412              -8.9455
       329                         -0.3181420              -8.6571
       ...                                ...                  ...
       671                          1.5927799              43.3417
      -------------------------------------------------------------
                  HL-Gap            0.0031014 Eh            0.0844 eV

Wiberg/Mayer (AO) data.
largest (>0.10) Wiberg bond orders for each atom

     #   Z sym  total        # sym  WBO       # sym  WBO       # sym  WBO
 ---------------------------------------------------------------------------
     1  26 Fe   3.187 --    41 N    0.671     7 N    0.670    20 N    0.666
                            27 N    0.665
     2   6 C    3.938 --    40 C    1.366     3 C    1.365    42 H    0.970
     3   6 C    3.916 --     2 C    1.365     7 N    1.202     4 C    1.174
     4   6 C    3.959 --     5 C    1.645     3 C    1.174    43 H    0.975
     5   6 C    3.961 --     4 C    1.645     6 C    1.182    44 H    0.973
     6   6 C    3.913 --     8 C    1.268     7 N    1.242     5 C    1.182
     7   7 N    3.387 --     6 C    1.242     3 C    1.202     1 Fe   0.670
     8   6 C    3.938 --    17 C    1.280     6 C    1.268     9 C    1.159
     9   6 C    3.957 --    10 C    2.623     8 C    1.159
    10   6 C    3.929 --     9 C    2.623    11 C    1.141
    11   6 C    3.987 --    16 C    1.350    12 C    1.350    10 C    1.141
    12   6 C    3.973 --    13 C    1.457    11 C    1.350    45 H    0.974
                            15 C    0.104
    13   6 C    3.973 --    12 C    1.457    14 N    1.407    46 H    0.972
                            16 C    0.104
    14   7 N    2.994 --    15 C    1.407    13 C    1.407
    15   6 C    3.973 --    16 C    1.456    14 N    1.407    47 H    0.972
                            12 C    0.104
    16   6 C    3.973 --    15 C    1.456    11 C    1.350    48 H    0.974
                            13 C    0.104
    17   6 C    3.906 --     8 C    1.280    20 N    1.221    18 C    1.188
    18   6 C    3.958 --    19 C    1.633    17 C    1.188    49 H    0.973
    19   6 C    3.959 --    18 C    1.633    21 C    1.190    50 H    0.973
    20   7 N    3.387 --    21 C    1.231    17 C    1.221     1 Fe   0.666
    21   6 C    3.896 --    22 C    1.260    20 N    1.231    19 C    1.190
    22   6 C    3.940 --    21 C    1.260    23 C    1.260   117 C    1.189
    23   6 C    3.896 --    22 C    1.260    27 N    1.232    24 C    1.190
    24   6 C    3.959 --    25 C    1.633    23 C    1.190    51 H    0.973
    25   6 C    3.958 --    24 C    1.633    26 C    1.188    52 H    0.973
    26   6 C    3.906 --    28 C    1.280    27 N    1.221    25 C    1.188
    27   7 N    3.387 --    23 C    1.232    26 C    1.221     1 Fe   0.665
    28   6 C    3.938 --    26 C    1.280    37 C    1.268    29 C    1.159
    29   6 C    3.957 --    30 C    2.623    28 C    1.159
    30   6 C    3.929 --    29 C    2.623    31 C    1.141
    31   6 C    3.987 --    32 C    1.351    36 C    1.350    30 C    1.141
    32   6 C    3.973 --    33 C    1.456    31 C    1.351    53 H    0.974
                            35 C    0.104
    33   6 C    3.972 --    32 C    1.456    34 N    1.407    54 H    0.972
                            36 C    0.104
    34   7 N    2.994 --    33 C    1.407    35 C    1.407
    35   6 C    3.973 --    36 C    1.457    34 N    1.407    55 H    0.972
                            32 C    0.104
    36   6 C    3.973 --    35 C    1.457    31 C    1.350    56 H    0.974
                            33 C    0.104
    37   6 C    3.912 --    28 C    1.268    41 N    1.242    38 C    1.182
    38   6 C    3.961 --    39 C    1.645    37 C    1.182    57 H    0.973
    39   6 C    3.959 --    38 C    1.645    40 C    1.174    58 H    0.975
    40   6 C    3.916 --     2 C    1.366    41 N    1.202    39 C    1.174
    41   7 N    3.388 --    37 C    1.242    40 C    1.202     1 Fe   0.671
    42   1 H    1.000 --     2 C    0.970
    43   1 H    0.997 --     4 C    0.975
    44   1 H    1.002 --     5 C    0.973
    45   1 H    1.002 --    12 C    0.974
    46   1 H    1.013 --    13 C    0.972
    47   1 H    1.013 --    15 C    0.972
    48   1 H    1.002 --    16 C    0.974
    49   1 H    1.003 --    18 C    0.973
    50   1 H    1.001 --    19 C    0.973
    51   1 H    1.001 --    24 C    0.973
    52   1 H    1.002 --    25 C    0.973
    53   1 H    1.002 --    32 C    0.974
    54   1 H    1.013 --    33 C    0.972
    55   1 H    1.013 --    35 C    0.972
    56   1 H    1.002 --    36 C    0.974
    57   1 H    1.003 --    38 C    0.973
    58   1 H    0.997 --    39 C    0.975
    59  26 Fe   3.143 --    65 N    0.666    99 N    0.666    85 N    0.661
                            78 N    0.660
    60   6 C    3.932 --    61 C    1.366    98 C    1.365   100 H    0.970
    61   6 C    3.916 --    60 C    1.366    65 N    1.202    62 C    1.174
    62   6 C    3.958 --    63 C    1.645    61 C    1.174   101 H    0.975
    63   6 C    3.961 --    62 C    1.645    64 C    1.182   102 H    0.973
    64   6 C    3.912 --    66 C    1.267    65 N    1.243    63 C    1.182
    65   7 N    3.384 --    64 C    1.243    61 C    1.202    59 Fe   0.666
    66   6 C    3.932 --    75 C    1.281    64 C    1.267    67 C    1.159
    67   6 C    3.956 --    68 C    2.623    66 C    1.159
    68   6 C    3.929 --    67 C    2.623    69 C    1.141
    69   6 C    3.987 --    70 C    1.350    74 C    1.350    68 C    1.141
    70   6 C    3.973 --    71 C    1.457    69 C    1.350   103 H    0.974
                            73 C    0.104
    71   6 C    3.973 --    70 C    1.457    72 N    1.407   104 H    0.972
                            74 C    0.104
    72   7 N    2.994 --    71 C    1.407    73 C    1.407
    73   6 C    3.973 --    74 C    1.457    72 N    1.407   105 H    0.972
                            70 C    0.104
    74   6 C    3.973 --    73 C    1.457    69 C    1.350   106 H    0.974
                            71 C    0.104
    75   6 C    3.906 --    66 C    1.281    78 N    1.220    76 C    1.188
    76   6 C    3.957 --    77 C    1.633    75 C    1.188   107 H    0.973
    77   6 C    3.959 --    76 C    1.633    79 C    1.190   108 H    0.973
    78   7 N    3.383 --    79 C    1.233    75 C    1.220    59 Fe   0.660
    79   6 C    3.895 --    80 C    1.257    78 N    1.233    77 C    1.190
    80   6 C    3.933 --    81 C    1.259    79 C    1.257   132 C    1.193
    81   6 C    3.895 --    80 C    1.259    85 N    1.233    82 C    1.190
    82   6 C    3.959 --    83 C    1.633    81 C    1.190   109 H    0.973
    83   6 C    3.957 --    82 C    1.633    84 C    1.188   110 H    0.973
    84   6 C    3.906 --    86 C    1.280    85 N    1.221    83 C    1.188
    85   7 N    3.384 --    81 C    1.233    84 C    1.221    59 Fe   0.661
    86   6 C    3.932 --    84 C    1.280    95 C    1.267    87 C    1.159
    87   6 C    3.956 --    88 C    2.623    86 C    1.159
    88   6 C    3.929 --    87 C    2.623    89 C    1.141
    89   6 C    3.987 --    90 C    1.350    94 C    1.350    88 C    1.141
    90   6 C    3.973 --    91 C    1.457    89 C    1.350   111 H    0.974
                            93 C    0.104
    91   6 C    3.973 --    90 C    1.457    92 N    1.407   112 H    0.972
                            94 C    0.104
    92   7 N    2.994 --    91 C    1.407    93 C    1.407
    93   6 C    3.973 --    94 C    1.457    92 N    1.407   113 H    0.972
                            90 C    0.104
    94   6 C    3.973 --    93 C    1.457    89 C    1.350   114 H    0.974
                            91 C    0.104
    95   6 C    3.912 --    86 C    1.267    99 N    1.243    96 C    1.182
    96   6 C    3.961 --    97 C    1.645    95 C    1.182   115 H    0.973
    97   6 C    3.958 --    96 C    1.645    98 C    1.174   116 H    0.975
    98   6 C    3.916 --    60 C    1.365    99 N    1.202    97 C    1.174
    99   7 N    3.384 --    95 C    1.243    98 C    1.202    59 Fe   0.666
   100   1 H    1.000 --    60 C    0.970
   101   1 H    0.997 --    62 C    0.975
   102   1 H    1.003 --    63 C    0.973
   103   1 H    1.002 --    70 C    0.974
   104   1 H    1.013 --    71 C    0.972
   105   1 H    1.013 --    73 C    0.972
   106   1 H    1.002 --    74 C    0.974
   107   1 H    1.002 --    76 C    0.973
   108   1 H    1.001 --    77 C    0.973
   109   1 H    1.001 --    82 C    0.973
   110   1 H    1.002 --    83 C    0.973
   111   1 H    1.002 --    90 C    0.974
   112   1 H    1.013 --    91 C    0.972
   113   1 H    1.013 --    93 C    0.972
   114   1 H    1.002 --    94 C    0.974
   115   1 H    1.003 --    96 C    0.973
   116   1 H    0.997 --    97 C    0.975
   117   6 C    3.870 --   118 C    2.434    22 C    1.189   120 C    0.185
   118   6 C    3.930 --   117 C    2.434   119 C    1.346
   119   6 C    3.885 --   120 C    2.329   118 C    1.346   122 C    0.180
   120   6 C    3.920 --   119 C    2.329   121 C    1.372   117 C    0.185
   121   6 C    3.918 --   122 C    2.327   120 C    1.372   124 C    0.184
   122   6 C    3.886 --   121 C    2.327   123 C    1.348   119 C    0.180
   123   6 C    3.926 --   124 C    2.430   122 C    1.348
   124   6 C    3.871 --   123 C    2.430   134 C    1.195   121 C    0.184
   125   6 C    3.870 --   126 C    2.425   154 C    1.198   128 C    0.184
   126   6 C    3.926 --   125 C    2.425   127 C    1.352
   127   6 C    3.885 --   128 C    2.322   126 C    1.352   130 C    0.179
   128   6 C    3.917 --   127 C    2.322   129 C    1.377   125 C    0.184
   129   6 C    3.918 --   130 C    2.323   128 C    1.377   132 C    0.184
   130   6 C    3.884 --   129 C    2.323   131 C    1.350   127 C    0.179
   131   6 C    3.929 --   132 C    2.429   130 C    1.350
   132   6 C    3.868 --   131 C    2.429    80 C    1.193   129 C    0.184
   133  26 Fe   3.136 --   173 N    0.656   152 N    0.655   139 N    0.654
                           159 N    0.654
   134   6 C    3.925 --   172 C    1.257   135 C    1.254   124 C    1.195
   135   6 C    3.897 --   134 C    1.254   139 N    1.236   136 C    1.191
   136   6 C    3.959 --   137 C    1.630   135 C    1.191   174 H    0.973
   137   6 C    3.959 --   136 C    1.630   138 C    1.190   175 H    0.973
   138   6 C    3.904 --   140 C    1.272   139 N    1.223   137 C    1.190
   139   7 N    3.377 --   135 C    1.236   138 C    1.223   133 Fe   0.654
   140   6 C    3.927 --   149 C    1.272   138 C    1.272   141 C    1.161
   141   6 C    3.956 --   142 C    2.621   140 C    1.161
   142   6 C    3.927 --   141 C    2.621   143 C    1.141
   143   6 C    3.987 --   144 C    1.350   148 C    1.350   142 C    1.141
   144   6 C    3.972 --   145 C    1.456   143 C    1.350   176 H    0.974
                           147 C    0.104
   145   6 C    3.972 --   144 C    1.456   146 N    1.408   177 H    0.972
                           148 C    0.104
   146   7 N    2.994 --   145 C    1.408   147 C    1.408
   147   6 C    3.972 --   148 C    1.456   146 N    1.408   178 H    0.972
                           144 C    0.104
   148   6 C    3.972 --   147 C    1.456   143 C    1.350   179 H    0.974
                           145 C    0.104
   149   6 C    3.904 --   140 C    1.272   152 N    1.224   150 C    1.190
   150   6 C    3.959 --   151 C    1.631   149 C    1.190   180 H    0.974
   151   6 C    3.958 --   150 C    1.631   153 C    1.191   181 H    0.973
   152   7 N    3.377 --   153 C    1.235   149 C    1.224   133 Fe   0.655
   153   6 C    3.896 --   154 C    1.255   152 N    1.235   151 C    1.191
   154   6 C    3.924 --   153 C    1.255   155 C    1.253   125 C    1.198
   155   6 C    3.896 --   154 C    1.253   159 N    1.237   156 C    1.191
   156   6 C    3.959 --   157 C    1.630   155 C    1.191   182 H    0.973
   157   6 C    3.959 --   156 C    1.630   158 C    1.190   183 H    0.973
   158   6 C    3.904 --   160 C    1.273   159 N    1.222   157 C    1.190
   159   7 N    3.376 --   155 C    1.237   158 C    1.222   133 Fe   0.654
   160   6 C    3.927 --   158 C    1.273   169 C    1.270   161 C    1.161
   161   6 C    3.956 --   162 C    2.621   160 C    1.161
   162   6 C    3.927 --   161 C    2.621   163 C    1.141
   163   6 C    3.987 --   164 C    1.350   168 C    1.350   162 C    1.141
   164   6 C    3.972 --   165 C    1.456   163 C    1.350   184 H    0.974
                           167 C    0.104
   165   6 C    3.972 --   164 C    1.456   166 N    1.408   185 H    0.972
                           168 C    0.104
   166   7 N    2.994 --   167 C    1.408   165 C    1.408
   167   6 C    3.972 --   168 C    1.456   166 N    1.408   186 H    0.972
                           164 C    0.104
   168   6 C    3.972 --   167 C    1.456   163 C    1.350   187 H    0.974
                           165 C    0.104
   169   6 C    3.904 --   160 C    1.270   173 N    1.225   170 C    1.190
   170   6 C    3.959 --   171 C    1.630   169 C    1.190   188 H    0.974
   171   6 C    3.959 --   170 C    1.630   172 C    1.191   189 H    0.973
   172   6 C    3.897 --   134 C    1.257   173 N    1.233   171 C    1.191
   173   7 N    3.377 --   172 C    1.233   169 C    1.225   133 Fe   0.656
   174   1 H    1.001 --   136 C    0.973
   175   1 H    1.002 --   137 C    0.973
   176   1 H    1.002 --   144 C    0.974
   177   1 H    1.013 --   145 C    0.972
   178   1 H    1.013 --   147 C    0.972
   179   1 H    1.002 --   148 C    0.974
   180   1 H    1.002 --   150 C    0.974
   181   1 H    1.001 --   151 C    0.973
   182   1 H    1.001 --   156 C    0.973
   183   1 H    1.002 --   157 C    0.973
   184   1 H    1.002 --   164 C    0.974
   185   1 H    1.013 --   165 C    0.972
   186   1 H    1.013 --   167 C    0.972
   187   1 H    1.002 --   168 C    0.974
   188   1 H    1.002 --   170 C    0.974
   189   1 H    1.001 --   171 C    0.973
 ---------------------------------------------------------------------------

           -------------------------------------------------
          | TOTAL ENERGY             -342.021202637247 Eh   |
          | GRADIENT NORM               0.000582890442 Eh/α |
          | HOMO-LUMO GAP               0.084394552170 eV   |
           -------------------------------------------------

 * finished run on 2022/07/29 at 18:36:14.065
