   * xtb version 6.5.1 (b24c23e) compiled by 'conda@728c89f4b128' on 2022-07-12
          program call               : xtb Cu_PhNO2_C2_2.xyz --gfn 1 --opt -T 48

   ID    Z sym.   atoms
    1   29 Cu     1, 61
    2    6 C      2-6, 8-12, 16-20, 22-27, 29-33, 37-42, 62-66, 68-72, 76-80,
                  82-87, 89-93, 97-102, 121, 122
    3    7 N      7, 13, 21, 28, 34, 43, 67, 73, 81, 88, 94, 103
    4    8 O      14, 15, 35, 36, 74, 75, 95, 96
    5    1 H      44-60, 104-120
########################################################################
[WARNING] Please study the warnings concerning your input carefully
-1- prog_main_parseArguments: Unknown option '-T' provided
########################################################################

          :  Hamiltonian                  GFN1-xTB          :
 * total energy  :  -241.9531391 Eh     change       -0.1714284E-08 Eh
 * total energy  :  -242.1440270 Eh     change       -0.1908879E+00 Eh
 * total energy  :  -242.2330960 Eh     change       -0.8906899E-01 Eh
 * total energy  :  -242.2503525 Eh     change       -0.1725648E-01 Eh
 * total energy  :  -242.2581647 Eh     change       -0.7812211E-02 Eh
 * total energy  :  -242.2603463 Eh     change       -0.2181561E-02 Eh
 * total energy  :  -242.2635508 Eh     change       -0.3204531E-02 Eh
 * total energy  :  -242.2651021 Eh     change       -0.1551265E-02 Eh
 * total energy  :  -242.2667188 Eh     change       -0.1616741E-02 Eh
 * total energy  :  -242.2675132 Eh     change       -0.7943861E-03 Eh
 * total energy  :  -242.2697985 Eh     change       -0.1025452E-04 Eh
 * total energy  :  -242.2698188 Eh     change       -0.2036514E-04 Eh
 * total energy  :  -242.2698337 Eh     change       -0.1485316E-04 Eh
 * total energy  :  -242.2698563 Eh     change       -0.2257741E-04 Eh
 * total energy  :  -242.2698729 Eh     change       -0.1659301E-04 Eh
 * total energy  :  -242.2698764 Eh     change       -0.3567448E-05 Eh
 * total energy  :  -242.2698880 Eh     change       -0.1156640E-04 Eh
 * total energy  :  -242.2698954 Eh     change       -0.7441800E-05 Eh
 * total energy  :  -242.2698998 Eh     change       -0.4351339E-05 Eh
   *** GEOMETRY OPTIMIZATION CONVERGED AFTER 36 ITERATIONS ***

 final structure:
================
122
 xtb: 6.5.1 (b24c23e)
Cu          17.20840719839581       -0.06488371129745       -0.01767959140527
C           13.80335698391871       -0.07241818509606       -0.16104749052435
C           14.43799848397620       -1.29618798152177       -0.31020839222194
C           13.76335711044537       -2.55404859559456       -0.46028751650731
C           14.72234382123511       -3.50267737962444       -0.59487631814740
C           15.99256083990005       -2.82905247266141       -0.54568369893352
N           15.78887865504811       -1.49361407211889       -0.35558295695009
C           17.24020362269686       -3.44537057866639       -0.67513185652925
C           17.25672949164167       -4.90196019352458       -0.94411548894184
C           17.88957347796632       -5.77552835064939       -0.05391520874947
C           17.89663396734153       -7.13801961876199       -0.28996601997775
C           17.26979942186851       -7.63270299491314       -1.43017331248832
N           17.27104364459704       -9.06285252061296       -1.68147881371303
O           16.70891432293821       -9.45538907807859       -2.67170928072495
O           17.83029128747881       -9.76897468608994       -0.88217287434281
C           16.64025735570858       -6.78024850571793       -2.33279078682915
C           16.63505314764114       -5.41984918763006       -2.08477898749829
C           18.47352292923215       -2.79528497736586       -0.57367190413374
C           19.74643061970772       -3.40932856764015       -0.82394658225522
C           20.69162706711515       -2.45642983964026       -0.62472349265663
N           18.66372002506931       -1.48049170394885       -0.24363491308624
C           20.00765971121744       -1.25619365771438       -0.24943274618079
C           20.64429597872186       -0.05028825907018        0.09552560470609
C           19.97462529039131        1.14561994204980        0.41263904844779
C           20.62107245424929        2.34628522860038        0.84796559163664
C           19.65617545191452        3.28913577517343        0.99371344765475
C           18.40927865395829        2.66898057386493        0.64679953291081
N           18.63233060984573        1.35863907486590        0.31925079715081
C           17.16837170793216        3.31207560311984        0.65578797326747
C           17.15785402746846        4.76771449489758        0.93069426277399
C           16.45311266495671        5.27937965750856        2.02471566680381
C           16.43899630624272        6.63869684620203        2.27886917426996
C           17.13086563372006        7.49600924320179        1.42796645643682
N           17.11340583627869        8.92491677114053        1.68598649053983
O           16.49594467354424        9.31071963462714        2.64532677196586
O           17.71751591580207        9.63627359982054        0.92490616202548
C           17.83824931302027        7.00755872411151        0.33305931999214
C           17.85120390849971        5.64609443414946        0.09177865433518
C           15.93868179883695        2.69141559031392        0.42088645786945
C           14.66596339145266        3.35963111779031        0.36627882542102
C           13.72642575729381        2.40818407760797        0.14313095287701
C           14.41709891337730        1.15384826104911        0.04466618578263
N           15.75812556448498        1.35629182538940        0.20672828304331
H           12.71937769093284       -0.07490925209436       -0.20826511252256
H           12.69255613527080       -2.68185442214824       -0.45024800805802
H           14.58775917213405       -4.56655413088303       -0.70526384568189
H           18.36195294915279       -5.37953354434546        0.83751389646172
H           18.37722777878042       -7.82277216689811        0.39838969411907
H           16.16462389151171       -7.18973588657196       -3.21579129413524
H           16.15948824368548       -4.74504378581169       -2.78691918556365
H           19.89419275816956       -4.43109245125561       -1.13391835151102
H           21.75919578980745       -2.54949432163827       -0.73372548731227
H           21.67736871377979        2.44475233870726        1.03472048205627
H           19.77297261737371        4.30773201083904        1.32647431687999
H           15.92817477544978        4.60081783185419        2.68693143716508
H           15.90054041128777        7.04368459628938        3.12723104427969
H           18.36578549158038        7.69603158299325       -0.31608723927974
H           18.38800128805503        5.25429868984535       -0.76437300706543
H           14.51815081030934        4.42219324472290        0.47266016026022
H           12.65987992385183        2.53166753514785        0.04172944606212
Cu          28.11969043550897        0.06675645674377        0.00807139185540
C           31.52474018942247        0.12753852469327       -0.12213219679534
C           30.89008602048029        1.31793768387542        0.19847815636942
C           31.56471764941576        2.54029676929211        0.53101402495359
C           30.60572479160095        3.47017527366520        0.76193492518211
C           29.33551383566703        2.82725041936920        0.55492563741111
N           29.53920158214688        1.51796049626584        0.23043171392842
C           28.08787346143230        3.44714953665464        0.66598275242059
C           28.07134860607996        4.89832332278627        0.96278756256603
C           27.43847757840717        5.37437181180642        2.11557363465417
C           27.43145649426534        6.72596860795024        2.40764163076247
C           28.05833618504675        7.61208327137023        1.53613431577309
N           28.05710982757805        9.03209778838457        1.83943759842920
O           28.61903954100785        9.76729896707267        1.06847171921137
O           27.49782575116821        9.38705497560361        2.84512343905720
C           28.68788007215313        7.16026409802232        0.37973696788688
C           28.69307421451149        5.80612726962188        0.09956172042275
C           26.85456167074415        2.80644324265717        0.51626281518091
C           25.58165270749952        3.46952355712177        0.51445852325120
C           24.63646175413386        2.51144002996201        0.34185432004412
N           26.66437691424447        1.46381978420236        0.32924789175153
C           25.32043910853456        1.25805568129124        0.23975301313502
C           24.68380654555135        0.01078503731960        0.10739626279143
C           25.35349145005886       -1.21676873550410       -0.04703610944401
C           24.70705166920448       -2.49306511351525       -0.09367908179860
C           25.67195276504541       -3.42177162330441       -0.31209668973336
C           26.91884562527851       -2.71677653470671       -0.40116722797170
N           26.69579187472069       -1.37922215391608       -0.21346695832351
C           28.15974987419788       -3.31631555664239       -0.63398734317003
C           28.17028167045538       -4.76883138303337       -0.92494138949350
C           28.87502264528466       -5.65336949139723       -0.10258040185977
C           28.88912808789524       -7.00881478127086       -0.37663326956632
C           28.19719486145100       -7.48454866740577       -1.48685968680650
N           28.21434553101886       -8.90600559449797       -1.78320492255059
O           28.83237120549280       -9.62326275429195       -1.03892650210848
O           27.61078542921960       -9.28001268735694       -2.75589355945135
C           27.48987477317752       -6.62118708516175       -2.31879180007411
C           27.47693268489394       -5.26857750390418       -2.03200140094925
C           29.38942780656673       -2.65284210225283       -0.61903378183263
C           30.66214570713151       -3.25182111683675       -0.92021649649086
C           31.60167641931959       -2.28611331788898       -0.77032805586125
C           30.91099604580943       -1.08638363190418       -0.39126135948240
N           29.56996976342730       -1.33482739187721       -0.31692726154492
H           32.60871825253427        0.14755244617018       -0.16497271586659
H           32.63551664388309        2.65501790192828        0.58826487654981
H           30.74030338486771        4.49781848479237        1.05853401933977
H           26.96603219036933        4.67302277395721        2.79344296941562
H           26.95080682111153        7.10265420183359        3.30250187934655
H           29.16356876359660        7.87096345219974       -0.28526451916291
H           29.16867626542316        5.44382953570846       -0.80435710382324
H           25.43388853755465        4.53296722397331        0.61021094672054
H           23.56889213259554        2.63857728924390        0.27568877306696
H           23.65075552842655       -2.65437196385591        0.04252479658505
H           25.55516359162027       -4.49082458428722       -0.38555387542407
H           29.39995068080509       -5.27260871287644        0.76575580278580
H           29.42755543540412       -7.70235424141215        0.25801033113227
H           26.96231832699491       -7.01603863768558       -3.17870697606239
H           26.94013437873732       -4.58435068305303       -2.67878845619461
H           30.80996199426879       -4.27674774898294       -1.22001508555919
H           32.66822292909382       -2.36255533645797       -0.91063132646193
C           22.05538985590224       -0.03508966391763        0.11747131024618
C           23.27271298234662       -0.01153134230329        0.12204645828294

          :  Hamiltonian                  GFN1-xTB          :
         :: total energy            -242.269899787289 Eh    ::
         :: gradient norm              0.000756937519 Eh/a0 ::
         :: HOMO-LUMO gap              0.007350405228 eV    ::
         :: SCC energy              -245.459205593390 Eh    ::
         :: repulsion energy           3.301609399651 Eh    ::

    * Orbital Energies and Occupations

         #    Occupation            Energy/Eh            Energy/eV
      -------------------------------------------------------------
         1        2.0000           -0.9227330             -25.1088
       ...           ...                  ...                  ...
       202        2.0000           -0.4354145             -11.8482
       203        2.0000           -0.4353824             -11.8474
       204        2.0000           -0.4322913             -11.7632
       205        2.0000           -0.4322854             -11.7631
       206        2.0000           -0.4322637             -11.7625
       207        2.0000           -0.4321912             -11.7605
       208        2.0000           -0.4321561             -11.7596
       209        2.0000           -0.4321527             -11.7595
       210        2.0000           -0.4217049             -11.4752
       211        2.0000           -0.4206976             -11.4478
       212        2.0000           -0.4206828             -11.4474
       213        2.0000           -0.4071426             -11.0789
       214        1.0710           -0.3799450             -10.3388 (HOMO)
       215        0.9290           -0.3796749             -10.3315 (LUMO)
       216                         -0.3635155              -9.8918
       217                         -0.3594620              -9.7815
       218                         -0.3594604              -9.7814
       219                         -0.3496966              -9.5157
       220                         -0.3496477              -9.5144
       221                         -0.3454322              -9.3997
       222                         -0.3430533              -9.3350
       223                         -0.3430451              -9.3347
       224                         -0.3193980              -8.6913
       225                         -0.3106895              -8.4543
       ...                                ...                  ...
       430                          1.3101306              35.6505
      -------------------------------------------------------------
                  HL-Gap            0.0002701 Eh            0.0074 eV

Wiberg/Mayer (AO) data.
largest (>0.10) Wiberg bond orders for each atom

     #   Z sym  total        # sym  WBO       # sym  WBO       # sym  WBO
 ---------------------------------------------------------------------------
     1  29 Cu   2.176 --     7 N    0.502    43 N    0.502    28 N    0.499
                            21 N    0.499
     2   6 C    3.930 --     3 C    1.362    42 C    1.362    44 H    0.971
     3   6 C    3.914 --     2 C    1.362     7 N    1.229     4 C    1.168
     4   6 C    3.955 --     5 C    1.659     3 C    1.168    45 H    0.975
     5   6 C    3.958 --     4 C    1.659     6 C    1.169    46 H    0.973
     6   6 C    3.914 --     8 C    1.317     7 N    1.242     5 C    1.169
     7   7 N    3.242 --     6 C    1.242     3 C    1.229     1 Cu   0.502
     8   6 C    3.931 --    18 C    1.319     6 C    1.317     9 C    1.036
     9   6 C    3.984 --    10 C    1.382    17 C    1.382     8 C    1.036
    10   6 C    3.986 --    11 C    1.464     9 C    1.382    47 H    0.971
                            16 C    0.101
    11   6 C    3.987 --    10 C    1.464    12 C    1.386    48 H    0.965
                            17 C    0.101
    12   6 C    3.940 --    16 C    1.387    11 C    1.386    13 N    0.921
    13   7 N    3.865 --    15 O    1.454    14 O    1.454    12 C    0.921
    14   8 O    1.828 --    13 N    1.454    15 O    0.251
    15   8 O    1.829 --    13 N    1.454    14 O    0.251
    16   6 C    3.987 --    17 C    1.464    12 C    1.387    49 H    0.965
                            10 C    0.101
    17   6 C    3.986 --    16 C    1.464     9 C    1.382    50 H    0.971
                            11 C    0.101
    18   6 C    3.908 --     8 C    1.319    21 N    1.228    19 C    1.179
    19   6 C    3.954 --    20 C    1.641    18 C    1.179    51 H    0.973
    20   6 C    3.957 --    19 C    1.641    22 C    1.187    52 H    0.967
    21   7 N    3.245 --    22 C    1.253    18 C    1.228     1 Cu   0.499
    22   6 C    3.900 --    23 C    1.264    21 N    1.253    20 C    1.187
    23   6 C    3.939 --    22 C    1.264    24 C    1.263   121 C    1.177
    24   6 C    3.900 --    23 C    1.263    28 N    1.254    25 C    1.187
    25   6 C    3.957 --    26 C    1.641    24 C    1.187    53 H    0.967
    26   6 C    3.954 --    25 C    1.641    27 C    1.179    54 H    0.973
    27   6 C    3.908 --    29 C    1.319    28 N    1.227    26 C    1.179
    28   7 N    3.245 --    24 C    1.254    27 C    1.227     1 Cu   0.499
    29   6 C    3.931 --    27 C    1.319    39 C    1.317    30 C    1.036
    30   6 C    3.984 --    31 C    1.383    38 C    1.382    29 C    1.036
    31   6 C    3.986 --    32 C    1.464    30 C    1.383    55 H    0.971
                            37 C    0.101
    32   6 C    3.987 --    31 C    1.464    33 C    1.387    56 H    0.965
                            38 C    0.101
    33   6 C    3.940 --    32 C    1.387    37 C    1.386    34 N    0.921
    34   7 N    3.865 --    36 O    1.454    35 O    1.454    33 C    0.921
    35   8 O    1.828 --    34 N    1.454    36 O    0.252
    36   8 O    1.829 --    34 N    1.454    35 O    0.252
    37   6 C    3.987 --    38 C    1.465    33 C    1.386    57 H    0.965
                            31 C    0.101
    38   6 C    3.986 --    37 C    1.465    30 C    1.382    58 H    0.971
                            32 C    0.101
    39   6 C    3.914 --    29 C    1.317    43 N    1.242    40 C    1.169
    40   6 C    3.958 --    41 C    1.659    39 C    1.169    59 H    0.973
    41   6 C    3.955 --    40 C    1.659    42 C    1.168    60 H    0.975
    42   6 C    3.914 --     2 C    1.362    43 N    1.229    41 C    1.168
    43   7 N    3.242 --    39 C    1.242    42 C    1.229     1 Cu   0.502
    44   1 H    1.001 --     2 C    0.971
    45   1 H    0.997 --     4 C    0.975
    46   1 H    1.003 --     5 C    0.973
    47   1 H    1.004 --    10 C    0.971
    48   1 H    1.006 --    11 C    0.965
    49   1 H    1.006 --    16 C    0.965
    50   1 H    1.004 --    17 C    0.971
    51   1 H    1.003 --    19 C    0.973
    52   1 H    1.006 --    20 C    0.967
    53   1 H    1.006 --    25 C    0.967
    54   1 H    1.003 --    26 C    0.973
    55   1 H    1.004 --    31 C    0.971
    56   1 H    1.006 --    32 C    0.965
    57   1 H    1.006 --    37 C    0.965
    58   1 H    1.004 --    38 C    0.971
    59   1 H    1.003 --    40 C    0.973
    60   1 H    0.997 --    41 C    0.975
    61  29 Cu   2.175 --    67 N    0.502   103 N    0.502    88 N    0.499
                            81 N    0.499
    62   6 C    3.930 --    63 C    1.362   102 C    1.362   104 H    0.971
    63   6 C    3.914 --    62 C    1.362    67 N    1.229    64 C    1.168
    64   6 C    3.955 --    65 C    1.659    63 C    1.168   105 H    0.975
    65   6 C    3.958 --    64 C    1.659    66 C    1.169   106 H    0.973
    66   6 C    3.914 --    68 C    1.317    67 N    1.242    65 C    1.169
    67   7 N    3.242 --    66 C    1.242    63 C    1.229    61 Cu   0.502
    68   6 C    3.931 --    78 C    1.319    66 C    1.317    69 C    1.036
    69   6 C    3.984 --    70 C    1.382    77 C    1.382    68 C    1.036
    70   6 C    3.986 --    71 C    1.464    69 C    1.382   107 H    0.971
                            76 C    0.101
    71   6 C    3.987 --    70 C    1.464    72 C    1.386   108 H    0.965
                            77 C    0.101
    72   6 C    3.940 --    76 C    1.387    71 C    1.386    73 N    0.921
    73   7 N    3.865 --    75 O    1.454    74 O    1.454    72 C    0.921
    74   8 O    1.828 --    73 N    1.454    75 O    0.251
    75   8 O    1.829 --    73 N    1.454    74 O    0.251
    76   6 C    3.987 --    77 C    1.464    72 C    1.387   109 H    0.965
                            70 C    0.101
    77   6 C    3.986 --    76 C    1.464    69 C    1.382   110 H    0.971
                            71 C    0.101
    78   6 C    3.908 --    68 C    1.319    81 N    1.228    79 C    1.179
    79   6 C    3.954 --    80 C    1.641    78 C    1.179   111 H    0.973
    80   6 C    3.957 --    79 C    1.641    82 C    1.187   112 H    0.967
    81   7 N    3.245 --    82 C    1.253    78 C    1.228    61 Cu   0.499
    82   6 C    3.900 --    83 C    1.264    81 N    1.253    80 C    1.187
    83   6 C    3.939 --    82 C    1.264    84 C    1.263   122 C    1.177
    84   6 C    3.900 --    83 C    1.263    88 N    1.254    85 C    1.187
    85   6 C    3.957 --    86 C    1.641    84 C    1.187   113 H    0.967
    86   6 C    3.954 --    85 C    1.641    87 C    1.179   114 H    0.973
    87   6 C    3.908 --    89 C    1.319    88 N    1.227    86 C    1.179
    88   7 N    3.245 --    84 C    1.254    87 C    1.227    61 Cu   0.499
    89   6 C    3.931 --    87 C    1.319    99 C    1.317    90 C    1.036
    90   6 C    3.984 --    91 C    1.383    98 C    1.382    89 C    1.036
    91   6 C    3.986 --    92 C    1.464    90 C    1.383   115 H    0.971
                            97 C    0.101
    92   6 C    3.987 --    91 C    1.464    93 C    1.387   116 H    0.965
                            98 C    0.101
    93   6 C    3.940 --    92 C    1.387    97 C    1.386    94 N    0.921
    94   7 N    3.865 --    96 O    1.454    95 O    1.454    93 C    0.921
    95   8 O    1.828 --    94 N    1.454    96 O    0.252
    96   8 O    1.829 --    94 N    1.454    95 O    0.252
    97   6 C    3.987 --    98 C    1.465    93 C    1.386   117 H    0.965
                            91 C    0.101
    98   6 C    3.986 --    97 C    1.465    90 C    1.382   118 H    0.971
                            92 C    0.101
    99   6 C    3.914 --    89 C    1.317   103 N    1.242   100 C    1.169
   100   6 C    3.958 --   101 C    1.659    99 C    1.169   119 H    0.973
   101   6 C    3.955 --   100 C    1.659   102 C    1.168   120 H    0.975
   102   6 C    3.914 --    62 C    1.362   103 N    1.229   101 C    1.168
   103   7 N    3.242 --    99 C    1.242   102 C    1.229    61 Cu   0.502
   104   1 H    1.001 --    62 C    0.971
   105   1 H    0.997 --    64 C    0.975
   106   1 H    1.003 --    65 C    0.973
   107   1 H    1.004 --    70 C    0.971
   108   1 H    1.006 --    71 C    0.965
   109   1 H    1.006 --    76 C    0.965
   110   1 H    1.004 --    77 C    0.971
   111   1 H    1.003 --    79 C    0.973
   112   1 H    1.006 --    80 C    0.967
   113   1 H    1.006 --    85 C    0.967
   114   1 H    1.003 --    86 C    0.973
   115   1 H    1.004 --    91 C    0.971
   116   1 H    1.006 --    92 C    0.965
   117   1 H    1.006 --    97 C    0.965
   118   1 H    1.004 --    98 C    0.971
   119   1 H    1.003 --   100 C    0.973
   120   1 H    0.997 --   101 C    0.975
   121   6 C    3.936 --   122 C    2.582    23 C    1.177
   122   6 C    3.936 --   121 C    2.582    83 C    1.177
 ---------------------------------------------------------------------------

           -------------------------------------------------
          | TOTAL ENERGY             -242.269899787289 Eh   |
          | GRADIENT NORM               0.000756937519 Eh/α |
          | HOMO-LUMO GAP               0.007350405228 eV   |
           -------------------------------------------------

 * finished run on 2022/07/30 at 07:56:19.420
