   * xtb version 6.5.1 (b24c23e) compiled by 'conda@728c89f4b128' on 2022-07-12
          program call               : xtb Fe_PhNH2_C4_3.xyz --gfn 1 --opt -T 48

   ID    Z sym.   atoms
    1   26 Fe     1, 61, 129
    2    6 C      2-6, 8-12, 14-18, 20-25, 27-31, 33-38, 62-66, 68-72, 74-78,
                  80-85, 87-91, 93-98, 121-128, 130-134, 136-140, 142-146,
                  148-153, 155-159, 161-166
    3    7 N      7, 13, 19, 26, 32, 39, 67, 73, 79, 86, 92, 99, 135, 141,
                  147, 154, 160, 167
    4    1 H      40-60, 100-120, 168-187
########################################################################
[WARNING] Please study the warnings concerning your input carefully
-1- prog_main_parseArguments: Unknown option '-T' provided
########################################################################

          :  Hamiltonian                  GFN1-xTB          :
 * total energy  :  -317.8173212 Eh     change       -0.2480482E-07 Eh
 * total energy  :  -319.1508807 Eh     change       -0.1333560E+01 Eh
 * total energy  :  -319.3838724 Eh     change       -0.2329917E+00 Eh
 * total energy  :  -319.5145275 Eh     change       -0.1306551E+00 Eh
 * total energy  :  -319.5843022 Eh     change       -0.6977475E-01 Eh
 * total energy  :  -319.6179638 Eh     change       -0.3366156E-01 Eh
 * total energy  :  -319.6385508 Eh     change       -0.2058698E-01 Eh
 * total energy  :  -319.6490517 Eh     change       -0.1050095E-01 Eh
 * total energy  :  -319.6563601 Eh     change       -0.7308411E-02 Eh
 * total energy  :  -319.6612666 Eh     change       -0.4906435E-02 Eh
 * total energy  :  -319.6810790 Eh     change       -0.1296927E-04 Eh
 * total energy  :  -319.6810878 Eh     change       -0.8722839E-05 Eh
 * total energy  :  -319.6811071 Eh     change       -0.1935569E-04 Eh
 * total energy  :  -319.6811241 Eh     change       -0.1694301E-04 Eh
 * total energy  :  -319.6811395 Eh     change       -0.1539648E-04 Eh
 * total energy  :  -319.6811472 Eh     change       -0.7699449E-05 Eh
 * total energy  :  -319.6811558 Eh     change       -0.8625679E-05 Eh
 * total energy  :  -319.6811618 Eh     change       -0.6005206E-05 Eh
 * total energy  :  -319.6811661 Eh     change       -0.4277601E-05 Eh
   *** GEOMETRY OPTIMIZATION CONVERGED AFTER 47 ITERATIONS ***

 final structure:
================
187
 xtb: 6.5.1 (b24c23e)
Fe          31.69993785533426        0.02727086010741        0.02440319291810
C           28.31608917618015        0.11378642924579        0.12214562092976
C           28.96811660109443        1.13307144198092       -0.54146545772403
C           28.29576706639801        2.19961492141204       -1.21906752320841
C           29.25640323008077        3.05289221892955       -1.64757494702148
C           30.51338622119711        2.51305614101075       -1.21655757068458
N           30.32582792425204        1.31574895104173       -0.58175617092465
C           31.73584706205628        3.16096012367955       -1.37660758412356
C           31.75046670677178        4.51454146274137       -1.97332838266919
C           32.47562873704856        4.77184254670140       -3.13982120225634
C           32.49169690899527        6.03619432278644       -3.70062448232300
C           31.79367854716494        7.08251785914584       -3.09150913222379
N           31.77859745589089        8.33999116269805       -3.66816955099935
C           31.06301847655721        6.83274106298221       -1.92663160453412
C           31.04163214514813        5.56249181576965       -1.37969962799726
C           32.94146455450419        2.58970811451202       -0.99049114620981
C           34.20767157790016        3.25422566487079       -1.07777817053635
C           35.14925395114396        2.35314358090710       -0.70572966711994
N           33.10895244882292        1.30849656769399       -0.52131266039711
C           34.45477411944009        1.14704182233042       -0.38193553446671
C           35.10558063023593       -0.04756304237602       -0.04574278067919
C           34.41774930829055       -1.21597345527204        0.30782449256442
C           35.07174161147407       -2.45365415946612        0.59378742833388
C           34.10655646150895       -3.31965659286335        0.98818699178461
C           32.86758167071584       -2.60089015192574        0.95677273318134
N           33.07204515476389       -1.32274292797388        0.49329396706629
C           31.65569459251260       -3.12088527143169        1.39259100983545
C           31.63319169433683       -4.48026039927081        1.97557447032444
C           32.40344980652348       -4.78683703211386        3.10065700925026
C           32.38322850738466       -6.05606258345707        3.64999014216145
C           31.60071548209512       -7.05865830111595        3.07060505199195
N           31.54997048704864       -8.31911834671612        3.63806508073387
C           30.82425265747744       -6.75932857834703        1.94776271139816
C           30.84059266274370       -5.48407129934058        1.41234709103869
C           30.45997216149416       -2.41165775596138        1.30513122600696
C           29.20429434686111       -2.89037684487112        1.80653216114610
C           28.26683021423606       -1.98041548223231        1.44926978544872
C           28.95253892313336       -0.94263803958523        0.74108476261915
N           30.29836343624186       -1.19845304551324        0.69433565374382
H           27.23267374114897        0.14309810983058        0.15645259628143
H           27.22653621983692        2.26857306246409       -1.34261685942567
H           29.13649453302186        3.96450270703329       -2.21021349037573
H           33.01336918496511        3.96324474732060       -3.62268962024774
H           33.04746415279670        6.22053931935795       -4.61351399750552
H           32.55262410533064        8.53773403300378       -4.28208129744323
H           31.55391388939837        9.09508033849693       -3.04012729336949
H           30.51709611220672        7.64033980686205       -1.45120780210595
H           30.48807894669186        5.38093533058944       -0.46493870105498
H           34.34876905877960        4.28006920023410       -1.37691130963399
H           36.21846217015120        2.48021150411868       -0.64998835538912
H           36.13207978675113       -2.62420485057828        0.49821269307772
H           34.21493916850842       -4.35441296433083        1.26970981600736
H           33.00588118656712       -4.01176394631861        3.56161423877783
H           32.97527729749785       -6.27824354227779        4.53108086992272
H           32.34344239230079       -8.56383844785794        4.20858806421193
H           31.24989573716944       -9.05539475070555        3.01934714433551
H           30.21254745039877       -7.53257325907125        1.49589269655875
H           30.24971090910142       -5.26490444287411        0.52972837455156
H           29.06981156674305       -3.80231437504988        2.36533280863286
H           27.20517305160236       -1.99392523902486        1.63898691847912
Fe          58.53105791113985       -0.01813812785800        0.04250409599556
C           61.91697093000519        0.01175777167721        0.16771432653682
C           61.26419324065074       -1.09796384990077        0.66382184568584
C           61.93826442101371       -2.24343613382741        1.19521338240006
C           60.97788803247283       -3.07419815199485        1.66580958436598
C           59.71903453596811       -2.42736328731421        1.43303610217787
N           59.90603099105295       -1.23804360458178        0.78283883932810
C           58.49435592719359       -2.93489827111279        1.85843344103102
C           58.48034310677385       -4.18241613572321        2.65463452590339
C           57.79016210966890       -5.31050127487572        2.20372898515614
C           57.77316590057291       -6.47620065393680        2.94848356984976
C           58.43527798075792       -6.53284201098938        4.17783000559858
N           58.44971506308923       -7.70739979399035        4.90914791331424
C           59.13191648650504       -5.41043080883579        4.63363552395886
C           59.15423224580964       -4.25281027313570        3.87676912814028
C           57.28617531639106       -2.31215491960842        1.57419606048739
C           56.01639402242721       -2.77900498465997        2.04577041511499
C           55.07536820034300       -1.96881944870012        1.50346851058239
N           57.12046599582105       -1.19835307317395        0.78552805197358
C           55.77331205305621       -1.00335564874678        0.71423463218017
C           55.12361625820422       -0.02982140502485       -0.05463001747850
C           55.80900501471377        0.94135761388226       -0.79479038433891
C           55.15004262390356        1.89425847528142       -1.63118878375887
C           56.11562826377025        2.70058032864600       -2.13494319557081
C           57.36017456381657        2.24717840625200       -1.58874879870418
N           57.15722019758731        1.14103878067554       -0.79764091190405
C           58.57772125037172        2.87920490712997       -1.80450995098003
C           58.60383074610893        4.11777398027613       -2.61399515585751
C           57.87013404936075        5.24192276695967       -2.22618652408714
C           57.89379131358595        6.40016100831518       -2.98224104144919
C           58.64332971258962        6.45346210643093       -4.16052162763410
N           58.69832581587013        7.62086315222108       -4.90046760666391
C           59.38417091431702        5.33516701327416       -4.55268897246589
C           59.36435244594828        4.18508018024579       -3.78450362429315
C           59.77701384311626        2.39492738040731       -1.28843038299424
C           61.03784053356666        3.06360972491075       -1.43195850777871
C           61.97395419318656        2.25913568999533       -0.87478016703094
C           61.28276995548461        1.10589229436014       -0.38381522446060
N           59.93562671508754        1.21684492384925       -0.61118487501347
H           63.00041668894193        0.02319559459909        0.21075514861372
H           63.00843071736197       -2.37772275189631        1.19666058019491
H           61.09874663493132       -4.04239178867044        2.12404934082675
H           57.28018324946792       -5.27685463158929        1.24719733055679
H           57.24417326401556       -7.34928916018273        2.58222083656723
H           57.69214585058867       -8.34198930437865        4.71302893207124
H           58.64306680779330       -7.59611158167762        5.89167351206955
H           59.65047416239831       -5.44966410285089        5.58540133617189
H           59.68124251554655       -3.37986775317957        4.24611129371693
H           55.87261339656892       -3.61325404216723        2.71288941354496
H           54.00434980403208       -2.00721137504645        1.62130992845480
H           54.08656496959333        1.92621131924340       -1.80584529929312
H           56.00385421871392        3.52489089332437       -2.82028687470592
H           57.29354810893979        5.21178345985037       -1.30814008362852
H           57.32984414719094        7.27028812339073       -2.66428455089772
H           57.92228618278917        8.24932014960308       -4.76775292403070
H           58.97012021696077        7.50512974827005       -5.86356864671376
H           59.97081772527056        5.37208166607488       -5.46415551725184
H           59.92738728389627        3.31546724539152       -4.10534921095625
H           61.17598261145651        4.02821900867481       -1.89283584778506
H           63.03802119367003        2.41563167162904       -0.79377453202677
C           37.72911567534458       -0.08541489649117       -0.06943755956851
C           36.50467880847559       -0.07211737883294       -0.06191318224886
C           39.07423538872663       -0.09197048895464       -0.07631051919524
C           40.29892490650737       -0.08754148942790       -0.06912986641124
C           51.15276853197461       -0.02830986642179       -0.09611510090529
C           49.92862436517089       -0.02981999060949       -0.08907799126269
C           52.49900519658824       -0.03118707103454       -0.09459903757786
C           53.72293091838073       -0.02861792480710       -0.08223441045542
Fe          45.11348717630278       -0.04134809780931       -0.01917521779640
C           41.69783619170384       -0.07579648609970       -0.05896696586788
C           42.35977858829239        1.07064967040507       -0.51879706491372
C           41.66947240900792        2.23196693578002       -0.98267281708133
C           42.61462529002443        3.17334147367340       -1.22191785122248
C           43.87969270042772        2.57436703608826       -0.92029036509909
N           43.70645376342950        1.27751562285882       -0.50055267764657
C           45.08925860102524        3.25777414443545       -0.96493085170575
C           45.08099412954987        4.68799887517010       -1.35035355506960
C           44.66181652291311        5.08423800078175       -2.62247344453553
C           44.65902107175074        6.41992649555647       -2.98291539814561
C           45.07191740149915        7.39390373037555       -2.06960324502557
N           45.02209559693652        8.73371539410154       -2.40864269464443
C           45.48040647294975        7.00563805878220       -0.79070465233182
C           45.49277827505248        5.66688511375471       -0.44271286555433
C           46.31016695756944        2.66013332823099       -0.67290860937234
C           47.56890911935911        3.33345935357244       -0.78528437741210
C           48.52997208505435        2.40688174499566       -0.55149809911790
N           46.50239351879778        1.33632966341409       -0.36071432965852
C           47.85423670052353        1.17401138602236       -0.29956775461642
C           48.52852398887002       -0.03108953655123       -0.06429927188498
C           47.86700612507432       -1.23457157009187        0.21227275268796
C           48.55213108091082       -2.46953572405612        0.42411100643000
C           47.60446937520081       -3.38961281948113        0.72978137456516
C           46.34633906182813       -2.70665821082589        0.71380567015117
N           46.52105856217849       -1.39151381817050        0.35983757342958
C           45.13462698116006       -3.30749375264673        1.03988919653727
C           45.14577865636113       -4.71340423804592        1.49862276793721
C           44.43059567889860       -5.69562159865529        0.80766273266981
C           44.44673120764168       -7.01289333385588        1.22856751795091
C           45.17847082604627       -7.37825845910491        2.36205026735651
N           45.15746170620787       -8.68446120709741        2.81445691954537
C           45.88446434708884       -6.39949265378713        3.06721004240105
C           45.87354194520876       -5.08682165309497        2.63196960890770
C           43.91434993935172       -2.64811265218981        0.94319823786166
C           42.66030499619062       -3.23229821110281        1.31226890910499
C           41.69973131774957       -2.33344389270564        0.98496157365422
C           42.37311777876568       -1.19909931905587        0.43775733951942
N           43.72303210018008       -1.38226859691984        0.44430850968560
H           40.59941831652004        2.30938552904303       -1.08880021307636
H           42.47325565200946        4.18752319320951       -1.55770432451785
H           44.35621789335605        4.33270035047219       -3.34206906214923
H           44.33946267295485        6.71562999202422       -3.97619353850801
H           45.04614492255509        8.92777769458523       -3.39673596499861
H           45.61042838903641        9.33762270846741       -1.85748152162199
H           45.78913912320166        7.75809590192787       -0.07332686328665
H           45.80492259615582        5.37282445946942        0.55334398216017
H           47.69404647023202        4.37497869434365       -1.03239336834761
H           49.60091603703790        2.53089251300982       -0.55469121867896
H           49.61881326297438       -2.60283025130505        0.34212182858721
H           47.73785939169272       -4.43900531589542        0.93592489381445
H           43.87679228252554       -5.42373676640075       -0.08422698682483
H           43.89543103518893       -7.76767383923599        0.67854141626733
H           45.92821741589979       -8.94605360645922        3.40778522268548
H           44.91914953795487       -9.37542073422062        2.12139841703966
H           46.44179240388090       -6.67435889105817        3.95600285736790
H           46.41609083647263       -4.33144046504988        3.18972446793571
H           42.53799535873623       -4.19992257289539        1.77066432191327
H           40.63152649588358       -2.41458482130259        1.10594419656213

          :  Hamiltonian                  GFN1-xTB          :
         :: total energy            -319.681166092653 Eh    ::
         :: gradient norm              0.000856073556 Eh/a0 ::
         :: HOMO-LUMO gap              0.045505356132 eV    ::
         :: SCC energy              -324.840765735821 Eh    ::
         :: repulsion energy           5.327681240332 Eh    ::

    * Orbital Energies and Occupations

         #    Occupation            Energy/Eh            Energy/eV
      -------------------------------------------------------------
         1        2.0000           -0.7824867             -21.2925
       ...           ...                  ...                  ...
       284        2.0000           -0.3876585             -10.5487
       285        2.0000           -0.3864627             -10.5162
       286        1.9987           -0.3796220             -10.3300
       287        1.9924           -0.3779634             -10.2849
       288        1.9923           -0.3779540             -10.2847
       289        1.9919           -0.3779142             -10.2836
       290        1.9738           -0.3767860             -10.2529
       291        1.9675           -0.3765766             -10.2472
       292        1.9631           -0.3764548             -10.2439
       293        1.9611           -0.3764037             -10.2425
       294        1.9601           -0.3763794             -10.2418
       295        1.9580           -0.3763283             -10.2404
       296        1.1614           -0.3729878             -10.1495 (HOMO)
       297        0.3848           -0.3713155             -10.1040 (LUMO)
       298        0.3498           -0.3712048             -10.1010
       299        0.3451           -0.3711890             -10.1006
       300                         -0.3358316              -9.1384
       301                         -0.3243858              -8.8270
       302                         -0.3207724              -8.7287
       303                         -0.3181960              -8.6586
       304                         -0.3177443              -8.6463
       305                         -0.3164180              -8.6102
       306                         -0.2956899              -8.0461
       307                         -0.2929264              -7.9709
       ...                                ...                  ...
       639                          1.5170110              41.2800
      -------------------------------------------------------------
                  HL-Gap            0.0016723 Eh            0.0455 eV

Wiberg/Mayer (AO) data.
largest (>0.10) Wiberg bond orders for each atom

     #   Z sym  total        # sym  WBO       # sym  WBO       # sym  WBO
 ---------------------------------------------------------------------------
     1  26 Fe   3.088 --     7 N    0.660    39 N    0.659    26 N    0.652
                            19 N    0.652
     2   6 C    3.914 --    38 C    1.363     3 C    1.362    40 H    0.970
     3   6 C    3.927 --     2 C    1.362     7 N    1.209     4 C    1.176
     4   6 C    3.959 --     5 C    1.645     3 C    1.176    41 H    0.975
     5   6 C    3.962 --     4 C    1.645     6 C    1.178    42 H    0.973
     6   6 C    3.919 --     8 C    1.306     7 N    1.229     5 C    1.178
     7   7 N    3.373 --     6 C    1.229     3 C    1.209     1 Fe   0.660
     8   6 C    3.917 --    16 C    1.330     6 C    1.306     9 C    1.037
     9   6 C    3.985 --    10 C    1.378    15 C    1.378     8 C    1.037
    10   6 C    3.986 --    11 C    1.470     9 C    1.378    43 H    0.973
    11   6 C    3.988 --    10 C    1.470    12 C    1.352    44 H    0.972
    12   6 C    3.950 --    11 C    1.352    14 C    1.352    13 N    1.118
    13   7 N    3.134 --    12 C    1.118    45 H    0.933    46 H    0.933
    14   6 C    3.988 --    15 C    1.471    12 C    1.352    47 H    0.972
    15   6 C    3.986 --    14 C    1.471     9 C    1.378    48 H    0.973
    16   6 C    3.917 --     8 C    1.330    19 N    1.201    17 C    1.182
    17   6 C    3.957 --    18 C    1.634    16 C    1.182    49 H    0.973
    18   6 C    3.960 --    17 C    1.634    20 C    1.191    50 H    0.974
    19   7 N    3.372 --    20 C    1.248    16 C    1.201     1 Fe   0.652
    20   6 C    3.906 --    19 N    1.248    21 C    1.246    18 C    1.191
    21   6 C    3.912 --    20 C    1.246    22 C    1.246   122 C    1.210
    22   6 C    3.906 --    26 N    1.249    21 C    1.246    23 C    1.191
    23   6 C    3.960 --    24 C    1.634    22 C    1.191    51 H    0.974
    24   6 C    3.957 --    23 C    1.634    25 C    1.182    52 H    0.973
    25   6 C    3.917 --    27 C    1.331    26 N    1.201    24 C    1.182
    26   7 N    3.372 --    22 C    1.249    25 C    1.201     1 Fe   0.652
    27   6 C    3.917 --    25 C    1.331    35 C    1.305    28 C    1.038
    28   6 C    3.985 --    34 C    1.378    29 C    1.377    27 C    1.038
    29   6 C    3.986 --    30 C    1.471    28 C    1.377    53 H    0.972
    30   6 C    3.988 --    29 C    1.471    31 C    1.352    54 H    0.972
    31   6 C    3.949 --    30 C    1.352    33 C    1.352    32 N    1.118
    32   7 N    3.134 --    31 C    1.118    56 H    0.933    55 H    0.933
    33   6 C    3.988 --    34 C    1.471    31 C    1.352    57 H    0.972
    34   6 C    3.986 --    33 C    1.471    28 C    1.378    58 H    0.973
    35   6 C    3.919 --    27 C    1.305    39 N    1.229    36 C    1.178
    36   6 C    3.962 --    37 C    1.646    35 C    1.178    59 H    0.973
    37   6 C    3.959 --    36 C    1.646    38 C    1.175    60 H    0.975
    38   6 C    3.927 --     2 C    1.363    39 N    1.208    37 C    1.175
    39   7 N    3.373 --    35 C    1.229    38 C    1.208     1 Fe   0.659
    40   1 H    1.001 --     2 C    0.970
    41   1 H    0.998 --     4 C    0.975
    42   1 H    1.005 --     5 C    0.973
    43   1 H    1.005 --    10 C    0.973
    44   1 H    0.998 --    11 C    0.972
    45   1 H    0.960 --    13 N    0.933
    46   1 H    0.960 --    13 N    0.933
    47   1 H    0.998 --    14 C    0.972
    48   1 H    1.005 --    15 C    0.973
    49   1 H    1.005 --    17 C    0.973
    50   1 H    1.002 --    18 C    0.974
    51   1 H    1.002 --    23 C    0.974
    52   1 H    1.005 --    24 C    0.973
    53   1 H    1.005 --    29 C    0.972
    54   1 H    0.998 --    30 C    0.972
    55   1 H    0.960 --    32 N    0.933
    56   1 H    0.960 --    32 N    0.933
    57   1 H    0.998 --    33 C    0.972
    58   1 H    1.005 --    34 C    0.973
    59   1 H    1.005 --    36 C    0.973
    60   1 H    0.998 --    37 C    0.975
    61  26 Fe   3.085 --    67 N    0.660    99 N    0.660    86 N    0.653
                            79 N    0.653
    62   6 C    3.916 --    98 C    1.363    63 C    1.362   100 H    0.970
    63   6 C    3.926 --    62 C    1.362    67 N    1.209    64 C    1.175
    64   6 C    3.959 --    65 C    1.646    63 C    1.175   101 H    0.975
    65   6 C    3.962 --    64 C    1.646    66 C    1.177   102 H    0.973
    66   6 C    3.919 --    68 C    1.308    67 N    1.228    65 C    1.177
    67   7 N    3.374 --    66 C    1.228    63 C    1.209    61 Fe   0.660
    68   6 C    3.919 --    76 C    1.331    66 C    1.308    69 C    1.036
    69   6 C    3.985 --    70 C    1.379    75 C    1.378    68 C    1.036
    70   6 C    3.987 --    71 C    1.470    69 C    1.379   103 H    0.973
    71   6 C    3.988 --    70 C    1.470    72 C    1.353   104 H    0.972
    72   6 C    3.950 --    71 C    1.353    74 C    1.352    73 N    1.117
    73   7 N    3.134 --    72 C    1.117   105 H    0.933   106 H    0.933
    74   6 C    3.988 --    75 C    1.470    72 C    1.352   107 H    0.972
    75   6 C    3.986 --    74 C    1.470    69 C    1.378   108 H    0.973
    76   6 C    3.917 --    68 C    1.331    79 N    1.202    77 C    1.181
    77   6 C    3.958 --    78 C    1.635    76 C    1.181   109 H    0.973
    78   6 C    3.960 --    77 C    1.635    80 C    1.190   110 H    0.974
    79   7 N    3.373 --    80 C    1.247    76 C    1.202    61 Fe   0.653
    80   6 C    3.907 --    81 C    1.249    79 N    1.247    78 C    1.190
    81   6 C    3.915 --    80 C    1.249    82 C    1.249   128 C    1.203
    82   6 C    3.907 --    81 C    1.249    86 N    1.247    83 C    1.190
    83   6 C    3.960 --    84 C    1.635    82 C    1.190   111 H    0.974
    84   6 C    3.958 --    83 C    1.635    85 C    1.181   112 H    0.973
    85   6 C    3.917 --    87 C    1.331    86 N    1.201    84 C    1.181
    86   7 N    3.373 --    82 C    1.247    85 C    1.201    61 Fe   0.653
    87   6 C    3.919 --    85 C    1.331    95 C    1.307    88 C    1.036
    88   6 C    3.985 --    89 C    1.379    94 C    1.378    87 C    1.036
    89   6 C    3.987 --    90 C    1.470    88 C    1.379   113 H    0.972
    90   6 C    3.988 --    89 C    1.470    91 C    1.352   114 H    0.972
    91   6 C    3.950 --    90 C    1.352    93 C    1.352    92 N    1.118
    92   7 N    3.134 --    91 C    1.118   115 H    0.933   116 H    0.933
    93   6 C    3.988 --    94 C    1.471    91 C    1.352   117 H    0.972
    94   6 C    3.986 --    93 C    1.471    88 C    1.378   118 H    0.973
    95   6 C    3.919 --    87 C    1.307    99 N    1.229    96 C    1.177
    96   6 C    3.962 --    97 C    1.646    95 C    1.177   119 H    0.973
    97   6 C    3.959 --    96 C    1.646    98 C    1.175   120 H    0.975
    98   6 C    3.926 --    62 C    1.363    99 N    1.208    97 C    1.175
    99   7 N    3.374 --    95 C    1.229    98 C    1.208    61 Fe   0.660
   100   1 H    1.001 --    62 C    0.970
   101   1 H    0.998 --    64 C    0.975
   102   1 H    1.005 --    65 C    0.973
   103   1 H    1.005 --    70 C    0.973
   104   1 H    0.999 --    71 C    0.972
   105   1 H    0.960 --    73 N    0.933
   106   1 H    0.960 --    73 N    0.933
   107   1 H    0.998 --    74 C    0.972
   108   1 H    1.005 --    75 C    0.973
   109   1 H    1.005 --    77 C    0.973
   110   1 H    1.002 --    78 C    0.974
   111   1 H    1.002 --    83 C    0.974
   112   1 H    1.005 --    84 C    0.973
   113   1 H    1.005 --    89 C    0.972
   114   1 H    0.998 --    90 C    0.972
   115   1 H    0.960 --    92 N    0.933
   116   1 H    0.960 --    92 N    0.933
   117   1 H    0.998 --    93 C    0.972
   118   1 H    1.005 --    94 C    0.973
   119   1 H    1.005 --    96 C    0.973
   120   1 H    0.998 --    97 C    0.975
   121   6 C    3.922 --   122 C    2.439   123 C    1.333
   122   6 C    3.911 --   121 C    2.439    21 C    1.210   124 C    0.195
   123   6 C    3.918 --   124 C    2.437   121 C    1.333
   124   6 C    3.913 --   123 C    2.437   130 C    1.213   122 C    0.195
   125   6 C    3.919 --   126 C    2.445   127 C    1.327
   126   6 C    3.913 --   125 C    2.445   149 C    1.207   128 C    0.195
   127   6 C    3.923 --   128 C    2.447   125 C    1.327
   128   6 C    3.910 --   127 C    2.447    81 C    1.203   126 C    0.195
   129  26 Fe   3.034 --   147 N    0.643   167 N    0.643   154 N    0.642
                           135 N    0.642
   130   6 C    3.900 --   131 C    1.244   166 C    1.243   124 C    1.213
   131   6 C    3.907 --   135 N    1.251   130 C    1.244   132 C    1.192
   132   6 C    3.959 --   133 C    1.632   131 C    1.192   168 H    0.973
   133   6 C    3.959 --   132 C    1.632   134 C    1.185   169 H    0.972
   134   6 C    3.914 --   136 C    1.321   135 N    1.207   133 C    1.185
   135   7 N    3.362 --   131 C    1.251   134 C    1.207   129 Fe   0.642
   136   6 C    3.910 --   134 C    1.321   144 C    1.319   137 C    1.031
   137   6 C    3.984 --   138 C    1.380   143 C    1.380   136 C    1.031
   138   6 C    3.987 --   139 C    1.469   137 C    1.380   170 H    0.973
   139   6 C    3.988 --   138 C    1.469   140 C    1.352   171 H    0.972
   140   6 C    3.951 --   139 C    1.352   142 C    1.352   141 N    1.119
   141   7 N    3.136 --   140 C    1.119   173 H    0.933   172 H    0.933
   142   6 C    3.988 --   143 C    1.470   140 C    1.352   174 H    0.972
   143   6 C    3.987 --   142 C    1.470   137 C    1.380   175 H    0.973
   144   6 C    3.914 --   136 C    1.319   147 N    1.208   145 C    1.185
   145   6 C    3.959 --   146 C    1.632   144 C    1.185   176 H    0.973
   146   6 C    3.959 --   145 C    1.632   148 C    1.193   177 H    0.973
   147   7 N    3.363 --   148 C    1.249   144 C    1.208   129 Fe   0.643
   148   6 C    3.908 --   147 N    1.249   149 C    1.246   146 C    1.193
   149   6 C    3.901 --   148 C    1.246   150 C    1.246   126 C    1.207
   150   6 C    3.908 --   154 N    1.248   149 C    1.246   151 C    1.194
   151   6 C    3.959 --   152 C    1.629   150 C    1.194   178 H    0.974
   152   6 C    3.959 --   151 C    1.629   153 C    1.187   179 H    0.973
   153   6 C    3.914 --   155 C    1.315   154 N    1.210   152 C    1.187
   154   7 N    3.363 --   150 C    1.248   153 C    1.210   129 Fe   0.642
   155   6 C    3.911 --   163 C    1.319   153 C    1.315   156 C    1.040
   156   6 C    3.984 --   162 C    1.376   157 C    1.376   155 C    1.040
   157   6 C    3.986 --   158 C    1.472   156 C    1.376   180 H    0.972
   158   6 C    3.988 --   157 C    1.472   159 C    1.351   181 H    0.972
   159   6 C    3.949 --   161 C    1.351   158 C    1.351   160 N    1.120
   160   7 N    3.136 --   159 C    1.120   182 H    0.932   183 H    0.932
   161   6 C    3.988 --   162 C    1.472   159 C    1.351   184 H    0.972
   162   6 C    3.986 --   161 C    1.472   156 C    1.376   185 H    0.972
   163   6 C    3.914 --   155 C    1.319   167 N    1.206   164 C    1.186
   164   6 C    3.959 --   165 C    1.630   163 C    1.186   186 H    0.972
   165   6 C    3.959 --   164 C    1.630   166 C    1.194   187 H    0.974
   166   6 C    3.907 --   167 N    1.251   130 C    1.243   165 C    1.194
   167   7 N    3.363 --   166 C    1.251   163 C    1.206   129 Fe   0.643
   168   1 H    1.002 --   132 C    0.973
   169   1 H    1.005 --   133 C    0.972
   170   1 H    1.004 --   138 C    0.973
   171   1 H    0.998 --   139 C    0.972
   172   1 H    0.960 --   141 N    0.933
   173   1 H    0.960 --   141 N    0.933
   174   1 H    0.998 --   142 C    0.972
   175   1 H    1.004 --   143 C    0.973
   176   1 H    1.005 --   145 C    0.973
   177   1 H    1.002 --   146 C    0.973
   178   1 H    1.002 --   151 C    0.974
   179   1 H    1.005 --   152 C    0.973
   180   1 H    1.005 --   157 C    0.972
   181   1 H    0.998 --   158 C    0.972
   182   1 H    0.960 --   160 N    0.932
   183   1 H    0.960 --   160 N    0.932
   184   1 H    0.998 --   161 C    0.972
   185   1 H    1.005 --   162 C    0.972
   186   1 H    1.005 --   164 C    0.972
   187   1 H    1.002 --   165 C    0.974
 ---------------------------------------------------------------------------

           -------------------------------------------------
          | TOTAL ENERGY             -319.681166092653 Eh   |
          | GRADIENT NORM               0.000856073556 Eh/α |
          | HOMO-LUMO GAP               0.045505356132 eV   |
           -------------------------------------------------

 * finished run on 2022/07/29 at 19:06:44.539
