   * xtb version 6.5.1 (b24c23e) compiled by 'conda@728c89f4b128' on 2022-07-12
          program call               : xtb Co_NMA_C8_3.xyz --gfn 1 --opt -T 48

   ID    Z sym.   atoms
    1   27 Co     1, 67, 149
    2    6 C      2-6, 8-12, 14-19, 21-26, 28-32, 34-40, 68-72, 74-78, 80-85,
                  87-92, 94-98, 100-106, 133-148, 150-154, 156-160, 162-167,
                  169-174, 176-180, 182-188
    3    7 N      7, 13, 20, 27, 33, 41, 73, 79, 86, 93, 99, 107, 155, 161,
                  168, 175, 181, 189
    4    1 H      42-66, 108-132, 190-213

          :  Hamiltonian                  GFN1-xTB          :
 * total energy  :  -334.1590623 Eh     change       -0.4397691E-08 Eh
 * total energy  :  -350.7268674 Eh     change       -0.1656781E+02 Eh
 * total energy  :  -352.7869687 Eh     change       -0.2060101E+01 Eh
 * total energy  :  -354.1360472 Eh     change       -0.1349078E+01 Eh
 * total energy  :  -354.7998899 Eh     change       -0.6638428E+00 Eh
 * total energy  :  -355.1703629 Eh     change       -0.3704729E+00 Eh
 * total energy  :  -355.4093269 Eh     change       -0.2389641E+00 Eh
 * total energy  :  -355.5892717 Eh     change       -0.1799447E+00 Eh
 * total energy  :  -355.7479715 Eh     change       -0.1586998E+00 Eh
 * total energy  :  -355.9000253 Eh     change       -0.1520538E+00 Eh
 * total energy  :  -356.9867797 Eh     change       -0.1925797E-04 Eh
 * total energy  :  -356.9868146 Eh     change       -0.3483031E-04 Eh
 * total energy  :  -356.9868458 Eh     change       -0.3121317E-04 Eh
 * total energy  :  -356.9868719 Eh     change       -0.2614464E-04 Eh
 * total energy  :  -356.9868933 Eh     change       -0.2136485E-04 Eh
 * total energy  :  -356.9869126 Eh     change       -0.1934648E-04 Eh
 * total energy  :  -356.9869299 Eh     change       -0.1730888E-04 Eh
 * total energy  :  -356.9869417 Eh     change       -0.1174818E-04 Eh
 * total energy  :  -356.9869449 Eh     change       -0.3235281E-05 Eh
   *** GEOMETRY OPTIMIZATION CONVERGED AFTER 94 ITERATIONS ***

 final structure:
================
213
 xtb: 6.5.1 (b24c23e)
Co          30.98563418235480        0.05059621189938       -0.03590272165163
C           27.62044067548462        0.16233107897383       -0.15771304122528
C           28.26262752610541        0.82112009337394        0.86963076333227
C           27.59195801315234        1.51767041624410        1.92398585139976
C           28.54505909531103        2.19077273800224        2.61238874508577
C           29.79457794139880        1.92053236570080        1.96368802252542
N           29.61867060162349        1.02064795064287        0.94453593462923
C           30.98414824535102        2.58653204822886        2.23984911143942
C           30.98512485721216        3.68466906375214        3.22789263626858
C           30.12243094471393        4.77642068019211        3.08756213886956
C           30.12926338816630        5.80620111456393        4.00830691523445
C           30.99683286695472        5.77260922054330        5.10758698430278
N           30.92765762408990        6.79924706933943        6.03549402573964
C           32.07302692503610        7.08077574549160        6.89028670687593
C           31.85080495327246        4.67617495045534        5.26146953709472
C           31.84691328052881        3.65560752499683        4.32671356541330
C           32.16931634796569        2.24955717795485        1.59965283677801
C           33.40748323992860        2.94792391116633        1.76987797261128
C           34.36051568183085        2.21498684832254        1.14309435525448
N           32.35414675399376        1.13789677008684        0.80978301266106
C           33.70070768792143        1.07799166067695        0.58537769140449
C           34.37307625953248       -0.01868748073637        0.03602093803611
C           33.68130487761997       -1.09777927269784       -0.52440901062961
C           34.31640795172334       -2.27312094598719       -1.02843766153538
C           33.35752435164696       -2.98987456181426       -1.66499407196171
C           32.14299508910403       -2.23838149125721       -1.56316001621560
N           32.34242824187324       -1.11326957936730       -0.79512327289176
C           30.97708347540999       -2.53370498322342       -2.25632206356915
C           30.96757923260407       -3.65894594422536       -3.21336414059348
C           31.88603231532502       -3.71330765838997       -4.26420199228571
C           31.87640087427571       -4.75896358141806       -5.17083001178353
C           30.94959431727610       -5.79717082720059       -5.03573276244609
N           30.86543599277354       -6.84365520976768       -5.93980374650481
C           32.03198934025469       -7.21498217716958       -6.72903602500458
C           30.02450569631721       -5.74653437175824       -3.98499907355177
C           30.03229904623019       -4.69181183438042       -3.09301444919214
C           29.81584533555121       -1.78890525422401       -2.07525463262525
C           28.60170893741720       -1.98936868117063       -2.81042808903346
C           27.65258302652062       -1.22667510178326       -2.21638551293284
C           28.29073932897425       -0.55260239549234       -1.12766847964572
N           29.63035304752817       -0.85162379981236       -1.09290766075820
H           26.53829182407536        0.20213902709308       -0.20039041341391
H           26.52788327762142        1.48692189640508        2.09726702052714
H           28.42434184849534        2.81760487270543        3.48104092178624
H           29.45989143018740        4.82727289081110        2.23045431525323
H           29.46140445765223        6.65184990776788        3.88197569995591
H           30.50646139018400        7.64082944138635        5.66140492386078
H           32.99214701825631        7.19968971712018        6.30540095760403
H           32.20877923554327        6.27394815852212        7.61172540628256
H           31.86929467364479        8.00361840137525        7.43325504799912
H           32.51815888223805        4.61225928294483        6.11214099436018
H           32.50637558547520        2.80544217240602        4.46368255570072
H           33.52251318338141        3.87979390863196        2.29930855672716
H           35.41826692351697        2.40881893301533        1.06507398542591
H           35.36252368553667       -2.50403952642666       -0.90653214207572
H           33.45453150609510       -3.94165607243299       -2.16157182348252
H           32.60184006742089       -2.90791774335150       -4.38817317694074
H           32.58989717119474       -4.75933982398007       -5.98568200260977
H           30.37618825936367       -7.64829518674021       -5.56725848303059
H           32.25198696683142       -6.43643898958351       -7.46082466609032
H           31.79893953316623       -8.13752708137657       -7.26065253875525
H           32.91236775731204       -7.37397743062435       -6.09597013063665
H           29.29963214077456       -6.54612812125211       -3.87401877564663
H           29.32221448283519       -4.67656999273331       -2.27341591975784
H           28.50071020935459       -2.63228872329828       -3.66981874645748
H           26.61002963830046       -1.12379390881045       -2.47272518113461
Co          68.01688464821054        0.03705521282722       -0.07023645041134
C           71.38325799685521        0.11544006332607       -0.17772727106874
C           70.73920174423479       -1.02851213614055       -0.60015630218176
C           71.40812058897664       -2.21383609002764       -1.04082477160599
C           70.45539065390737       -3.03003435283877       -1.55214648519851
C           69.20810643794695       -2.33185173056935       -1.44258837161246
N           69.38416579706549       -1.13952856011570       -0.78911363202861
C           68.02175809519987       -2.74280492156442       -2.04128479397061
C           68.02130171275348       -3.95148640453556       -2.89065670918042
C           68.89286417669355       -4.06497733323822       -3.97843708947685
C           68.88731678651308       -5.19405157694840       -4.77439604544222
C           68.01210734264832       -6.25317999498431       -4.50161663129899
N           68.08315899738567       -7.38937152711411       -5.29161935724600
C           66.93421377267092       -8.28009735102204       -5.38308937624664
C           67.14851429288375       -6.15150333808177       -3.40666765788830
C           67.15129906734386       -5.01088076163500       -2.62288074968517
C           66.83894497508238       -2.03687190085831       -1.86620223346543
C           65.60532616120926       -2.35030393616660       -2.52172274921144
C           64.65125482816370       -1.57101531628955       -1.95533592214899
N           66.65120651615388       -1.01930185099296       -0.95895249447729
C           65.30603684960749       -0.77930277533536       -0.96353273274098
C           64.62893515889235        0.00218871636562       -0.02166488705552
C           65.31545446119459        0.78225048944981        0.91487696074651
C           64.67360321236764        1.53477392999343        1.94478574790089
C           65.63144936691741        2.30495219102898        2.51716993597244
C           66.85228040094034        2.03321840646107        1.82006212764867
N           66.65645616877011        1.04054827930395        0.88621351811890
C           68.02192323673846        2.76500592174011        1.97185711602094
C           68.03212039767759        3.94030362209921        2.86691873972665
C           67.12610885612133        4.98768010579437        2.68615772252115
C           67.13775196712032        6.09606834415264        3.51504060754592
C           68.05374598146051        6.17581359707719        4.56836813175712
N           68.14025748600976        7.28137855226792        5.39941410353277
C           66.97913434959612        8.14138669162166        5.58343164147945
C           68.96632163575480        5.12920152791167        4.75282558165116
C           68.95684515374235        4.03326645911423        3.91201191901216
C           69.18750044497627        2.42031346180144        1.29466494201435
C           70.40532808828353        3.17486838837682        1.34243352578946
C           71.35532926120977        2.42600976126691        0.73243783328560
C           70.71438922650255        1.22086527793384        0.30369934648173
N           69.37255604011582        1.25821776578050        0.59248433328187
H           72.46590085673276        0.14329159611437       -0.21722558863633
H           72.47083811058870       -2.38089234866695       -0.96369801825108
H           70.57501731186727       -4.01654859731250       -1.96989816655683
H           69.56175039862782       -3.24479570364995       -4.21522614566580
H           69.56241633340528       -5.26493348215768       -5.62076703477985
H           68.51283825853591       -7.21665418534368       -6.19227403380346
H           66.01987195509196       -7.73269196056612       -5.63872365299633
H           66.78777637425600       -8.80035336635529       -4.43558310566082
H           67.14106579299919       -9.01819390577487       -6.15793824080720
H           66.47463664142391       -6.96238785205771       -3.15879440870119
H           66.48432892680538       -4.94929579809274       -1.76977358464107
H           65.49393949561490       -3.07238141337293       -3.31427438691745
H           63.59579839010627       -1.53148645866258       -2.17204089949727
H           63.62412250861707        1.47371396166661        2.18437940130148
H           65.52977631418466        2.99761679429477        3.33678489512192
H           66.41868572500313        4.94444561516415        1.86512327876368
H           66.43415723159528        6.89940114500576        3.33421664674714
H           68.61743962365401        7.08253211900476        6.27030150069856
H           66.77216393178625        8.69200382203787        4.66483061174061
H           67.21096578503685        8.85563365557477        6.37343906070604
H           66.09124582528689        7.56426391345008        5.86563538958506
H           69.68295040150706        5.18383365179009        5.56557737487304
H           69.65727870231208        3.22228215516471        4.07901450811916
H           70.50781766562420        4.15170959323273        1.78672118560467
H           72.40023617406312        2.64885886304602        0.58507510123001
C           35.77356466075302       -0.03875779519985        0.05330190027317
C           36.99943740038590       -0.04873096599635        0.06608192826050
C           38.34011239034069       -0.05584456228700        0.07802232561994
C           39.57246762587838       -0.05663887582712        0.08608532138668
C           40.90836465151455       -0.05393352461640        0.09066753599295
C           42.14079944262929       -0.04704973326860        0.09252540263456
C           43.48128784435892       -0.04353195911355        0.08598386215859
C           44.70744267163182       -0.03365874908537        0.07445748046001
C           54.29464822306502       -0.02155106303648        0.01207238637205
C           55.52083199415296       -0.02612857313399        0.01686793214409
C           56.86127092941378       -0.02774586172227        0.01934961516169
C           58.09367087213462       -0.02396684738572        0.01781441261313
C           59.42950848840932       -0.02306221353602        0.01313048903076
C           60.66179144447301       -0.01569836745613        0.00802832999277
C           62.00243470780213       -0.00969070267895        0.00052176603224
C           63.22830992782277       -0.00426032230004       -0.00934371471588
Co          49.50078752178757        0.00732072307390        0.00363266856080
C           46.10747965801874       -0.02401007911690        0.05794973293159
C           46.79121313083360       -1.13417285137225       -0.45009509066106
C           46.13446753921195       -2.29445886579269       -0.96124379066328
C           47.08420317996955       -3.03435709149888       -1.58390987601243
C           48.32097742905637       -2.32838003337574       -1.43838779029218
N           48.13372835303637       -1.18437285646023       -0.69728003983058
C           49.48915767337561       -2.65298095800483       -2.11646798988879
C           49.48311241628012       -3.80235589766314       -3.04961140215928
C           49.25428436047008       -5.09977136793207       -2.58422971438163
C           49.25728150649368       -6.17223993355175       -3.45576282388830
C           49.48303327908173       -5.97681519027033       -4.82408486318505
N           49.42022262072802       -7.07463506976556       -5.66810578517635
C           50.12100159146469       -7.04438076913175       -6.94500289212550
C           49.69715630085685       -4.67823048355527       -5.29573560364177
C           49.70486550930922       -3.61090035309978       -4.41412760192598
C           50.66622040223759       -1.93646333037187       -1.94152926786213
C           51.90524025603415       -2.26193871427218       -2.58054518772074
C           52.86574418389957       -1.52310079589851       -1.97303774785545
N           50.86315208031269       -0.96959037751923       -0.98248511372898
C           52.21115535961140       -0.75224985602511       -0.96522204568081
C           52.89464801714519       -0.00803073222143        0.00297214642946
C           52.21487745230513        0.75841163561087        0.95598725284442
C           52.86716017154551        1.50987264691674        1.97944762449029
C           51.91487372599941        2.28237439418996        2.55922330034442
C           50.68755847081751        2.00508208598670        1.87774583201512
N           50.87335665707884        1.01531599975868        0.94168645751650
C           49.51101354591445        2.72383994518584        2.05571888402360
C           49.52056491390268        3.90921512573948        2.93575782231466
C           48.63208435638700        4.01441424249508        4.00862985422755
C           48.63991312190745        5.12095217447524        4.83943721492250
C           49.54267211105187        6.16447539016450        4.61124586832415
N           49.55507197405140        7.32039153171925        5.37317505761230
C           49.02777156939734        7.30459932927724        6.73052308223805
C           50.42743416917878        6.06969113891990        3.52895876338258
C           50.42048558123235        4.95639154116129        2.71175330135735
C           48.32710830973750        2.35195174369613        1.43026983119226
C           47.09630793196323        3.07501975181087        1.53294815320084
C           46.13545506092253        2.29071596132044        0.98415459514624
C           46.78693353080821        1.10396024979567        0.53175773517802
N           48.13348336371941        1.17369743950944        0.74726455136962
H           45.07813744378405       -2.49035235447949       -0.87097703864157
H           46.96127464286338       -3.96263520287178       -2.11732761340168
H           49.09793611437653       -5.26810315664961       -1.52441587002295
H           49.08700977022507       -7.17613653732798       -3.08133678616807
H           49.54665304648660       -7.95275377446016       -5.17929242509977
H           49.64028168054542       -6.33473233264985       -7.61951242789684
H           51.17363933307412       -6.76619891503485       -6.81936548662960
H           50.06108508271641       -8.03957532275840       -7.38543467547914
H           49.85445117472027       -4.49375737392406       -6.35131543136363
H           49.86252939690297       -2.60690656187140       -4.79284957145391
H           52.02159485253445       -2.98557522840175       -3.37070372453144
H           53.92658776063829       -1.50656488899560       -2.16478571019662
H           53.91919288691640        1.45028627021468        2.20772792643806
H           52.02493952345706        2.97672493700806        3.37625326438750
H           47.94119965244591        3.20284656928645        4.20963924608568
H           47.94085098021095        5.16697452649642        5.66537199152093
H           50.42399076200557        7.83496532077993        5.29859516832530
H           49.48714286712299        6.51159130781560        7.33156776776886
H           49.24146422578950        8.27156561956792        7.18583695718984
H           47.94694698858045        7.15951801116804        6.71033888832593
H           51.12071739756522        6.88128546230118        3.33486655191209
H           51.10321809933975        4.90287278768847        1.87085017875844
H           46.98932756862803        4.05494845640027        1.96873070171935
H           45.07896529768243        2.48403583469289        0.88995853922613

          :  Hamiltonian                  GFN1-xTB          :
         :: total energy            -356.986944911910 Eh    ::
         :: gradient norm              0.000638237795 Eh/a0 ::
         :: HOMO-LUMO gap              0.000133864107 eV    ::
         :: SCC energy              -362.897674193881 Eh    ::
         :: repulsion energy           6.091060089978 Eh    ::

    * Orbital Energies and Occupations

         #    Occupation            Energy/Eh            Energy/eV
      -------------------------------------------------------------
         1        2.0000           -0.7818654             -21.2756
       ...           ...                  ...                  ...
       320        2.0000           -0.3844418             -10.4612
       321        2.0000           -0.3844378             -10.4611
       322        1.9999           -0.3823971             -10.4056
       323        1.9999           -0.3816782             -10.3860
       324        1.9999           -0.3814620             -10.3801
       325        1.9998           -0.3812549             -10.3745
       326        1.9998           -0.3812433             -10.3742
       327        1.9998           -0.3811808             -10.3725
       328        1.9998           -0.3811702             -10.3722
       329        1.9937           -0.3778131             -10.2808
       330        1.4885           -0.3732937             -10.1578
       331        1.2120           -0.3726468             -10.1402
       332        1.1546           -0.3725251             -10.1369 (HOMO)
       333        1.1522           -0.3725201             -10.1368 (LUMO)
       334                         -0.3365325              -9.1575
       335                         -0.3269331              -8.8963
       336                         -0.3209273              -8.7329
       337                         -0.3201700              -8.7123
       338                         -0.3179447              -8.6517
       339                         -0.3179129              -8.6509
       340                         -0.3024622              -8.2304
       341                         -0.2978651              -8.1053
       342                         -0.2976986              -8.1008
       343                         -0.2908512              -7.9145
       ...                                ...                  ...
       719                          1.6061245              43.7049
      -------------------------------------------------------------
                  HL-Gap            0.0000049 Eh            0.0001 eV

Wiberg/Mayer (AO) data.
largest (>0.10) Wiberg bond orders for each atom

     #   Z sym  total        # sym  WBO       # sym  WBO       # sym  WBO
 ---------------------------------------------------------------------------
     1  27 Co   3.031 --     7 N    0.635    41 N    0.635    27 N    0.630
                            20 N    0.630
     2   6 C    3.924 --    40 C    1.365     3 C    1.363    42 H    0.970
     3   6 C    3.926 --     2 C    1.363     7 N    1.200     4 C    1.178
     4   6 C    3.957 --     5 C    1.644     3 C    1.178    43 H    0.975
     5   6 C    3.963 --     4 C    1.644     6 C    1.179    44 H    0.973
     6   6 C    3.918 --     8 C    1.311     7 N    1.216     5 C    1.179
     7   7 N    3.342 --     6 C    1.216     3 C    1.200     1 Co   0.635
     8   6 C    3.929 --    17 C    1.327     6 C    1.311     9 C    1.042
     9   6 C    3.985 --    16 C    1.380    10 C    1.370     8 C    1.042
    10   6 C    3.985 --    11 C    1.479     9 C    1.370    45 H    0.972
    11   6 C    3.988 --    10 C    1.479    12 C    1.342    46 H    0.971
    12   6 C    3.950 --    15 C    1.351    11 C    1.342    13 N    1.113
    13   7 N    3.181 --    12 C    1.113    14 C    0.971    47 H    0.930
    14   6 C    3.967 --    50 H    0.990    49 H    0.986    48 H    0.984
                            13 N    0.971
    15   6 C    3.988 --    16 C    1.467    12 C    1.351    51 H    0.970
    16   6 C    3.985 --    15 C    1.467     9 C    1.380    52 H    0.972
    17   6 C    3.916 --     8 C    1.327    20 N    1.194    18 C    1.185
    18   6 C    3.959 --    19 C    1.632    17 C    1.185    53 H    0.973
    19   6 C    3.959 --    18 C    1.632    21 C    1.193    54 H    0.974
    20   7 N    3.343 --    21 C    1.231    17 C    1.194     1 Co   0.630
    21   6 C    3.903 --    22 C    1.254    20 N    1.231    19 C    1.193
    22   6 C    3.928 --    21 C    1.254    23 C    1.252   133 C    1.201
    23   6 C    3.904 --    22 C    1.252    27 N    1.233    24 C    1.194
    24   6 C    3.959 --    25 C    1.632    23 C    1.194    55 H    0.974
    25   6 C    3.958 --    24 C    1.632    26 C    1.184    56 H    0.973
    26   6 C    3.916 --    28 C    1.329    27 N    1.192    25 C    1.184
    27   7 N    3.342 --    23 C    1.233    26 C    1.192     1 Co   0.630
    28   6 C    3.929 --    26 C    1.329    37 C    1.308    29 C    1.042
    29   6 C    3.985 --    30 C    1.380    36 C    1.369    28 C    1.042
    30   6 C    3.985 --    31 C    1.467    29 C    1.380    57 H    0.972
    31   6 C    3.988 --    30 C    1.467    32 C    1.351    58 H    0.970
    32   6 C    3.950 --    31 C    1.351    35 C    1.342    33 N    1.113
    33   7 N    3.181 --    32 C    1.113    34 C    0.971    59 H    0.930
    34   6 C    3.967 --    61 H    0.990    60 H    0.986    62 H    0.984
                            33 N    0.971
    35   6 C    3.988 --    36 C    1.480    32 C    1.342    63 H    0.971
    36   6 C    3.985 --    35 C    1.480    29 C    1.369    64 H    0.972
    37   6 C    3.918 --    28 C    1.308    41 N    1.217    38 C    1.180
    38   6 C    3.963 --    39 C    1.644    37 C    1.180    65 H    0.973
    39   6 C    3.957 --    38 C    1.644    40 C    1.177    66 H    0.975
    40   6 C    3.926 --     2 C    1.365    41 N    1.198    39 C    1.177
    41   7 N    3.342 --    37 C    1.217    40 C    1.198     1 Co   0.635
    42   1 H    1.000 --     2 C    0.970
    43   1 H    0.998 --     4 C    0.975
    44   1 H    1.005 --     5 C    0.973
    45   1 H    1.006 --    10 C    0.972
    46   1 H    0.999 --    11 C    0.971
    47   1 H    0.965 --    13 N    0.930
    48   1 H    1.003 --    14 C    0.984
    49   1 H    1.012 --    14 C    0.986
    50   1 H    1.007 --    14 C    0.990
    51   1 H    1.001 --    15 C    0.970
    52   1 H    1.006 --    16 C    0.972
    53   1 H    1.005 --    18 C    0.973
    54   1 H    1.001 --    19 C    0.974
    55   1 H    1.001 --    24 C    0.974
    56   1 H    1.005 --    25 C    0.973
    57   1 H    1.006 --    30 C    0.972
    58   1 H    1.001 --    31 C    0.970
    59   1 H    0.965 --    33 N    0.930
    60   1 H    1.011 --    34 C    0.986
    61   1 H    1.007 --    34 C    0.990
    62   1 H    1.003 --    34 C    0.984
    63   1 H    0.999 --    35 C    0.971
    64   1 H    1.006 --    36 C    0.972
    65   1 H    1.005 --    38 C    0.973
    66   1 H    0.998 --    39 C    0.975
    67  27 Co   3.031 --    73 N    0.635   107 N    0.635    93 N    0.630
                            86 N    0.630
    68   6 C    3.924 --   106 C    1.365    69 C    1.363   108 H    0.970
    69   6 C    3.926 --    68 C    1.363    73 N    1.200    70 C    1.178
    70   6 C    3.958 --    71 C    1.644    69 C    1.178   109 H    0.975
    71   6 C    3.963 --    70 C    1.644    72 C    1.179   110 H    0.973
    72   6 C    3.918 --    74 C    1.311    73 N    1.215    71 C    1.179
    73   7 N    3.342 --    72 C    1.215    69 C    1.200    67 Co   0.635
    74   6 C    3.929 --    83 C    1.326    72 C    1.311    75 C    1.042
    75   6 C    3.985 --    82 C    1.380    76 C    1.370    74 C    1.042
    76   6 C    3.985 --    77 C    1.479    75 C    1.370   111 H    0.972
    77   6 C    3.988 --    76 C    1.479    78 C    1.342   112 H    0.971
    78   6 C    3.950 --    81 C    1.351    77 C    1.342    79 N    1.113
    79   7 N    3.181 --    78 C    1.113    80 C    0.971   113 H    0.930
    80   6 C    3.967 --   116 H    0.990   115 H    0.986   114 H    0.984
                            79 N    0.971
    81   6 C    3.988 --    82 C    1.467    78 C    1.351   117 H    0.970
    82   6 C    3.985 --    81 C    1.467    75 C    1.380   118 H    0.972
    83   6 C    3.916 --    74 C    1.326    86 N    1.194    84 C    1.185
    84   6 C    3.959 --    85 C    1.632    83 C    1.185   119 H    0.973
    85   6 C    3.959 --    84 C    1.632    87 C    1.193   120 H    0.974
    86   7 N    3.343 --    87 C    1.231    83 C    1.194    67 Co   0.630
    87   6 C    3.904 --    88 C    1.254    86 N    1.231    85 C    1.193
    88   6 C    3.929 --    87 C    1.254    89 C    1.252   148 C    1.201
    89   6 C    3.904 --    88 C    1.252    93 N    1.233    90 C    1.193
    90   6 C    3.959 --    91 C    1.632    89 C    1.193   121 H    0.974
    91   6 C    3.958 --    90 C    1.632    92 C    1.184   122 H    0.973
    92   6 C    3.916 --    94 C    1.329    93 N    1.192    91 C    1.184
    93   7 N    3.343 --    89 C    1.233    92 C    1.192    67 Co   0.630
    94   6 C    3.929 --    92 C    1.329   103 C    1.308    95 C    1.041
    95   6 C    3.985 --    96 C    1.380   102 C    1.369    94 C    1.041
    96   6 C    3.985 --    97 C    1.467    95 C    1.380   123 H    0.972
    97   6 C    3.988 --    96 C    1.467    98 C    1.351   124 H    0.970
    98   6 C    3.950 --    97 C    1.351   101 C    1.342    99 N    1.113
    99   7 N    3.181 --    98 C    1.113   100 C    0.971   125 H    0.930
   100   6 C    3.967 --   127 H    0.990   126 H    0.986   128 H    0.984
                            99 N    0.971
   101   6 C    3.988 --   102 C    1.480    98 C    1.342   129 H    0.971
   102   6 C    3.985 --   101 C    1.480    95 C    1.369   130 H    0.972
   103   6 C    3.918 --    94 C    1.308   107 N    1.218   104 C    1.180
   104   6 C    3.963 --   105 C    1.644   103 C    1.180   131 H    0.973
   105   6 C    3.957 --   104 C    1.644   106 C    1.177   132 H    0.975
   106   6 C    3.926 --    68 C    1.365   107 N    1.198   105 C    1.177
   107   7 N    3.342 --   103 C    1.218   106 C    1.198    67 Co   0.635
   108   1 H    1.000 --    68 C    0.970
   109   1 H    0.998 --    70 C    0.975
   110   1 H    1.005 --    71 C    0.973
   111   1 H    1.006 --    76 C    0.972
   112   1 H    0.999 --    77 C    0.971
   113   1 H    0.965 --    79 N    0.930
   114   1 H    1.003 --    80 C    0.984
   115   1 H    1.012 --    80 C    0.986
   116   1 H    1.007 --    80 C    0.990
   117   1 H    1.001 --    81 C    0.970
   118   1 H    1.006 --    82 C    0.972
   119   1 H    1.005 --    84 C    0.973
   120   1 H    1.001 --    85 C    0.974
   121   1 H    1.001 --    90 C    0.974
   122   1 H    1.005 --    91 C    0.973
   123   1 H    1.006 --    96 C    0.972
   124   1 H    1.001 --    97 C    0.970
   125   1 H    0.965 --    99 N    0.930
   126   1 H    1.012 --   100 C    0.986
   127   1 H    1.007 --   100 C    0.990
   128   1 H    1.003 --   100 C    0.984
   129   1 H    0.999 --   101 C    0.971
   130   1 H    1.005 --   102 C    0.972
   131   1 H    1.005 --   104 C    0.973
   132   1 H    0.998 --   105 C    0.975
   133   6 C    3.868 --   134 C    2.422    22 C    1.201   136 C    0.184
   134   6 C    3.929 --   133 C    2.422   135 C    1.357
   135   6 C    3.885 --   136 C    2.316   134 C    1.357   138 C    0.179
   136   6 C    3.919 --   135 C    2.316   137 C    1.383   133 C    0.184
   137   6 C    3.917 --   138 C    2.315   136 C    1.383   140 C    0.184
   138   6 C    3.886 --   137 C    2.315   139 C    1.358   135 C    0.179
   139   6 C    3.925 --   140 C    2.418   138 C    1.358
   140   6 C    3.869 --   139 C    2.418   150 C    1.204   137 C    0.184
   141   6 C    3.869 --   142 C    2.418   170 C    1.204   144 C    0.184
   142   6 C    3.925 --   141 C    2.418   143 C    1.358
   143   6 C    3.886 --   144 C    2.315   142 C    1.358   146 C    0.179
   144   6 C    3.917 --   143 C    2.315   145 C    1.382   141 C    0.184
   145   6 C    3.919 --   146 C    2.316   144 C    1.382   148 C    0.184
   146   6 C    3.885 --   145 C    2.316   147 C    1.357   143 C    0.179
   147   6 C    3.929 --   148 C    2.422   146 C    1.357
   148   6 C    3.868 --   147 C    2.422    88 C    1.201   145 C    0.184
   149  27 Co   2.994 --   155 N    0.624   168 N    0.623   175 N    0.623
                           189 N    0.623
   150   6 C    3.914 --   151 C    1.251   188 C    1.249   140 C    1.204
   151   6 C    3.904 --   150 C    1.251   155 N    1.235   152 C    1.193
   152   6 C    3.960 --   153 C    1.633   151 C    1.193   190 H    0.974
   153   6 C    3.959 --   152 C    1.633   154 C    1.186   191 H    0.972
   154   6 C    3.912 --   156 C    1.322   155 N    1.197   153 C    1.186
   155   7 N    3.335 --   151 C    1.235   154 C    1.197   149 Co   0.624
   156   6 C    3.921 --   165 C    1.323   154 C    1.322   157 C    1.030
   157   6 C    3.984 --   164 C    1.384   158 C    1.375   156 C    1.030
   158   6 C    3.987 --   159 C    1.476   157 C    1.375   192 H    0.973
   159   6 C    3.988 --   158 C    1.476   160 C    1.344   193 H    0.971
   160   6 C    3.952 --   163 C    1.352   159 C    1.344   161 N    1.112
   161   7 N    3.180 --   160 C    1.112   162 C    0.970   194 H    0.931
   162   6 C    3.967 --   197 H    0.990   195 H    0.986   196 H    0.984
                           161 N    0.970
   163   6 C    3.988 --   164 C    1.465   160 C    1.352   198 H    0.970
   164   6 C    3.987 --   163 C    1.465   157 C    1.384   199 H    0.973
   165   6 C    3.912 --   156 C    1.323   168 N    1.197   166 C    1.186
   166   6 C    3.959 --   167 C    1.632   165 C    1.186   200 H    0.973
   167   6 C    3.960 --   166 C    1.632   169 C    1.194   201 H    0.974
   168   7 N    3.335 --   169 C    1.236   165 C    1.197   149 Co   0.623
   169   6 C    3.904 --   170 C    1.250   168 N    1.236   167 C    1.194
   170   6 C    3.914 --   171 C    1.250   169 C    1.250   141 C    1.204
   171   6 C    3.904 --   170 C    1.250   175 N    1.234   172 C    1.196
   172   6 C    3.957 --   173 C    1.628   171 C    1.196   202 H    0.974
   173   6 C    3.960 --   172 C    1.628   174 C    1.188   203 H    0.973
   174   6 C    3.912 --   176 C    1.315   175 N    1.200   173 C    1.188
   175   7 N    3.335 --   171 C    1.234   174 C    1.200   149 Co   0.623
   176   6 C    3.921 --   185 C    1.318   174 C    1.315   177 C    1.044
   177   6 C    3.984 --   178 C    1.378   184 C    1.367   176 C    1.044
   178   6 C    3.984 --   179 C    1.469   177 C    1.378   204 H    0.972
   179   6 C    3.987 --   178 C    1.469   180 C    1.349   205 H    0.970
   180   6 C    3.949 --   179 C    1.349   183 C    1.340   181 N    1.116
   181   7 N    3.183 --   180 C    1.116   182 C    0.970   206 H    0.930
   182   6 C    3.967 --   208 H    0.990   209 H    0.986   207 H    0.983
                           181 N    0.970
   183   6 C    3.987 --   184 C    1.481   180 C    1.340   210 H    0.971
   184   6 C    3.985 --   183 C    1.481   177 C    1.367   211 H    0.972
   185   6 C    3.913 --   176 C    1.318   189 N    1.197   186 C    1.187
   186   6 C    3.959 --   187 C    1.628   185 C    1.187   212 H    0.973
   187   6 C    3.958 --   186 C    1.628   188 C    1.196   213 H    0.974
   188   6 C    3.904 --   150 C    1.249   189 N    1.236   187 C    1.196
   189   7 N    3.334 --   188 C    1.236   185 C    1.197   149 Co   0.623
   190   1 H    1.001 --   152 C    0.974
   191   1 H    1.005 --   153 C    0.972
   192   1 H    1.004 --   158 C    0.973
   193   1 H    0.999 --   159 C    0.971
   194   1 H    0.965 --   161 N    0.931
   195   1 H    1.012 --   162 C    0.986
   196   1 H    1.003 --   162 C    0.984
   197   1 H    1.007 --   162 C    0.990
   198   1 H    1.001 --   163 C    0.970
   199   1 H    1.004 --   164 C    0.973
   200   1 H    1.005 --   166 C    0.973
   201   1 H    1.001 --   167 C    0.974
   202   1 H    1.001 --   172 C    0.974
   203   1 H    1.005 --   173 C    0.973
   204   1 H    1.006 --   178 C    0.972
   205   1 H    1.001 --   179 C    0.970
   206   1 H    0.965 --   181 N    0.930
   207   1 H    1.003 --   182 C    0.983
   208   1 H    1.007 --   182 C    0.990
   209   1 H    1.011 --   182 C    0.986
   210   1 H    0.998 --   183 C    0.971
   211   1 H    1.005 --   184 C    0.972
   212   1 H    1.005 --   186 C    0.973
   213   1 H    1.001 --   187 C    0.974
 ---------------------------------------------------------------------------

           -------------------------------------------------
          | TOTAL ENERGY             -356.986944911910 Eh   |
          | GRADIENT NORM               0.000638237795 Eh/α |
          | HOMO-LUMO GAP               0.000133864107 eV   |
           -------------------------------------------------

 * finished run on 2022/07/29 at 23:18:28.708
