   * xtb version 6.5.1 (b24c23e) compiled by 'conda@728c89f4b128' on 2022-07-12
          program call               : xtb Zn_NMA_C4_2.xyz --gfn 1 --opt -T 48

   ID    Z sym.   atoms
    1   30 Zn     1, 67
    2    6 C      2-6, 8-12, 14-19, 21-26, 28-32, 34-40, 68-72, 74-78, 80-85,
                  87-92, 94-98, 100-106, 133-136
    3    7 N      7, 13, 20, 27, 33, 41, 73, 79, 86, 93, 99, 107
    4    1 H      42-66, 108-132
########################################################################
[WARNING] Please study the warnings concerning your input carefully
-1- prog_main_parseArguments: Unknown option '-T' provided
########################################################################

          :  Hamiltonian                  GFN1-xTB          :
 * total energy  :  -200.7071282 Eh     change       -0.1318966E-08 Eh
 * total energy  :  -214.7782913 Eh     change       -0.1407116E+02 Eh
 * total energy  :  -216.3619476 Eh     change       -0.1583656E+01 Eh
 * total energy  :  -217.2610019 Eh     change       -0.8990543E+00 Eh
 * total energy  :  -217.7870314 Eh     change       -0.5260295E+00 Eh
 * total energy  :  -218.0704723 Eh     change       -0.2834409E+00 Eh
 * total energy  :  -218.2530177 Eh     change       -0.1825454E+00 Eh
 * total energy  :  -218.3888666 Eh     change       -0.1358488E+00 Eh
 * total energy  :  -218.5046020 Eh     change       -0.1157354E+00 Eh
 * total energy  :  -218.5965420 Eh     change       -0.9194002E-01 Eh
 * total energy  :  -218.9853253 Eh     change       -0.6192217E-05 Eh
 * total energy  :  -218.9853323 Eh     change       -0.6920975E-05 Eh
 * total energy  :  -218.9853398 Eh     change       -0.7576756E-05 Eh
 * total energy  :  -218.9853475 Eh     change       -0.7680788E-05 Eh
 * total energy  :  -218.9853550 Eh     change       -0.7479852E-05 Eh
 * total energy  :  -218.9853622 Eh     change       -0.7152861E-05 Eh
 * total energy  :  -218.9853689 Eh     change       -0.6765028E-05 Eh
 * total energy  :  -218.9853750 Eh     change       -0.6038271E-05 Eh
 * total energy  :  -218.9853797 Eh     change       -0.4740624E-05 Eh
   *** GEOMETRY OPTIMIZATION CONVERGED AFTER 91 ITERATIONS ***

 final structure:
================
136
 xtb: 6.5.1 (b24c23e)
Zn          17.58508111269740        0.01556183663337        0.00274708036269
C           14.17517175622704        0.04862823733464       -0.02131380635498
C           14.79713298615581        0.99007721018077        0.79038636061337
C           14.11535604587267        1.93072137803753        1.63378834396862
C           15.06860802091264        2.66699772080211        2.25892888925450
C           16.34530667902739        2.19346516498849        1.79469190076029
N           16.14510462639459        1.17013492824204        0.91447509753681
C           17.59239662458577        2.68967771777099        2.19708700027256
C           17.59833134983397        3.83285573407214        3.14132962168074
C           16.99722248589857        5.04748380711427        2.80002555248832
C           17.00945960154934        6.11455861827558        3.67869313594470
C           17.61562233544856        5.99498509749782        4.93504882288909
N           17.64828966587202        7.10977620641656        5.76184448426415
C           17.80536957034591        6.93397994683370        7.19947591648319
C           18.22182899071907        4.78402153387143        5.28037611814180
C           18.21039424555185        3.72265465623729        4.39116608300183
C           18.83491333312630        2.19591725941008        1.78174294139862
C           20.11017954507648        2.74851867315829        2.14515804248718
C           21.06219995410726        1.99313768682980        1.53945204424651
N           19.03668653333355        1.12745120024877        0.94858351624430
C           20.37955669127176        0.97916873411673        0.79191637447031
C           21.01833088014806       -0.01365092509069        0.02144814551515
C           20.37202495898536       -0.99700027924153       -0.75478471717860
C           21.04577784182082       -2.02298532298669       -1.49401319742142
C           20.08783166606271       -2.76406043996790       -2.10809402349894
C           18.81804414595349       -2.19006480183592       -1.75881030219924
N           19.02862099902399       -1.12360608823656       -0.92521459462997
C           17.57176499273709       -2.66272769691969       -2.18698420747055
C           17.56514778691325       -3.81080074934288       -3.12537307483357
C           18.18964099186359       -3.72062850019106       -4.37057064382223
C           18.18298935967182       -4.78613658819661       -5.25503595940375
C           17.54536015921450       -5.98076527418525       -4.90950686486062
N           17.55520884095987       -7.09879927115833       -5.73265291913525
C           17.72381744956506       -6.93079659312902       -7.17002462784200
C           16.92849691787804       -6.08120747997486       -3.65667325224092
C           16.93454945872539       -5.01017033595775       -2.78290084540313
C           16.32916795777234       -2.14122360508783       -1.80263394319275
C           15.05020335772144       -2.59047197352899       -2.28456969199597
C           14.10268276022969       -1.83393837936424       -1.67515379525443
C           14.79049031672577       -0.90537971379393       -0.82333749726726
N           16.13636633166694       -1.11216912662295       -0.92750595557079
H           13.08944973377948        0.05921092599419       -0.02936739444205
H           13.04360256050965        2.00348323610347        1.73509999848730
H           14.92335730277046        3.45378706732364        2.98197161965000
H           16.53421084092037        5.15947514105023        1.82560411842459
H           16.54905320495764        7.05553126548950        3.39603264087008
H           16.92698635173345        7.78384672052174        5.53450697553413
H           18.80863760368073        6.56970290943217        7.42405156723528
H           17.06756523156551        6.23092937034037        7.60321432328665
H           17.67364813935903        7.90651479487093        7.67397312797457
H           18.70559566416979        4.66289951797648        6.24186911208600
H           18.66904859891540        2.78252114961659        4.67824159270715
H           20.25799853532907        3.61417579073506        2.77056079045975
H           22.13318863488719        2.11223358719708        1.58357444228071
H           22.11514903294048       -2.15922424481048       -1.52696326956757
H           20.22783588747647       -3.63286643743785       -2.73095982642526
H           18.67185654218037       -2.79263521329376       -4.65856061475141
H           18.67649950525493       -4.68071637688491       -6.21346141561536
H           16.81540498028251       -7.75333908576414       -5.50754636972730
H           17.00890819497117       -6.20712146695943       -7.57844294953089
H           17.56546590022948       -7.89999155223936       -7.64315508351417
H           18.73840872272509       -6.59676202370179       -7.39076479613305
H           16.44429993214909       -7.00997776960924       -3.37336892930722
H           16.46167874444110       -5.10677002789635       -1.81154221415710
H           14.89992735362357       -3.37570171743607       -3.00827158636932
H           13.03132106194409       -1.88558197909859       -1.79229754452617
Zn          31.05706976776129       -0.01023723506764       -0.00793510306062
C           34.46687269502573        0.00995104899695       -0.05472108250768
C           33.84407950556228       -0.98843612296211       -0.79455141328405
C           34.52500756772216       -2.01551524176172       -1.53105811359195
C           33.57102840375787       -2.78706454385082       -2.11091290981269
C           32.29470452604655       -2.23261895163994       -1.74583487062063
N           32.49588274718482       -1.15058321610118       -0.93913660131903
C           31.04716843500284       -2.73488174766463       -2.13911113731210
C           31.04014206574335       -3.90441644036355       -3.05058091104860
C           31.63535276646828       -3.83215742265611       -4.31296150432473
C           31.62130494717055       -4.92045505298503       -5.16516638870673
C           31.01939145091924       -6.12258903433014       -4.77437263107249
N           30.98424764878957       -7.17042298220888       -5.68449366203330
C           30.83357459425327       -8.53674823690980       -5.20197928094273
C           30.41944771282289       -6.19968025845601       -3.51449180106211
C           30.43242661921944       -5.10223031753888       -2.67019975105036
C           29.80510532589984       -2.22335590730090       -1.74457010261137
C           28.52924626329974       -2.69968415802778       -2.20176748968188
C           27.57797140252679       -1.94349812837787       -1.59592004178782
N           29.60438967157251       -1.17689672166324       -0.88369470516419
C           28.26164921946543       -0.99185459631176       -0.77132333843948
C           27.62389771602946       -0.02253411021175        0.02930278274630
C           28.27124418949444        0.94862566180072        0.81988929641204
C           27.59859319766033        1.89271087366660        1.66203633406140
C           28.55727038191641        2.65350545752792        2.25034504629734
C           29.82638057540327        2.18874847657740        1.76330832229012
N           29.61473285705894        1.14290164230329        0.90425630542105
C           31.07302128157265        2.71153348810864        2.12755482691145
C           31.08049048795007        3.87924468945290        3.04127177421310
C           30.45066020698101        5.07215388046806        2.68207452251020
C           30.45809738910632        6.16966370868503        3.52644773501393
C           31.10218921775466        6.09785400394913        4.76462407661690
N           31.09390421951597        7.14725162188755        5.67361706564049
C           30.91714293376713        8.51150437440513        5.19378381368927
C           31.72444496015933        4.89978232878003        5.13561896262232
C           31.71734491199910        3.81139508215953        4.28355852690678
C           32.31507157141206        2.22413789444615        1.69907007158921
C           33.59425938465994        2.79467126187679        2.02774306389679
C           34.54098486054638        2.03569614238058        1.42012709107442
C           33.85243502975431        1.00019967261982        0.70283642595286
N           32.50691616380933        1.14513264462707        0.88608196595439
H           35.55254484295550        0.01706484943571       -0.07010377544366
H           35.59676349117640       -2.12878309756043       -1.58327663693113
H           33.71548337254999       -3.66367356737413       -2.72216274324640
H           32.09512224413270       -2.90396768940387       -4.63468394014031
H           32.07689999673157       -4.84661907962206       -6.14715255614765
H           31.70154848426738       -7.09193708385213       -6.39559690085764
H           29.83345925764084       -8.67984020700694       -4.79095290961886
H           31.57727789939596       -8.77782414199481       -4.43358988417024
H           30.96095137506846       -9.20934570005350       -6.05033658399460
H           29.93917440842864       -7.11338848173875       -3.18637795792428
H           29.97832498649692       -5.18041926669835       -1.68820127587786
H           28.38057200982444       -3.49977976361512       -2.90893436125023
H           26.50682756081418       -2.01312803503452       -1.70057159494335
H           26.52943750831000        1.95379838405749        1.78999897411349
H           28.41813907856683        3.44984998740416        2.96369227769823
H           29.96374279696281        5.14725765128669        1.71569135954714
H           29.96029404642145        7.07979195602728        3.21484107686493
H           31.83789659037608        7.07480117767056        6.35742540404886
H           31.62568322372573        8.75271108948771        4.39291729518134
H           31.07884678913107        9.18742908922603        6.03356700208172
H           29.89949613332273        8.64944024587565        4.82625103444107
H           32.21364781891874        4.82958100969101        6.10157025925842
H           32.19419214099645        2.88653163676688        4.58972237335223
H           33.74526051985009        3.67316045537159        2.63466880403007
H           35.61222407107523        2.16295757676886        1.44138823725060
C           23.64630714588932       -0.02409842221394        0.03377565988560
C           22.42394350205659       -0.02213831763000        0.02752738457784
C           24.99588763668440       -0.02563378205421        0.03638290403795
C           26.21827260748385       -0.02382678533395        0.03717503650015

          :  Hamiltonian                  GFN1-xTB          :
         :: total energy            -218.985379698619 Eh    ::
         :: gradient norm              0.000158156630 Eh/a0 ::
         :: HOMO-LUMO gap              1.040093956208 eV    ::
         :: SCC energy              -222.445941702726 Eh    ::
         :: repulsion energy           3.575683276626 Eh    ::

    * Orbital Energies and Occupations

         #    Occupation            Energy/Eh            Energy/eV
      -------------------------------------------------------------
         1        2.0000           -0.7745246             -21.0759
       ...           ...                  ...                  ...
       189        2.0000           -0.4097731             -11.1505
       190        2.0000           -0.4097050             -11.1486
       191        2.0000           -0.4097024             -11.1486
       192        2.0000           -0.4083430             -11.1116
       193        2.0000           -0.4072574             -11.0820
       194        2.0000           -0.3912919             -10.6476
       195        2.0000           -0.3888145             -10.5802
       196        2.0000           -0.3871689             -10.5354
       197        2.0000           -0.3871678             -10.5354
       198        2.0000           -0.3822150             -10.4006
       199        2.0000           -0.3822137             -10.4006
       200        2.0000           -0.3739052             -10.1745
       201        2.0000           -0.3632008              -9.8832 (HOMO)
       202                         -0.3249780              -8.8431 (LUMO)
       203                         -0.3140306              -8.5452
       204                         -0.3140301              -8.5452
       205                         -0.3111311              -8.4663
       206                         -0.2843274              -7.7369
       207                         -0.2765637              -7.5257
       208                         -0.2518883              -6.8542
       209                         -0.2518857              -6.8542
       210                         -0.2518581              -6.8534
       211                         -0.2518549              -6.8533
       212                         -0.2446505              -6.6573
       ...                                ...                  ...
       444                          1.5303171              41.6420
      -------------------------------------------------------------
                  HL-Gap            0.0382227 Eh            1.0401 eV

Wiberg/Mayer (AO) data.
largest (>0.10) Wiberg bond orders for each atom

     #   Z sym  total        # sym  WBO       # sym  WBO       # sym  WBO
 ---------------------------------------------------------------------------
     1  30 Zn   2.001 --    41 N    0.460     7 N    0.460    20 N    0.458
                            27 N    0.457
     2   6 C    3.925 --    40 C    1.356     3 C    1.356    42 H    0.972
     3   6 C    3.923 --     2 C    1.356     7 N    1.233     4 C    1.173
     4   6 C    3.959 --     5 C    1.654     3 C    1.173    43 H    0.976
     5   6 C    3.963 --     4 C    1.654     6 C    1.175    44 H    0.973
     6   6 C    3.916 --     8 C    1.311     7 N    1.244     5 C    1.175
     7   7 N    3.292 --     6 C    1.244     3 C    1.233     1 Zn   0.460
     8   6 C    3.933 --    17 C    1.321     6 C    1.311     9 C    1.034
     9   6 C    3.988 --    16 C    1.385    10 C    1.375     8 C    1.034
    10   6 C    3.987 --    11 C    1.475     9 C    1.375    45 H    0.973
    11   6 C    3.989 --    10 C    1.475    12 C    1.347    46 H    0.972
                            16 C    0.100
    12   6 C    3.952 --    15 C    1.355    11 C    1.347    13 N    1.106
    13   7 N    3.176 --    12 C    1.106    14 C    0.972    47 H    0.932
    14   6 C    3.968 --    50 H    0.990    48 H    0.986    49 H    0.984
                            13 N    0.972
    15   6 C    3.990 --    16 C    1.463    12 C    1.355    51 H    0.970
    16   6 C    3.987 --    15 C    1.463     9 C    1.385    52 H    0.973
                            11 C    0.100
    17   6 C    3.912 --     8 C    1.321    20 N    1.225    18 C    1.181
    18   6 C    3.960 --    19 C    1.643    17 C    1.181    53 H    0.973
    19   6 C    3.961 --    18 C    1.643    21 C    1.189    54 H    0.974
    20   7 N    3.297 --    21 C    1.262    17 C    1.225     1 Zn   0.458
    21   6 C    3.903 --    20 N    1.262    22 C    1.253    19 C    1.189
    22   6 C    3.936 --    23 C    1.253    21 C    1.253   134 C    1.191
    23   6 C    3.904 --    27 N    1.262    22 C    1.253    24 C    1.189
    24   6 C    3.961 --    25 C    1.643    23 C    1.189    55 H    0.974
    25   6 C    3.960 --    24 C    1.643    26 C    1.181    56 H    0.973
    26   6 C    3.912 --    28 C    1.321    27 N    1.225    25 C    1.181
    27   7 N    3.297 --    23 C    1.262    26 C    1.225     1 Zn   0.457
    28   6 C    3.933 --    26 C    1.321    37 C    1.311    29 C    1.034
    29   6 C    3.988 --    30 C    1.385    36 C    1.375    28 C    1.034
    30   6 C    3.987 --    31 C    1.463    29 C    1.385    57 H    0.973
                            35 C    0.100
    31   6 C    3.990 --    30 C    1.463    32 C    1.355    58 H    0.970
    32   6 C    3.952 --    31 C    1.355    35 C    1.347    33 N    1.105
    33   7 N    3.176 --    32 C    1.105    34 C    0.972    59 H    0.932
    34   6 C    3.968 --    61 H    0.990    62 H    0.986    60 H    0.984
                            33 N    0.972
    35   6 C    3.989 --    36 C    1.475    32 C    1.347    63 H    0.972
                            30 C    0.100
    36   6 C    3.987 --    35 C    1.475    29 C    1.375    64 H    0.973
    37   6 C    3.916 --    28 C    1.311    41 N    1.244    38 C    1.175
    38   6 C    3.963 --    39 C    1.654    37 C    1.175    65 H    0.973
    39   6 C    3.959 --    38 C    1.654    40 C    1.173    66 H    0.976
    40   6 C    3.923 --     2 C    1.356    41 N    1.232    39 C    1.173
    41   7 N    3.293 --    37 C    1.244    40 C    1.232     1 Zn   0.460
    42   1 H    1.002 --     2 C    0.972
    43   1 H    0.999 --     4 C    0.976
    44   1 H    1.006 --     5 C    0.973
    45   1 H    1.005 --    10 C    0.973
    46   1 H    0.999 --    11 C    0.972
    47   1 H    0.966 --    13 N    0.932
    48   1 H    1.012 --    14 C    0.986
    49   1 H    1.004 --    14 C    0.984
    50   1 H    1.007 --    14 C    0.990
    51   1 H    1.001 --    15 C    0.970
    52   1 H    1.006 --    16 C    0.973
    53   1 H    1.006 --    18 C    0.973
    54   1 H    1.003 --    19 C    0.974
    55   1 H    1.003 --    24 C    0.974
    56   1 H    1.006 --    25 C    0.973
    57   1 H    1.006 --    30 C    0.973
    58   1 H    1.001 --    31 C    0.970
    59   1 H    0.966 --    33 N    0.932
    60   1 H    1.004 --    34 C    0.984
    61   1 H    1.007 --    34 C    0.990
    62   1 H    1.012 --    34 C    0.986
    63   1 H    0.999 --    35 C    0.972
    64   1 H    1.005 --    36 C    0.973
    65   1 H    1.006 --    38 C    0.973
    66   1 H    0.999 --    39 C    0.976
    67  30 Zn   2.001 --   107 N    0.460    73 N    0.460    86 N    0.458
                            93 N    0.457
    68   6 C    3.925 --   106 C    1.356    69 C    1.356   108 H    0.972
    69   6 C    3.923 --    68 C    1.356    73 N    1.233    70 C    1.173
    70   6 C    3.959 --    71 C    1.654    69 C    1.173   109 H    0.976
    71   6 C    3.963 --    70 C    1.654    72 C    1.175   110 H    0.973
    72   6 C    3.916 --    74 C    1.311    73 N    1.244    71 C    1.175
    73   7 N    3.292 --    72 C    1.244    69 C    1.233    67 Zn   0.460
    74   6 C    3.933 --    83 C    1.321    72 C    1.311    75 C    1.034
    75   6 C    3.988 --    82 C    1.385    76 C    1.375    74 C    1.034
    76   6 C    3.987 --    77 C    1.475    75 C    1.375   111 H    0.973
    77   6 C    3.989 --    76 C    1.475    78 C    1.347   112 H    0.972
                            82 C    0.100
    78   6 C    3.952 --    81 C    1.355    77 C    1.347    79 N    1.106
    79   7 N    3.176 --    78 C    1.106    80 C    0.972   113 H    0.932
    80   6 C    3.968 --   116 H    0.990   114 H    0.986   115 H    0.984
                            79 N    0.972
    81   6 C    3.990 --    82 C    1.463    78 C    1.355   117 H    0.970
    82   6 C    3.987 --    81 C    1.463    75 C    1.385   118 H    0.973
                            77 C    0.100
    83   6 C    3.912 --    74 C    1.321    86 N    1.225    84 C    1.181
    84   6 C    3.960 --    85 C    1.643    83 C    1.181   119 H    0.973
    85   6 C    3.961 --    84 C    1.643    87 C    1.189   120 H    0.974
    86   7 N    3.297 --    87 C    1.262    83 C    1.225    67 Zn   0.458
    87   6 C    3.903 --    86 N    1.262    88 C    1.253    85 C    1.189
    88   6 C    3.936 --    89 C    1.253    87 C    1.253   136 C    1.191
    89   6 C    3.904 --    93 N    1.262    88 C    1.253    90 C    1.189
    90   6 C    3.961 --    91 C    1.643    89 C    1.189   121 H    0.974
    91   6 C    3.960 --    90 C    1.643    92 C    1.181   122 H    0.973
    92   6 C    3.912 --    94 C    1.321    93 N    1.225    91 C    1.181
    93   7 N    3.297 --    89 C    1.262    92 C    1.225    67 Zn   0.457
    94   6 C    3.933 --    92 C    1.321   103 C    1.310    95 C    1.034
    95   6 C    3.988 --    96 C    1.385   102 C    1.375    94 C    1.034
    96   6 C    3.987 --    97 C    1.463    95 C    1.385   123 H    0.973
                           101 C    0.100
    97   6 C    3.990 --    96 C    1.463    98 C    1.355   124 H    0.970
    98   6 C    3.952 --    97 C    1.355   101 C    1.347    99 N    1.106
    99   7 N    3.176 --    98 C    1.106   100 C    0.972   125 H    0.932
   100   6 C    3.968 --   127 H    0.990   128 H    0.986   126 H    0.984
                            99 N    0.972
   101   6 C    3.989 --   102 C    1.475    98 C    1.347   129 H    0.972
                            96 C    0.100
   102   6 C    3.987 --   101 C    1.475    95 C    1.375   130 H    0.973
   103   6 C    3.916 --    94 C    1.310   107 N    1.245   104 C    1.175
   104   6 C    3.963 --   105 C    1.654   103 C    1.175   131 H    0.973
   105   6 C    3.959 --   104 C    1.654   106 C    1.174   132 H    0.976
   106   6 C    3.923 --    68 C    1.356   107 N    1.232   105 C    1.174
   107   7 N    3.293 --   103 C    1.245   106 C    1.232    67 Zn   0.460
   108   1 H    1.002 --    68 C    0.972
   109   1 H    0.999 --    70 C    0.976
   110   1 H    1.006 --    71 C    0.973
   111   1 H    1.005 --    76 C    0.973
   112   1 H    0.999 --    77 C    0.972
   113   1 H    0.966 --    79 N    0.932
   114   1 H    1.012 --    80 C    0.986
   115   1 H    1.004 --    80 C    0.984
   116   1 H    1.007 --    80 C    0.990
   117   1 H    1.001 --    81 C    0.970
   118   1 H    1.006 --    82 C    0.973
   119   1 H    1.006 --    84 C    0.973
   120   1 H    1.003 --    85 C    0.974
   121   1 H    1.003 --    90 C    0.974
   122   1 H    1.006 --    91 C    0.973
   123   1 H    1.006 --    96 C    0.973
   124   1 H    1.001 --    97 C    0.970
   125   1 H    0.966 --    99 N    0.932
   126   1 H    1.004 --   100 C    0.984
   127   1 H    1.007 --   100 C    0.990
   128   1 H    1.012 --   100 C    0.986
   129   1 H    0.999 --   101 C    0.972
   130   1 H    1.005 --   102 C    0.973
   131   1 H    1.006 --   104 C    0.973
   132   1 H    0.999 --   105 C    0.976
   133   6 C    3.934 --   134 C    2.473   135 C    1.310
   134   6 C    3.925 --   133 C    2.473    22 C    1.191   136 C    0.199
   135   6 C    3.934 --   136 C    2.473   133 C    1.310
   136   6 C    3.925 --   135 C    2.473    88 C    1.191   134 C    0.199
 ---------------------------------------------------------------------------

           -------------------------------------------------
          | TOTAL ENERGY             -218.985379698619 Eh   |
          | GRADIENT NORM               0.000158156630 Eh/α |
          | HOMO-LUMO GAP               1.040093956208 eV   |
           -------------------------------------------------

 * finished run on 2022/07/30 at 08:53:00.030
