   * xtb version 6.5.1 (b24c23e) compiled by 'conda@728c89f4b128' on 2022-07-12
          program call               : xtb Zn_H_C2_2.xyz --gfn 1 --opt -T 48

   ID    Z sym.   atoms
    1   30 Zn     1, 37
    2    6 C      2-6, 8-11, 13-18, 20-24, 38-42, 44-47, 49-54, 56-60, 73, 74
    3    7 N      7, 12, 19, 25, 43, 48, 55, 61
    4    1 H      26-36, 62-72
########################################################################
[WARNING] Please study the warnings concerning your input carefully
-1- prog_main_parseArguments: Unknown option '-T' provided
########################################################################

          :  Hamiltonian                  GFN1-xTB          :
 * total energy  :  -127.5852726 Eh     change       -0.2921752E-10 Eh
 * total energy  :  -127.6599986 Eh     change       -0.7472596E-01 Eh
 * total energy  :  -127.7013449 Eh     change       -0.4134634E-01 Eh
 * total energy  :  -127.7080434 Eh     change       -0.6698534E-02 Eh
 * total energy  :  -127.7112243 Eh     change       -0.3180925E-02 Eh
 * total energy  :  -127.7126932 Eh     change       -0.1468840E-02 Eh
 * total energy  :  -127.7136641 Eh     change       -0.9709030E-03 Eh
 * total energy  :  -127.7140690 Eh     change       -0.4049256E-03 Eh
 * total energy  :  -127.7142105 Eh     change       -0.1415180E-03 Eh
 * total energy  :  -127.7142823 Eh     change       -0.7174356E-04 Eh
 * total energy  :  -127.7146323 Eh     change       -0.9022903E-05 Eh
 * total energy  :  -127.7146422 Eh     change       -0.9966208E-05 Eh
 * total energy  :  -127.7146524 Eh     change       -0.1016921E-04 Eh
 * total energy  :  -127.7146620 Eh     change       -0.9652531E-05 Eh
 * total energy  :  -127.7146707 Eh     change       -0.8689818E-05 Eh
 * total energy  :  -127.7146785 Eh     change       -0.7812253E-05 Eh
 * total energy  :  -127.7146858 Eh     change       -0.7207144E-05 Eh
 * total energy  :  -127.7146927 Eh     change       -0.6979900E-05 Eh
 * total energy  :  -127.7146963 Eh     change       -0.3570290E-05 Eh
   *** GEOMETRY OPTIMIZATION CONVERGED AFTER 44 ITERATIONS ***

 final structure:
================
74
 xtb: 6.5.1 (b24c23e)
Zn           9.06364412161660       -0.04069968823721       -0.01619140367977
C            5.63663548945174       -0.06327467409036       -0.02239984856302
C            6.26836402048196       -0.96177536599857       -0.87542198167900
C            5.60335707176970       -1.88822926872400       -1.75275219193083
C            6.56914671804371       -2.58605154440215       -2.40135501430737
C            7.83549987368444       -2.09459004066707       -1.92765537674861
N            7.61766120816376       -1.11077131713647       -1.00832739400030
C            9.08314463154748       -2.55382445332919       -2.33480562213643
C           10.32348188289776       -2.10329567263054       -1.89767964200998
C           11.59310810196020       -2.60669994085375       -2.34297583850886
C           12.55159201677105       -1.90100029669486       -1.68993857792847
N           10.53306934864164       -1.10709582350514       -0.98386337856257
C           11.87705474576159       -0.95996969211042       -0.84005509454254
C           12.51354492354115       -0.01537368677739       -0.01263479597182
C           11.86137299947914        0.91896540209269        0.81432159975619
C           12.52033261573034        1.86813925853036        1.66737519591538
C           11.55032119796406        2.55799743354434        2.32026530808206
C           10.28913643088214        2.03707614790978        1.87121129645708
N           10.51511985173797        1.04599472829484        0.95572791584292
C            9.04148739835530        2.46913476199465        2.30606784037370
C            7.80151399680443        1.99393662732469        1.89388224508202
C            6.52710704124540        2.46802644171427        2.36361973440659
C            5.57294672606669        1.75917929655593        1.70979126224137
C            6.25329424410918        0.84277348169836        0.83366265262970
N            7.60001534296603        1.00902180622628        0.97201745795809
H            4.55106595997487       -0.07019278302488       -0.02467087064195
H            4.53279697212663       -1.98191133479377       -1.84973046029352
H            6.44912278259732       -3.36652821275044       -3.13670518284691
H            9.09015030413148       -3.34990551487095       -3.07309470137830
H           11.72266945665189       -3.39795719871962       -3.06484885974827
H           13.62268142620162       -1.99876091521343       -1.77249097369437
H           13.58967909901861        1.98155625572616        1.75227564120653
H           11.66687771709060        3.34928743685160        3.04430129028929
H            9.03541964589852        3.26350521025748        3.04619451645968
H            6.39421951366178        3.24544803493919        3.09999063926906
H            4.50089999769854        1.83898138537013        1.80264989156820
Zn          20.00261158056682        0.04100476756324        0.01540333439784
C           23.42962020948421        0.06188106339260        0.02600352578942
C           22.79789244461893        1.30052768078082       -0.00056283790228
C           23.46290020811376        2.57620842387943       -0.02630469160286
C           22.49711113431423        3.52885504464205       -0.03665596285509
C           21.23075750246209        2.84655529921379       -0.01686554586552
N           21.44859537299623        1.50017809459935        0.00135440980535
C           19.98311311309847        3.46023951567242       -0.00910938274921
C           18.74277547489773        2.83282964006703        0.01116707515241
C           17.47314968182097        3.50485641513196        0.02042235076874
C           16.51466517025672        2.54339966956577        0.02875438672876
N           18.53318718693341        1.48100120366112        0.01697910746369
C           17.18920164762293        1.27540026490518        0.02438279725162
C           16.55271079576727        0.01987721375774        0.00099390691150
C           17.20488203534282       -1.22774610411257       -0.01583792860340
C           16.54592158927019       -2.50390205226922       -0.02334150645147
C           17.51593244411623       -3.45354124658064       -0.00446534353947
C           18.77711763072413       -2.76602836278211        0.01379602349814
N           18.55113504598943       -1.41686467021806        0.00331144922908
C           20.02476624966879       -3.37824843141850        0.04481881555450
C           21.26473999971066       -2.74936767893839        0.05959423066525
C           22.53914650885726       -3.41615132512069        0.08814527966338
C           23.49330740277437       -2.45183361276541        0.08135025959680
C           22.81296067634229       -1.18439417839450        0.04973802473760
N           21.46623946728609       -1.40047297163299        0.04023974969302
H           24.51518973420370        0.06852652747787        0.02897976658956
H           24.53346038272477        2.71076311823405       -0.03501966267569
H           22.61713575125911        4.60101439208302       -0.05557319873931
H           19.97610814615130        4.54592075818903       -0.01970120828899
H           17.34358900772498        4.57592410059443        0.01872789625212
H           15.44357582686384        2.67126720213353        0.03345412552269
H           15.47657501061107       -2.64493099777224       -0.03683742784624
H           17.39937525793725       -4.52608831059834       -0.00119639385038
H           20.03083333518848       -4.46390046750679        0.05791932424669
H           22.67203335006521       -4.48673742044874        0.10987125223745
H           24.56535403516354       -2.57334920331992        0.09635930865449
C           13.92530394692398       -0.00408892876797       -0.01080883369162
C           15.14095176738382        0.01030028268869       -0.00524475413172

          :  Hamiltonian                  GFN1-xTB          :
         :: total energy            -127.714696301394 Eh    ::
         :: gradient norm              0.000208116097 Eh/a0 ::
         :: HOMO-LUMO gap              1.216372397828 eV    ::
         :: SCC energy              -129.707328830137 Eh    ::
         :: repulsion energy           2.056699034759 Eh    ::

    * Orbital Energies and Occupations

         #    Occupation            Energy/Eh            Energy/eV
      -------------------------------------------------------------
         1        2.0000           -0.7562019             -20.5773
       ...           ...                  ...                  ...
       105        2.0000           -0.4277774             -11.6404
       106        2.0000           -0.4189622             -11.4005
       107        2.0000           -0.4189549             -11.4003
       108        2.0000           -0.4181722             -11.3790
       109        2.0000           -0.4181639             -11.3788
       110        2.0000           -0.4178454             -11.3702
       111        2.0000           -0.4172217             -11.3532
       112        2.0000           -0.4171639             -11.3516
       113        2.0000           -0.4165182             -11.3340
       114        2.0000           -0.3899197             -10.6103
       115        2.0000           -0.3899143             -10.6101
       116        2.0000           -0.3880219             -10.5586
       117        2.0000           -0.3758684             -10.2279 (HOMO)
       118                         -0.3311676              -9.0115 (LUMO)
       119                         -0.3223883              -8.7726
       120                         -0.3223845              -8.7725
       121                         -0.3178114              -8.6481
       122                         -0.2891114              -7.8671
       123                         -0.2821736              -7.6783
       124                         -0.2195158              -5.9733
       125                         -0.2195138              -5.9733
       126                         -0.2067199              -5.6251
       127                         -0.2023736              -5.5069
       128                         -0.1999439              -5.4408
       ...                                ...                  ...
       252                          1.3480385              36.6820
      -------------------------------------------------------------
                  HL-Gap            0.0447009 Eh            1.2164 eV

Wiberg/Mayer (AO) data.
largest (>0.10) Wiberg bond orders for each atom

     #   Z sym  total        # sym  WBO       # sym  WBO       # sym  WBO
 ---------------------------------------------------------------------------
     1  30 Zn   1.999 --     7 N    0.461    25 N    0.461    19 N    0.457
                            12 N    0.457
     2   6 C    3.935 --     3 C    1.358    24 C    1.358    26 H    0.972
     3   6 C    3.922 --     2 C    1.358     7 N    1.239     4 C    1.166
     4   6 C    3.961 --     5 C    1.666     3 C    1.166    27 H    0.976
     5   6 C    3.963 --     4 C    1.666     6 C    1.166    28 H    0.976
     6   6 C    3.920 --     8 C    1.357     7 N    1.237     5 C    1.166
     7   7 N    3.298 --     3 C    1.239     6 C    1.237     1 Zn   0.461
     8   6 C    3.940 --     9 C    1.362     6 C    1.357    29 H    0.972
     9   6 C    3.915 --     8 C    1.362    12 N    1.224    10 C    1.173
    10   6 C    3.960 --    11 C    1.654     9 C    1.173    30 H    0.976
    11   6 C    3.963 --    10 C    1.654    13 C    1.180    31 H    0.973
    12   7 N    3.301 --    13 C    1.263     9 C    1.224     1 Zn   0.457
    13   6 C    3.910 --    14 C    1.266    12 N    1.263    11 C    1.180
    14   6 C    3.944 --    13 C    1.266    15 C    1.266    73 C    1.165
    15   6 C    3.910 --    14 C    1.266    19 N    1.263    16 C    1.180
    16   6 C    3.963 --    17 C    1.654    15 C    1.180    32 H    0.973
    17   6 C    3.960 --    16 C    1.654    18 C    1.173    33 H    0.976
    18   6 C    3.915 --    20 C    1.362    19 N    1.224    17 C    1.173
    19   7 N    3.301 --    15 C    1.263    18 C    1.224     1 Zn   0.457
    20   6 C    3.940 --    18 C    1.362    21 C    1.357    34 H    0.972
    21   6 C    3.920 --    20 C    1.357    25 N    1.237    22 C    1.166
    22   6 C    3.963 --    23 C    1.666    21 C    1.166    35 H    0.976
    23   6 C    3.961 --    22 C    1.666    24 C    1.166    36 H    0.976
    24   6 C    3.922 --     2 C    1.358    25 N    1.239    23 C    1.166
    25   7 N    3.298 --    24 C    1.239    21 C    1.237     1 Zn   0.461
    26   1 H    1.002 --     2 C    0.972
    27   1 H    0.998 --     4 C    0.976
    28   1 H    0.998 --     5 C    0.976
    29   1 H    1.002 --     8 C    0.972
    30   1 H    0.998 --    10 C    0.976
    31   1 H    1.004 --    11 C    0.973
    32   1 H    1.004 --    16 C    0.973
    33   1 H    0.998 --    17 C    0.976
    34   1 H    1.002 --    20 C    0.972
    35   1 H    0.998 --    22 C    0.976
    36   1 H    0.998 --    23 C    0.976
    37  30 Zn   1.999 --    43 N    0.461    61 N    0.461    55 N    0.457
                            48 N    0.457
    38   6 C    3.935 --    39 C    1.358    60 C    1.358    62 H    0.972
    39   6 C    3.922 --    38 C    1.358    43 N    1.239    40 C    1.166
    40   6 C    3.961 --    41 C    1.666    39 C    1.166    63 H    0.976
    41   6 C    3.963 --    40 C    1.666    42 C    1.166    64 H    0.976
    42   6 C    3.920 --    44 C    1.357    43 N    1.237    41 C    1.166
    43   7 N    3.298 --    39 C    1.239    42 C    1.237    37 Zn   0.461
    44   6 C    3.940 --    45 C    1.362    42 C    1.357    65 H    0.972
    45   6 C    3.915 --    44 C    1.362    48 N    1.224    46 C    1.173
    46   6 C    3.960 --    47 C    1.654    45 C    1.173    66 H    0.976
    47   6 C    3.963 --    46 C    1.654    49 C    1.180    67 H    0.973
    48   7 N    3.301 --    49 C    1.263    45 C    1.224    37 Zn   0.457
    49   6 C    3.910 --    50 C    1.266    48 N    1.263    47 C    1.180
    50   6 C    3.944 --    49 C    1.266    51 C    1.266    74 C    1.165
    51   6 C    3.910 --    50 C    1.266    55 N    1.263    52 C    1.180
    52   6 C    3.963 --    53 C    1.654    51 C    1.180    68 H    0.973
    53   6 C    3.960 --    52 C    1.654    54 C    1.173    69 H    0.976
    54   6 C    3.915 --    56 C    1.362    55 N    1.224    53 C    1.173
    55   7 N    3.301 --    51 C    1.263    54 C    1.224    37 Zn   0.457
    56   6 C    3.940 --    54 C    1.362    57 C    1.357    70 H    0.972
    57   6 C    3.920 --    56 C    1.357    61 N    1.237    58 C    1.166
    58   6 C    3.963 --    59 C    1.666    57 C    1.166    71 H    0.976
    59   6 C    3.961 --    58 C    1.666    60 C    1.166    72 H    0.976
    60   6 C    3.922 --    38 C    1.358    61 N    1.239    59 C    1.166
    61   7 N    3.298 --    60 C    1.239    57 C    1.237    37 Zn   0.461
    62   1 H    1.002 --    38 C    0.972
    63   1 H    0.998 --    40 C    0.976
    64   1 H    0.998 --    41 C    0.976
    65   1 H    1.002 --    44 C    0.972
    66   1 H    0.998 --    46 C    0.976
    67   1 H    1.004 --    47 C    0.973
    68   1 H    1.004 --    52 C    0.973
    69   1 H    0.998 --    53 C    0.976
    70   1 H    1.002 --    56 C    0.972
    71   1 H    0.998 --    58 C    0.976
    72   1 H    0.998 --    59 C    0.976
    73   6 C    3.933 --    74 C    2.587    14 C    1.165
    74   6 C    3.933 --    73 C    2.587    50 C    1.165
 ---------------------------------------------------------------------------

           -------------------------------------------------
          | TOTAL ENERGY             -127.714696301394 Eh   |
          | GRADIENT NORM               0.000208116097 Eh/α |
          | HOMO-LUMO GAP               1.216372397828 eV   |
           -------------------------------------------------

 * finished run on 2022/07/30 at 06:54:27.922
