   * xtb version 6.5.1 (b24c23e) compiled by 'conda@728c89f4b128' on 2022-07-12
          program call               : xtb Cu_DHP_C2_2.xyz --gfn 1 --opt -T 48

   ID    Z sym.   atoms
    1   29 Cu     1, 59
    2    6 C      2-6, 8-11, 13-17, 19-24, 26-29, 31-36, 60-64, 66-69, 71-75,
                  77-82, 84-87, 89-94, 117, 118
    3    7 N      7, 12, 18, 25, 30, 37, 65, 70, 76, 83, 88, 95
    4    1 H      38-58, 96-116
########################################################################
[WARNING] Please study the warnings concerning your input carefully
-1- prog_main_parseArguments: Unknown option '-T' provided
########################################################################

          :  Hamiltonian                  GFN1-xTB          :
 * total energy  :  -200.7455560 Eh     change       -0.8976713E-09 Eh
 * total energy  :  -200.8356763 Eh     change       -0.9012036E-01 Eh
 * total energy  :  -200.8829219 Eh     change       -0.4724559E-01 Eh
 * total energy  :  -200.8920170 Eh     change       -0.9095024E-02 Eh
 * total energy  :  -200.8974686 Eh     change       -0.5451660E-02 Eh
 * total energy  :  -200.9004218 Eh     change       -0.2953212E-02 Eh
 * total energy  :  -200.9023500 Eh     change       -0.1928180E-02 Eh
 * total energy  :  -200.9037400 Eh     change       -0.1389991E-02 Eh
 * total energy  :  -200.9047942 Eh     change       -0.1054181E-02 Eh
 * total energy  :  -200.9055676 Eh     change       -0.7734110E-03 Eh
 * total energy  :  -200.9074156 Eh     change       -0.7453744E-05 Eh
 * total energy  :  -200.9074216 Eh     change       -0.6032209E-05 Eh
 * total energy  :  -200.9074284 Eh     change       -0.6766221E-05 Eh
 * total energy  :  -200.9074367 Eh     change       -0.8344889E-05 Eh
 * total energy  :  -200.9074457 Eh     change       -0.8909583E-05 Eh
 * total energy  :  -200.9074537 Eh     change       -0.8009745E-05 Eh
 * total energy  :  -200.9074600 Eh     change       -0.6382909E-05 Eh
 * total energy  :  -200.9074653 Eh     change       -0.5258243E-05 Eh
 * total energy  :  -200.9074670 Eh     change       -0.1723344E-05 Eh
   *** GEOMETRY OPTIMIZATION CONVERGED AFTER 44 ITERATIONS ***

 final structure:
================
118
 xtb: 6.5.1 (b24c23e)
Cu          15.18454993976390       -0.04812774858215       -0.02404933969607
C           11.77633861294071       -0.07137916982293       -0.11966609732721
C           12.41089664274690       -1.30446450377077       -0.15097320108177
C           11.73670750752630       -2.57094826586422       -0.15884886296456
C           12.69634789514708       -3.52883602375527       -0.19690467403176
C           13.96600383881034       -2.85514529379682       -0.23026823479829
N           13.76100146176150       -1.50583222624991       -0.18829582022378
C           15.21152614318022       -3.48277902079959       -0.30305375052374
C           15.23521755538611       -4.96269296412199       -0.40613264298417
C           14.67198854238257       -5.61139601974295       -1.43617621494290
C           14.66684804553051       -7.11439111650388       -1.54154615863952
N           15.64530073708490       -7.71493398962481       -0.63058704047497
C           16.04612114528101       -7.04959928689808        0.49956046710771
C           15.90487049761089       -5.72028649841879        0.64200395635108
C           16.44279070018180       -2.82282693691169       -0.28445180910582
C           17.71274878897429       -3.46410741704213       -0.46718495608155
C           18.66089584856687       -2.49644480837934       -0.38841544295237
N           16.63837563959648       -1.47857927684530       -0.10775513590347
C           17.98229170906316       -1.25891318942602       -0.15139821185729
C           18.62470287174859       -0.02241080424823        0.04583113063377
C           17.95667323958146        1.20283561621248        0.22898119331365
C           18.60573848263616        2.44673449706519        0.51073486775086
C           17.64007820904557        3.39876964970518        0.56502626838212
C           16.38906222218819        2.74194045190253        0.31822193492112
N           16.61250100687293        1.40303494104227        0.13305934194862
C           15.14860317456671        3.38387294758481        0.28437959948282
C           15.14326867520904        4.86194797958762        0.41319209303382
C           14.51488844270740        5.48221680616519        1.42296286891577
C           14.48080923319848        6.98266521477027        1.55549357662733
N           15.50267263362675        7.61335860686740        0.71541783040150
C           15.97212050227345        6.97748503934048       -0.40542534892225
C           15.85643790836368        5.64985939192989       -0.58259342732143
C           13.91810230723161        2.73998001863968        0.13570124005209
C           12.64336812042536        3.39712252750775        0.03480373865862
C           11.70094899696211        2.42709615247867       -0.06937792213917
C           12.39168821564961        1.16974637456329       -0.04803618989617
N           13.73452389102274        1.38858795285461        0.06933444505710
H           10.69156256128715       -0.07844069608767       -0.15148781235645
H           10.66580264604439       -2.69731343105654       -0.12599252762453
H           12.56317715363952       -4.59873425109573       -0.19237523729815
H           14.17458277913974       -5.08260233542947       -2.24091602091128
H           14.92204082473931       -7.42307241805835       -2.56442807044135
H           13.65585985176499       -7.50801004369390       -1.32499276332633
H           15.56504828715734       -8.71841901454191       -0.55131827139001
H           16.56059671783889       -7.66528297462764        1.23054196266431
H           16.27428711804389       -5.20483129062654        1.51718987504020
H           17.85543344277064       -4.51713954784374       -0.64851979705125
H           19.72745696552072       -2.60414260444916       -0.49202049048154
H           19.66505305552220        2.56843608686074        0.66254752083697
H           17.75886534259494        4.45072688707817        0.76850769759162
H           13.98301184960085        4.93058993889347        2.18941761160973
H           14.67065353196513        7.27515569627647        2.59709607270053
H           13.47866263239879        7.36653302494147        1.28649758788242
H           15.41491070957170        8.61744533326834        0.65317634535542
H           16.51699333997136        7.61483876508633       -1.09460251099149
H           16.27841759596764        5.15777906133913       -1.44740446449023
H           12.49603746124205        4.46517686942968        0.03260282683373
H           10.63216813564504        2.53954467789710       -0.16401101970943
Cu          26.10583630556514        0.05217166800310       -0.01320608429444
C           29.51404764517874        0.09550982106067       -0.10153177012870
C           28.87945005745911        1.30655888468144        0.13253714567723
C           29.55359740916956        2.54523334623696        0.39670655733985
C           28.59392619417711        3.48894300656500        0.56508829505119
C           27.32429260421879        2.83806979109903        0.38790911430074
N           27.52933861020241        1.51119913653849        0.13930423323639
C           26.07875054641142        3.46665935063531        0.45150622880727
C           26.05500011134778        4.93420404470334        0.66848673191721
C           26.61819704270291        5.78891154911188       -0.19829844821663
C           26.62326841646615        7.27949169980770        0.02140403815762
N           25.64482198416671        7.67045717725408        1.04005906591171
C           25.24402837750017        6.77801986582735        2.00103752081648
C           25.38532032502147        5.44912289086554        1.85480895621420
C           24.84751010102402        2.81805630159068        0.32799588470091
C           23.57753464843034        3.48357552997150        0.28712818043178
C           22.62941969263670        2.52152972978177        0.15634596166707
N           24.65196815967801        1.46720602161329        0.21204939001990
C           23.30805903420559        1.26198553316003        0.12227103927347
C           22.66568283993206        0.01194869189765        0.04952148328318
C           23.33374733239135       -1.22403139853136       -0.03459596562407
C           22.68471464532563       -2.49943206711806       -0.02646072543153
C           23.65040901522116       -3.44090233168175       -0.17774916802298
C           24.90140790587803       -2.74637000521367       -0.27778018821423
N           24.67792668179193       -1.39893453514269       -0.17123985969614
C           26.14189126806729       -3.36604059337605       -0.44857783171193
C           26.14726963895134       -4.83731524352744       -0.64002324931479
C           26.77562928871043       -5.65985046300410        0.21310693042270
C           26.80974332913489       -7.15377546946110        0.02050469014423
N           25.78796211727009       -7.58947857543743       -0.93544138241605
C           25.31853382749707       -6.72785472003760       -1.89369159975177
C           25.43416881527254       -5.39314128640642       -1.78175346800200
C           27.37237487947407       -2.70520909011070       -0.45554228826311
C           28.64713179037811       -3.32534199662966       -0.69511196919562
C           29.58952263712069       -2.35553983981943       -0.58861684434103
C           28.89873824974185       -1.13208552738551       -0.29795790018364
N           27.55590971680111       -1.37106171937221       -0.23030351454933
H           30.59882550759244        0.10926333529177       -0.13104340897720
H           30.62449790759316        2.66163480070559        0.45593349603554
H           28.72706124440634        4.53294391373965        0.79912892225989
H           27.11562185796823        5.44520484734421       -1.09778485908514
H           26.36802835809296        7.80052540257133       -0.91137263878424
H           27.63424697932724        7.61750254124569        0.31737467666604
H           25.72505445797490        8.63353398686887        1.33289361530010
H           24.72954129473193        7.22242159551189        2.84714370329551
H           25.01592293822630        4.75780372765600        2.59894371601187
H           23.43481805297020        4.55098310915469        0.33602496753811
H           21.56285855184384        2.64892423170388        0.07823541291601
H           21.62539833135883       -2.65091292881565        0.09564600940553
H           23.53165404261493       -4.51202005292394       -0.20481811812428
H           27.30746330590385       -5.28557925753338        1.08011971622965
H           26.61983068427602       -7.66301207102183        0.97504123177951
H           27.81192083641365       -7.47095037208934       -0.32453288452720
H           25.87576597283804       -8.55679986047056       -1.21174848093077
H           24.77371430937394       -7.20243946106843       -2.70363719092858
H           25.01220231042526       -4.72691473462130       -2.52080289670827
H           28.79449708227147       -4.36802594335455       -0.92650647737785
H           30.65830935618002       -2.44502597543144       -0.70514977328621
C           20.03613230670173       -0.01060921463404        0.05853770606236
C           21.25425367914045       -0.00233613869223        0.05941077999968

          :  Hamiltonian                  GFN1-xTB          :
         :: total energy            -200.907467023617 Eh    ::
         :: gradient norm              0.000158239386 Eh/a0 ::
         :: HOMO-LUMO gap              0.008999617878 eV    ::
         :: SCC energy              -203.858589052427 Eh    ::
         :: repulsion energy           3.056703629622 Eh    ::

    * Orbital Energies and Occupations

         #    Occupation            Energy/Eh            Energy/eV
      -------------------------------------------------------------
         1        2.0000           -0.7778501             -21.1664
       ...           ...                  ...                  ...
       174        2.0000           -0.3979438             -10.8286
       175        2.0000           -0.3978957             -10.8273
       176        2.0000           -0.3978952             -10.8273
       177        2.0000           -0.3978279             -10.8254
       178        2.0000           -0.3855758             -10.4921
       179        2.0000           -0.3852420             -10.4830
       180        2.0000           -0.3852263             -10.4825
       181        2.0000           -0.3723629             -10.1325
       182        2.0000           -0.3679428             -10.0122
       183        2.0000           -0.3679406             -10.0122
       184        2.0000           -0.3671729              -9.9913
       185        2.0000           -0.3657485              -9.9525
       186        1.0868           -0.3452198              -9.3939 (HOMO)
       187        0.9132           -0.3448891              -9.3849 (LUMO)
       188                         -0.3280717              -8.9273
       189                         -0.3170553              -8.6275
       190                         -0.3170487              -8.6273
       191                         -0.3106627              -8.4536
       192                         -0.2863217              -7.7912
       193                         -0.2779532              -7.5635
       194                         -0.2622380              -7.1359
       195                         -0.2622329              -7.1357
       196                         -0.2612378              -7.1086
       197                         -0.2598767              -7.0716
       ...                                ...                  ...
       398                          1.3419887              36.5174
      -------------------------------------------------------------
                  HL-Gap            0.0003307 Eh            0.0090 eV

Wiberg/Mayer (AO) data.
largest (>0.10) Wiberg bond orders for each atom

     #   Z sym  total        # sym  WBO       # sym  WBO       # sym  WBO
 ---------------------------------------------------------------------------
     1  29 Cu   2.184 --    37 N    0.503     7 N    0.503    18 N    0.502
                            25 N    0.502
     2   6 C    3.926 --    36 C    1.360     3 C    1.360    38 H    0.971
     3   6 C    3.920 --     2 C    1.360     7 N    1.231     4 C    1.172
     4   6 C    3.955 --     5 C    1.653     3 C    1.172    39 H    0.976
     5   6 C    3.958 --     4 C    1.653     6 C    1.173    40 H    0.974
     6   6 C    3.914 --     8 C    1.320     7 N    1.238     5 C    1.173
     7   7 N    3.241 --     6 C    1.238     3 C    1.231     1 Cu   0.503
     8   6 C    3.934 --    15 C    1.322     6 C    1.320     9 C    1.026
     9   6 C    3.988 --    10 C    1.767    14 C    1.097     8 C    1.026
    10   6 C    3.971 --     9 C    1.767    11 C    1.013    41 H    0.972
    11   6 C    3.961 --    10 C    1.013    42 H    0.976    43 H    0.967
                            12 N    0.949
    12   7 N    3.246 --    13 C    1.159    11 C    0.949    44 H    0.928
                            14 C    0.127
    13   6 C    3.958 --    14 C    1.694    12 N    1.159    45 H    0.971
    14   6 C    3.968 --    13 C    1.694     9 C    1.097    46 H    0.974
                            12 N    0.127
    15   6 C    3.908 --     8 C    1.322    18 N    1.224    16 C    1.182
    16   6 C    3.954 --    17 C    1.639    15 C    1.182    47 H    0.973
    17   6 C    3.957 --    16 C    1.639    19 C    1.189    48 H    0.966
    18   7 N    3.246 --    19 C    1.254    15 C    1.224     1 Cu   0.502
    19   6 C    3.902 --    20 C    1.262    18 N    1.254    17 C    1.189
    20   6 C    3.937 --    19 C    1.262    21 C    1.261   117 C    1.179
    21   6 C    3.902 --    20 C    1.261    25 N    1.255    22 C    1.189
    22   6 C    3.957 --    23 C    1.639    21 C    1.189    49 H    0.966
    23   6 C    3.954 --    22 C    1.639    24 C    1.182    50 H    0.973
    24   6 C    3.908 --    26 C    1.323    25 N    1.223    23 C    1.182
    25   7 N    3.245 --    21 C    1.255    24 C    1.223     1 Cu   0.502
    26   6 C    3.934 --    24 C    1.323    33 C    1.320    27 C    1.027
    27   6 C    3.988 --    28 C    1.767    32 C    1.097    26 C    1.027
    28   6 C    3.971 --    27 C    1.767    29 C    1.013    51 H    0.972
    29   6 C    3.961 --    28 C    1.013    52 H    0.976    53 H    0.966
                            30 N    0.949
    30   7 N    3.245 --    31 C    1.159    29 C    0.949    54 H    0.929
                            32 C    0.127
    31   6 C    3.958 --    32 C    1.694    30 N    1.159    55 H    0.971
    32   6 C    3.968 --    31 C    1.694    27 C    1.097    56 H    0.974
                            30 N    0.127
    33   6 C    3.914 --    26 C    1.320    37 N    1.238    34 C    1.173
    34   6 C    3.959 --    35 C    1.653    33 C    1.173    57 H    0.974
    35   6 C    3.955 --    34 C    1.653    36 C    1.172    58 H    0.976
    36   6 C    3.920 --     2 C    1.360    37 N    1.231    35 C    1.172
    37   7 N    3.241 --    33 C    1.238    36 C    1.231     1 Cu   0.503
    38   1 H    1.002 --     2 C    0.971
    39   1 H    0.998 --     4 C    0.976
    40   1 H    1.007 --     5 C    0.974
    41   1 H    1.004 --    10 C    0.972
    42   1 H    1.019 --    11 C    0.976
    43   1 H    1.008 --    11 C    0.967
    44   1 H    0.964 --    12 N    0.928
    45   1 H    1.002 --    13 C    0.971
    46   1 H    1.003 --    14 C    0.974
    47   1 H    1.005 --    16 C    0.973
    48   1 H    1.007 --    17 C    0.966
    49   1 H    1.007 --    22 C    0.966
    50   1 H    1.005 --    23 C    0.973
    51   1 H    1.004 --    28 C    0.972
    52   1 H    1.019 --    29 C    0.976
    53   1 H    1.008 --    29 C    0.966
    54   1 H    0.964 --    30 N    0.929
    55   1 H    1.002 --    31 C    0.971
    56   1 H    1.003 --    32 C    0.974
    57   1 H    1.007 --    34 C    0.974
    58   1 H    0.998 --    35 C    0.976
    59  29 Cu   2.185 --    95 N    0.503    65 N    0.503    76 N    0.502
                            83 N    0.502
    60   6 C    3.926 --    94 C    1.360    61 C    1.360    96 H    0.971
    61   6 C    3.920 --    60 C    1.360    65 N    1.231    62 C    1.172
    62   6 C    3.955 --    63 C    1.653    61 C    1.172    97 H    0.976
    63   6 C    3.958 --    62 C    1.653    64 C    1.173    98 H    0.974
    64   6 C    3.914 --    66 C    1.320    65 N    1.238    63 C    1.173
    65   7 N    3.241 --    64 C    1.238    61 C    1.231    59 Cu   0.503
    66   6 C    3.934 --    73 C    1.322    64 C    1.320    67 C    1.026
    67   6 C    3.988 --    68 C    1.767    72 C    1.097    66 C    1.026
    68   6 C    3.971 --    67 C    1.767    69 C    1.013    99 H    0.972
    69   6 C    3.961 --    68 C    1.013   100 H    0.976   101 H    0.967
                            70 N    0.949
    70   7 N    3.246 --    71 C    1.159    69 C    0.949   102 H    0.928
                            72 C    0.127
    71   6 C    3.958 --    72 C    1.694    70 N    1.159   103 H    0.971
    72   6 C    3.968 --    71 C    1.694    67 C    1.097   104 H    0.974
                            70 N    0.127
    73   6 C    3.908 --    66 C    1.322    76 N    1.224    74 C    1.182
    74   6 C    3.954 --    75 C    1.639    73 C    1.182   105 H    0.973
    75   6 C    3.957 --    74 C    1.639    77 C    1.189   106 H    0.966
    76   7 N    3.246 --    77 C    1.254    73 C    1.224    59 Cu   0.502
    77   6 C    3.902 --    78 C    1.262    76 N    1.254    75 C    1.189
    78   6 C    3.937 --    77 C    1.262    79 C    1.261   118 C    1.179
    79   6 C    3.902 --    78 C    1.261    83 N    1.255    80 C    1.189
    80   6 C    3.957 --    81 C    1.639    79 C    1.189   107 H    0.966
    81   6 C    3.954 --    80 C    1.639    82 C    1.182   108 H    0.973
    82   6 C    3.908 --    84 C    1.323    83 N    1.223    81 C    1.182
    83   7 N    3.245 --    79 C    1.255    82 C    1.223    59 Cu   0.502
    84   6 C    3.934 --    82 C    1.323    91 C    1.320    85 C    1.027
    85   6 C    3.988 --    86 C    1.767    90 C    1.097    84 C    1.027
    86   6 C    3.971 --    85 C    1.767    87 C    1.013   109 H    0.972
    87   6 C    3.961 --    86 C    1.013   110 H    0.976   111 H    0.966
                            88 N    0.949
    88   7 N    3.245 --    89 C    1.159    87 C    0.949   112 H    0.929
                            90 C    0.127
    89   6 C    3.958 --    90 C    1.694    88 N    1.159   113 H    0.971
    90   6 C    3.968 --    89 C    1.694    85 C    1.097   114 H    0.974
                            88 N    0.127
    91   6 C    3.914 --    84 C    1.320    95 N    1.238    92 C    1.173
    92   6 C    3.959 --    93 C    1.653    91 C    1.173   115 H    0.974
    93   6 C    3.955 --    92 C    1.653    94 C    1.172   116 H    0.976
    94   6 C    3.920 --    60 C    1.360    95 N    1.231    93 C    1.172
    95   7 N    3.241 --    91 C    1.238    94 C    1.231    59 Cu   0.503
    96   1 H    1.002 --    60 C    0.971
    97   1 H    0.998 --    62 C    0.976
    98   1 H    1.007 --    63 C    0.974
    99   1 H    1.004 --    68 C    0.972
   100   1 H    1.019 --    69 C    0.976
   101   1 H    1.008 --    69 C    0.967
   102   1 H    0.964 --    70 N    0.928
   103   1 H    1.002 --    71 C    0.971
   104   1 H    1.003 --    72 C    0.974
   105   1 H    1.005 --    74 C    0.973
   106   1 H    1.007 --    75 C    0.966
   107   1 H    1.007 --    80 C    0.966
   108   1 H    1.005 --    81 C    0.973
   109   1 H    1.004 --    86 C    0.972
   110   1 H    1.019 --    87 C    0.976
   111   1 H    1.008 --    87 C    0.966
   112   1 H    0.964 --    88 N    0.929
   113   1 H    1.002 --    89 C    0.971
   114   1 H    1.003 --    90 C    0.974
   115   1 H    1.007 --    92 C    0.974
   116   1 H    0.998 --    93 C    0.976
   117   6 C    3.935 --   118 C    2.579    20 C    1.179
   118   6 C    3.935 --   117 C    2.579    78 C    1.179
 ---------------------------------------------------------------------------

           -------------------------------------------------
          | TOTAL ENERGY             -200.907467023617 Eh   |
          | GRADIENT NORM               0.000158239386 Eh/α |
          | HOMO-LUMO GAP               0.008999617878 eV   |
           -------------------------------------------------

 * finished run on 2022/07/30 at 05:14:55.631
