   * xtb version 6.5.1 (b24c23e) compiled by 'conda@728c89f4b128' on 2022-07-12
          program call               : xtb Ni_Py_C2_2.xyz --gfn 1 --opt -T 48

   ID    Z sym.   atoms
    1   28 Ni     1, 55
    2    6 C      2-6, 8-11, 13-17, 19-24, 26-29, 31-36, 56-60, 62-65, 67-71,
                  73-78, 80-83, 85-90, 109, 110
    3    7 N      7, 12, 18, 25, 30, 37, 61, 66, 72, 79, 84, 91
    4    1 H      38-54, 92-108
########################################################################
[WARNING] Please study the warnings concerning your input carefully
-1- prog_main_parseArguments: Unknown option '-T' provided
########################################################################

          :  Hamiltonian                  GFN1-xTB          :
 * total energy  :  -195.1351249 Eh     change       -0.5967991E-09 Eh
 * total energy  :  -195.6300200 Eh     change       -0.4948950E+00 Eh
 * total energy  :  -195.7564271 Eh     change       -0.1264071E+00 Eh
 * total energy  :  -195.8095360 Eh     change       -0.5310888E-01 Eh
 * total energy  :  -195.8376751 Eh     change       -0.2813914E-01 Eh
 * total energy  :  -195.8520175 Eh     change       -0.1434234E-01 Eh
 * total energy  :  -195.8617439 Eh     change       -0.9726425E-02 Eh
 * total energy  :  -195.8681066 Eh     change       -0.6362690E-02 Eh
 * total energy  :  -195.8727654 Eh     change       -0.4658785E-02 Eh
 * total energy  :  -195.8758648 Eh     change       -0.3099462E-02 Eh
 * total energy  :  -195.8828790 Eh     change       -0.4709913E-04 Eh
 * total energy  :  -195.8829066 Eh     change       -0.2762762E-04 Eh
 * total energy  :  -195.8829245 Eh     change       -0.1789318E-04 Eh
 * total energy  :  -195.8829494 Eh     change       -0.2492701E-04 Eh
 * total energy  :  -195.8829634 Eh     change       -0.1398864E-04 Eh
 * total energy  :  -195.8829851 Eh     change       -0.2164981E-04 Eh
 * total energy  :  -195.8829928 Eh     change       -0.7699480E-05 Eh
 * total energy  :  -195.8829979 Eh     change       -0.5151275E-05 Eh
 * total energy  :  -195.8830017 Eh     change       -0.3774621E-05 Eh
   *** GEOMETRY OPTIMIZATION CONVERGED AFTER 31 ITERATIONS ***

 final structure:
================
110
 xtb: 6.5.1 (b24c23e)
Ni          13.66732736650338       -0.05587080277498       -0.02697306768362
C           10.27818013636126       -0.08602326419526       -0.04627019041043
C           10.93808848329464       -1.29698300051600       -0.08478177120751
C           10.27084915608401       -2.56263399343915       -0.12634811281823
C           11.22885111562795       -3.51113603891214       -0.00645311756016
C           12.48296133073866       -2.82416208569993        0.10020006841187
N           12.29581607881517       -1.46661649901624        0.02290492192007
C           13.69108053472100       -3.45058062056906        0.37604137828674
C           13.70440918056210       -4.92180254202344        0.55931620940820
C           14.00274257228803       -5.49399112322559        1.79478070518206
C           14.00519869793350       -6.87483491141827        1.91563454913984
N           13.73852400501072       -7.69102710871059        0.90116842038312
C           13.45424791461976       -7.15272688642288       -0.28021230913237
C           13.42247751607371       -5.78423336337544       -0.49870894147390
C           14.88944700495716       -2.75774676078245        0.48572053506422
C           16.14868898877670       -3.38170168564279        0.75727848450270
C           17.09531344983316       -2.42063830833305        0.63488319472188
N           15.06449329516774       -1.41776958878918        0.22325083843291
C           16.41700640174864       -1.21575100370667        0.27812684846694
C           17.07754321215729       -0.03255106895867       -0.06358658455039
C           16.39151842518026        1.14308886587006       -0.37996321549888
C           17.03999902032481        2.35484887729336       -0.76755700291624
C           16.07937718210817        3.30762399836268       -0.83827554099770
C           14.84353407204529        2.67306917846410       -0.49442486793335
N           15.04040542797303        1.33077842523122       -0.26493168014454
C           13.63669836255755        3.34847586037272       -0.36128311330309
C           13.63546743118997        4.82389401116366       -0.48337470565122
C           12.89477431092878        5.47400775625178       -1.46971828737079
C           12.93002266903135        6.85791751139500       -1.53872945341048
N           13.63798324841029        7.60751363100740       -0.70008348339971
C           14.34647075628793        6.99574856519458        0.24366603333815
C           14.37948883415344        5.61803285834760        0.38897014759737
C           12.43562049905389        2.69298279299795       -0.12284402461350
C           11.17431009860921        3.35556752826699        0.03863609379990
C           10.22987572540881        2.38829612874807        0.10935085535029
C           10.91586749324151        1.13611836707832        0.01065410494353
N           12.27063463093145        1.33090202575949       -0.08990538590602
H            9.19449376421114       -0.09591849546234       -0.04840624568727
H            9.20383407477177       -2.68779180567286       -0.21932177247011
H           11.10938812752427       -4.58190559741410        0.02488407997336
H           14.21685278732845       -4.86653262490247        2.65171434386165
H           14.23184300847051       -7.34493658123443        2.86812146585719
H           13.24287674402840       -7.84573495496361       -1.08934968319478
H           13.19642901283513       -5.38950836807530       -1.48206236602547
H           16.28343509240337       -4.42413348644432        0.99494113099988
H           18.16131309956593       -2.50909049183138        0.76424755035835
H           18.09563460092459        2.45059563195475       -0.96102937858880
H           16.18679182743974        4.34579756002288       -1.10687524416650
H           12.31299783149710        4.90323938144552       -2.18364529646334
H           12.36492250086294        7.38671243583919       -2.30071748599090
H           14.91328989792797        7.63520569207922        0.91406334777488
H           14.96336410324406        5.16268335550341        1.18004690245360
H           11.04178776293640        4.42406389955521        0.08913177665294
H            9.16236647234456        2.49313439212008        0.22027316359973
Ni          24.52296251615492        0.04559152312120       -0.04218893843293
C           27.91211330709464        0.06884253964734       -0.06929197729679
C           27.25219954052543        1.21630223370907       -0.45818337218234
C           27.91944183028234        2.41519667404527       -0.86591759964599
C           26.96144267326518        3.35758904938826       -1.02695566440924
C           25.70733172217082        2.73129902332147       -0.72518279372767
N           25.89447129317329        1.40991783834741       -0.40447073699618
C           24.49921335158697        3.41085828542499       -0.64339803946656
C           24.48589078617012        4.87181163062685       -0.89578183065665
C           24.18754911178474        5.77847768969293        0.11995607187621
C           24.18508593149652        7.13480973160817       -0.16587431238263
N           24.45176442058795        7.62080156455614       -1.37381480686078
C           24.73605173585619        6.76228331656469       -2.34765688536702
C           24.76782785807577        5.38938008713379       -2.15884275857110
C           23.30084293686942        2.77984903781446       -0.33702240924022
C           22.04160416085152        3.45580447578369       -0.25860429361826
C           21.09497582898678        2.50067304325291       -0.09629309328755
N           23.12579185974384        1.42144473083747       -0.19856377759354
C           21.77327655403762        1.24411029908579       -0.08734544969087
C           21.11274407325812        0.01266750075934       -0.07030430781831
C           21.79877538629560       -1.20416472850282       -0.03118985863989
C           21.15028912419774       -2.47626996173111       -0.04971492451289
C           22.11091101720771       -3.40844753126790        0.15961958749201
C           23.34675662750245       -2.70132919301153        0.30412019281090
N           23.14988796410056       -1.35029945978462        0.13344681870131
C           24.55358943518758       -3.30886859514721        0.62785255701103
C           24.55482007058351       -4.75605195456115        0.93998217940350
C           25.29548605883810       -5.66484725873468        0.18522874614946
C           25.26025501517503       -7.00904006867520        0.52155403681615
N           24.55234101025314       -7.48243214893376        1.54194072136886
C           23.84387389983052       -6.62271347649462        2.26708339571842
C           23.81083762298083       -5.26226597770897        2.00555540190878
C           25.75467465770096       -2.61237865994327        0.66541686614522
C           27.01598505283706       -3.19940101783971        1.01253479956578
C           27.96042155073098       -2.25335315654359        0.79897482630926
C           27.27443192609803       -1.08395613225586        0.34050267843695
N           25.91966221038520       -1.29955718771982        0.30093101554845
H           28.99579974590042        0.07769712874096       -0.07422564600520
H           28.98645776865161        2.50790695576298       -0.99126730286109
H           27.08090312535888        4.39121760715683       -1.30827939730092
H           23.97343555995916        5.42726466378179        1.12229700562813
H           23.95843492218553        7.86152604540888        0.60879140910474
H           24.94742534301610        7.19010991282712       -3.32332408994431
H           24.99388465142163        4.72580918978622       -2.98495500396266
H           21.90685516024077        4.52230324887139       -0.33428239048669
H           20.02897716823612        2.62292065023637        0.00176631320723
H           20.09465367239606       -2.62412854919448       -0.20698988294984
H           22.00350210252935       -4.47986691790577        0.20445269130118
H           25.87723221676799       -5.32629900990827       -0.66382302113469
H           25.82534153325432       -7.73652874526434       -0.05379366386610
H           23.27708671971947       -7.03963919887625        3.09445718608910
H           23.22697838902518       -4.59659409323317        2.63009164095413
H           27.14851217638811       -4.20706578920165        1.37148442477208
H           29.02793156267597       -2.32142183285023        0.93557551362826
C           18.48705096954867       -0.02045425387011       -0.07783530390434
C           19.70323675381950       -0.00305844594718       -0.08041736904456

          :  Hamiltonian                  GFN1-xTB          :
         :: total energy            -195.883001678699 Eh    ::
         :: gradient norm              0.000395502156 Eh/a0 ::
         :: HOMO-LUMO gap              1.220853222674 eV    ::
         :: SCC energy              -198.853764138131 Eh    ::
         :: repulsion energy           3.073556381823 Eh    ::

    * Orbital Energies and Occupations

         #    Occupation            Energy/Eh            Energy/eV
      -------------------------------------------------------------
         1        2.0000           -0.7870460             -21.4166
       ...           ...                  ...                  ...
       169        2.0000           -0.4215318             -11.4705
       170        2.0000           -0.4047479             -11.0138
       171        2.0000           -0.4041789             -10.9983
       172        2.0000           -0.4041700             -10.9980
       173        2.0000           -0.4037623             -10.9869
       174        2.0000           -0.4037263             -10.9860
       175        2.0000           -0.4029536             -10.9649
       176        2.0000           -0.4029488             -10.9648
       177        2.0000           -0.4018277             -10.9343
       178        2.0000           -0.4018266             -10.9343
       179        2.0000           -0.4017608             -10.9325
       180        2.0000           -0.4017595             -10.9324
       181        2.0000           -0.3905368             -10.6270 (HOMO)
       182                         -0.3456713              -9.4062 (LUMO)
       183                         -0.3362628              -9.1502
       184                         -0.3362475              -9.1498
       185                         -0.3329362              -9.0597
       186                         -0.3329122              -9.0590
       187                         -0.3289907              -8.9523
       188                         -0.3048347              -8.2950
       189                         -0.2972124              -8.0876
       190                         -0.2834508              -7.7131
       191                         -0.2834306              -7.7125
       192                         -0.2817542              -7.6669
       ...                                ...                  ...
       382                          1.3360140              36.3548
      -------------------------------------------------------------
                  HL-Gap            0.0448655 Eh            1.2209 eV

Wiberg/Mayer (AO) data.
largest (>0.10) Wiberg bond orders for each atom

     #   Z sym  total        # sym  WBO       # sym  WBO       # sym  WBO
 ---------------------------------------------------------------------------
     1  28 Ni   3.023 --     7 N    0.665    37 N    0.665    18 N    0.663
                            25 N    0.663
     2   6 C    3.935 --     3 C    1.364    36 C    1.363    38 H    0.970
     3   6 C    3.923 --     2 C    1.364     7 N    1.213     4 C    1.174
     4   6 C    3.960 --     5 C    1.651     3 C    1.174    39 H    0.975
     5   6 C    3.963 --     4 C    1.651     6 C    1.176    40 H    0.973
     6   6 C    3.920 --     8 C    1.325     7 N    1.220     5 C    1.176
     7   7 N    3.402 --     6 C    1.220     3 C    1.213     1 Ni   0.665
     8   6 C    3.939 --    15 C    1.328     6 C    1.325     9 C    1.022
     9   6 C    3.986 --    14 C    1.395    10 C    1.395     8 C    1.022
                            12 N    0.107
    10   6 C    3.988 --    11 C    1.441     9 C    1.395    41 H    0.973
                            13 C    0.109
    11   6 C    3.972 --    10 C    1.441    12 N    1.416    42 H    0.972
                            14 C    0.109
    12   7 N    3.031 --    13 C    1.416    11 C    1.416     9 C    0.107
    13   6 C    3.972 --    14 C    1.441    12 N    1.416    43 H    0.972
                            10 C    0.109
    14   6 C    3.988 --    13 C    1.441     9 C    1.395    44 H    0.973
                            11 C    0.109
    15   6 C    3.916 --     8 C    1.328    18 N    1.206    16 C    1.183
    16   6 C    3.959 --    17 C    1.636    15 C    1.183    45 H    0.972
    17   6 C    3.962 --    16 C    1.636    19 C    1.191    46 H    0.969
    18   7 N    3.406 --    19 C    1.236    15 C    1.206     1 Ni   0.663
    19   6 C    3.908 --    20 C    1.268    18 N    1.236    17 C    1.191
    20   6 C    3.945 --    21 C    1.269    19 C    1.268   109 C    1.171
    21   6 C    3.908 --    20 C    1.269    25 N    1.234    22 C    1.192
    22   6 C    3.962 --    23 C    1.634    21 C    1.192    47 H    0.969
    23   6 C    3.959 --    22 C    1.634    24 C    1.185    48 H    0.973
    24   6 C    3.916 --    26 C    1.324    25 N    1.208    23 C    1.185
    25   7 N    3.406 --    21 C    1.234    24 C    1.208     1 Ni   0.663
    26   6 C    3.939 --    24 C    1.324    33 C    1.323    27 C    1.030
    27   6 C    3.986 --    28 C    1.392    32 C    1.391    26 C    1.030
                            30 N    0.106
    28   6 C    3.987 --    29 C    1.442    27 C    1.392    49 H    0.973
                            31 C    0.108
    29   6 C    3.972 --    28 C    1.442    30 N    1.416    50 H    0.972
                            32 C    0.109
    30   7 N    3.030 --    29 C    1.416    31 C    1.415    27 C    0.106
    31   6 C    3.972 --    32 C    1.443    30 N    1.415    51 H    0.972
                            28 C    0.108
    32   6 C    3.987 --    31 C    1.443    27 C    1.391    52 H    0.973
                            29 C    0.109
    33   6 C    3.921 --    26 C    1.323    37 N    1.220    34 C    1.176
    34   6 C    3.963 --    35 C    1.650    33 C    1.176    53 H    0.972
    35   6 C    3.960 --    34 C    1.650    36 C    1.175    54 H    0.975
    36   6 C    3.923 --     2 C    1.363    37 N    1.213    35 C    1.175
    37   7 N    3.402 --    33 C    1.220    36 C    1.213     1 Ni   0.665
    38   1 H    1.000 --     2 C    0.970
    39   1 H    0.997 --     4 C    0.975
    40   1 H    1.004 --     5 C    0.973
    41   1 H    1.003 --    10 C    0.973
    42   1 H    1.013 --    11 C    0.972
    43   1 H    1.013 --    13 C    0.972
    44   1 H    1.003 --    14 C    0.973
    45   1 H    1.004 --    16 C    0.972
    46   1 H    1.006 --    17 C    0.969
    47   1 H    1.005 --    22 C    0.969
    48   1 H    1.004 --    23 C    0.973
    49   1 H    1.004 --    28 C    0.973
    50   1 H    1.013 --    29 C    0.972
    51   1 H    1.013 --    31 C    0.972
    52   1 H    1.004 --    32 C    0.973
    53   1 H    1.004 --    34 C    0.972
    54   1 H    0.997 --    35 C    0.975
    55  28 Ni   3.023 --    61 N    0.665    91 N    0.665    72 N    0.663
                            79 N    0.663
    56   6 C    3.935 --    57 C    1.364    90 C    1.363    92 H    0.970
    57   6 C    3.923 --    56 C    1.364    61 N    1.213    58 C    1.174
    58   6 C    3.960 --    59 C    1.651    57 C    1.174    93 H    0.975
    59   6 C    3.963 --    58 C    1.651    60 C    1.176    94 H    0.973
    60   6 C    3.920 --    62 C    1.325    61 N    1.220    59 C    1.176
    61   7 N    3.402 --    60 C    1.220    57 C    1.213    55 Ni   0.665
    62   6 C    3.939 --    69 C    1.328    60 C    1.325    63 C    1.022
    63   6 C    3.986 --    68 C    1.395    64 C    1.395    62 C    1.022
                            66 N    0.107
    64   6 C    3.988 --    65 C    1.441    63 C    1.395    95 H    0.973
                            67 C    0.109
    65   6 C    3.972 --    64 C    1.441    66 N    1.416    96 H    0.972
                            68 C    0.109
    66   7 N    3.031 --    67 C    1.416    65 C    1.416    63 C    0.107
    67   6 C    3.972 --    68 C    1.441    66 N    1.416    97 H    0.972
                            64 C    0.109
    68   6 C    3.988 --    67 C    1.441    63 C    1.395    98 H    0.973
                            65 C    0.109
    69   6 C    3.916 --    62 C    1.328    72 N    1.206    70 C    1.183
    70   6 C    3.959 --    71 C    1.636    69 C    1.183    99 H    0.972
    71   6 C    3.962 --    70 C    1.636    73 C    1.191   100 H    0.969
    72   7 N    3.406 --    73 C    1.236    69 C    1.206    55 Ni   0.663
    73   6 C    3.908 --    74 C    1.268    72 N    1.236    71 C    1.191
    74   6 C    3.945 --    75 C    1.269    73 C    1.268   110 C    1.171
    75   6 C    3.908 --    74 C    1.269    79 N    1.234    76 C    1.192
    76   6 C    3.962 --    77 C    1.634    75 C    1.192   101 H    0.969
    77   6 C    3.959 --    76 C    1.634    78 C    1.185   102 H    0.973
    78   6 C    3.916 --    80 C    1.324    79 N    1.208    77 C    1.185
    79   7 N    3.406 --    75 C    1.234    78 C    1.208    55 Ni   0.663
    80   6 C    3.939 --    78 C    1.324    87 C    1.323    81 C    1.030
    81   6 C    3.986 --    82 C    1.392    86 C    1.391    80 C    1.030
                            84 N    0.106
    82   6 C    3.987 --    83 C    1.442    81 C    1.392   103 H    0.973
                            85 C    0.108
    83   6 C    3.972 --    82 C    1.442    84 N    1.416   104 H    0.972
                            86 C    0.109
    84   7 N    3.030 --    83 C    1.416    85 C    1.415    81 C    0.106
    85   6 C    3.972 --    86 C    1.443    84 N    1.415   105 H    0.972
                            82 C    0.108
    86   6 C    3.987 --    85 C    1.443    81 C    1.391   106 H    0.973
                            83 C    0.109
    87   6 C    3.921 --    80 C    1.323    91 N    1.220    88 C    1.176
    88   6 C    3.963 --    89 C    1.650    87 C    1.176   107 H    0.972
    89   6 C    3.960 --    88 C    1.650    90 C    1.175   108 H    0.975
    90   6 C    3.923 --    56 C    1.363    91 N    1.213    89 C    1.175
    91   7 N    3.402 --    87 C    1.220    90 C    1.213    55 Ni   0.665
    92   1 H    1.000 --    56 C    0.970
    93   1 H    0.997 --    58 C    0.975
    94   1 H    1.004 --    59 C    0.973
    95   1 H    1.003 --    64 C    0.973
    96   1 H    1.013 --    65 C    0.972
    97   1 H    1.013 --    67 C    0.972
    98   1 H    1.003 --    68 C    0.973
    99   1 H    1.004 --    70 C    0.972
   100   1 H    1.006 --    71 C    0.969
   101   1 H    1.005 --    76 C    0.969
   102   1 H    1.004 --    77 C    0.973
   103   1 H    1.004 --    82 C    0.973
   104   1 H    1.013 --    83 C    0.972
   105   1 H    1.013 --    85 C    0.972
   106   1 H    1.004 --    86 C    0.973
   107   1 H    1.004 --    88 C    0.972
   108   1 H    0.997 --    89 C    0.975
   109   6 C    3.937 --   110 C    2.588    20 C    1.171
   110   6 C    3.937 --   109 C    2.588    74 C    1.171
 ---------------------------------------------------------------------------

           -------------------------------------------------
          | TOTAL ENERGY             -195.883001678699 Eh   |
          | GRADIENT NORM               0.000395502156 Eh/α |
          | HOMO-LUMO GAP               1.220853222674 eV   |
           -------------------------------------------------

 * finished run on 2022/07/30 at 02:18:27.966
