   * xtb version 6.5.1 (b24c23e) compiled by 'conda@728c89f4b128' on 2022-07-12
          program call               : xtb Cu_Ph_C8_2.xyz --gfn 1 --opt -T 48

   ID    Z sym.   atoms
    1   29 Cu     1, 57
    2    6 C      2-6, 8-11, 13-29, 32-37, 58-62, 64-67, 69-85, 88-93, 113-120
    3    7 N      7, 12, 30, 31, 63, 68, 86, 87
    4    1 H      38-56, 94-112
########################################################################
[WARNING] Please study the warnings concerning your input carefully
-1- prog_main_parseArguments: Unknown option '-T' provided
########################################################################

          :  Hamiltonian                  GFN1-xTB          :
 * total energy  :  -206.7252815 Eh     change       -0.4316519E-08 Eh
 * total energy  :  -206.9231878 Eh     change       -0.1979063E+00 Eh
 * total energy  :  -206.9817525 Eh     change       -0.5856469E-01 Eh
 * total energy  :  -206.9997973 Eh     change       -0.1804485E-01 Eh
 * total energy  :  -207.0068087 Eh     change       -0.7011329E-02 Eh
 * total energy  :  -207.0100172 Eh     change       -0.3208529E-02 Eh
 * total energy  :  -207.0106342 Eh     change       -0.6170386E-03 Eh
 * total energy  :  -207.0129700 Eh     change       -0.2335792E-02 Eh
 * total energy  :  -207.0137907 Eh     change       -0.8206450E-03 Eh
 * total energy  :  -207.0145737 Eh     change       -0.7829924E-03 Eh
 * total energy  :  -207.0186620 Eh     change       -0.4408447E-04 Eh
 * total energy  :  -207.0186975 Eh     change       -0.3549906E-04 Eh
 * total energy  :  -207.0187229 Eh     change       -0.2536162E-04 Eh
 * total energy  :  -207.0187482 Eh     change       -0.2531825E-04 Eh
 * total energy  :  -207.0187666 Eh     change       -0.1837653E-04 Eh
 * total energy  :  -207.0187709 Eh     change       -0.4337122E-05 Eh
 * total energy  :  -207.0187773 Eh     change       -0.6359306E-05 Eh
 * total energy  :  -207.0187813 Eh     change       -0.4000764E-05 Eh
 * total energy  :  -207.0187851 Eh     change       -0.3814785E-05 Eh
   *** GEOMETRY OPTIMIZATION CONVERGED AFTER 42 ITERATIONS ***

 final structure:
================
120
 xtb: 6.5.1 (b24c23e)
Cu          11.47438716124122       -0.03246453359829       -0.00642252247809
C            8.06758021706247       -0.05956049981699       -0.01934459629654
C            8.70162465502393       -1.29109909862925       -0.08819610271135
C            8.02575765031675       -2.55628443044499       -0.12833469147486
C            8.98407729490883       -3.51486430230686       -0.17118155899497
C           10.25512329559965       -2.84283132931070       -0.16702620506350
N           10.05208080273615       -1.49412009813933       -0.10968681363289
C           11.49946611927017       -3.47729467718184       -0.18828398410294
C           12.73292461405422       -2.82544337865351       -0.14468563389690
C           14.00955359134709       -3.47821236077193       -0.21459764557375
C           14.95679995054543       -2.50789983707987       -0.15870218269933
N           12.92344606631087       -1.47122337623917       -0.05984968757626
C           14.26691485808073       -1.25660874742690       -0.06221414645393
C           14.90425155169333       -0.00462799767742        0.00426602427625
C           14.24671665288705        1.23677755162447        0.06918370804987
C           14.91587511742204        2.50250670085933        0.10578767768761
C           13.95277247779301        3.45756526397672        0.15298301349306
C           12.68711282205038        2.78007017489861        0.15348619404158
C           11.44303331801095        3.41209725557149        0.18257676853307
C           11.42859952610802        4.89514445585225        0.26327954164112
C           10.89234650092024        5.65355287310284       -0.77775372037629
C           10.88010195536905        7.03830967781712       -0.70224638181334
C           11.39696458168593        7.68113380668568        0.41415835576571
C           11.93005425274954        6.93319860709324        1.45508228010793
C           11.94926186722244        5.54846404508812        1.38064399349688
C           10.20943098683371        2.75815589985083        0.14071549103856
C            8.92783566040745        3.40584046338912        0.21383393419919
C            7.98514998339026        2.43280951223409        0.15362389933325
C            8.68123808354139        1.18207550988204        0.05184308324286
N           10.02823489066367        1.40819892654724        0.05105335773915
N           12.89988573298372        1.42780416171898        0.09399128380309
C           11.51079938458597       -4.96055113182647       -0.26108072284765
C           10.98307231399834       -5.61877267494773       -1.37225736401334
C           10.99585572748152       -7.00404188551143       -1.43781178153896
C           11.53015681221200       -7.74755787216115       -0.39432703686284
C           12.05551916170671       -7.09983729433169        0.71531449589470
C           12.04902805492619       -5.71465930721543        0.78217496212522
H            6.98244602394299       -0.06910169638151       -0.00974927460519
H            6.95432387546727       -2.68090867505281       -0.11710922521466
H            8.84972291681738       -4.58440782121524       -0.19198118189052
H           14.15785611627371       -4.54188000354898       -0.30781483076207
H           16.02890709224830       -2.61947290684864       -0.18651482481772
H           15.98606907579934        2.63344868925166        0.09032989087297
H           14.08308132287261        4.52742904105664        0.17357681459558
H           10.49823200464502        5.15299725754451       -1.65512711397009
H           10.46565320806149        7.61803380670094       -1.51950020245758
H           11.38431806342643        8.76359502725780        0.47295728568278
H           12.33247313425914        7.43057504359132        2.33048438970045
H           12.35600352950867        4.96516594131330        2.19926397365324
H            8.77649985585941        4.46889588590988        0.31111249375620
H            6.91191675799394        2.53780938419393        0.18162200349864
H           10.57575201415868       -5.03905597900871       -2.19333907967982
H           10.58660559411744       -7.50527772961466       -2.30819768854436
H           11.53723444799624       -8.83042069097834       -0.44590532654909
H           12.47229276660483       -7.67615988470048        1.53404173106235
H           12.44978308283188       -5.21012843064322        1.65435518276008
Cu          30.07849920098949        0.02955810525440       -0.00572801787594
C           33.48520142243072        0.05816864494189       -0.01781765430475
C           32.85097457052168        1.29144528325154       -0.03199114147554
C           33.52660593544296        2.55726625287334       -0.01611542896071
C           32.56809859567190        3.51663331342881       -0.01649714493386
C           31.29715901503366        2.84486114206647       -0.04249857962225
N           31.50047179950302        1.49496213834513       -0.04456781012066
C           30.05256051600176        3.47925757117489       -0.03723666674108
C           28.81934134975174        2.82549383236230       -0.02342712821117
C           27.54247818013732        3.48006801215924       -0.06714414667297
C           26.59563420311257        2.50786238843504       -0.05352129095119
N           28.62932765183675        1.46877747285607        0.00329637804191
C           27.28596118645661        1.25393033407075       -0.00938885395106
C           26.64876114470681        0.00010134498890        0.00406447520930
C           27.30644259500148       -1.24279085450200        0.01700585716964
C           26.63759374134182       -2.50910849030761        0.00082264175529
C           27.60099518167469       -3.46503959508936        0.00705261018464
C           28.86647825403129       -2.78779519353406        0.03508374441389
C           30.11076659065456       -3.42004172640538        0.03541445401438
C           30.12578673310836       -4.90518801169805        0.05113444991498
C           30.66036825380811       -5.61693625607685       -1.02316615633755
C           30.67275282697687       -7.00366879952922       -1.00877215799206
C           30.15788440563901       -7.69510557965520        0.07922044142589
C           29.62664914354015       -6.99381207607357        1.15300200217721
C           29.60720078242613       -5.60713361192554        1.13963105541312
C           31.34406291762826       -2.76439168218793        0.02064125701950
C           32.62588545114017       -3.41428016900360        0.06422776304879
C           33.56827609125338       -2.43928522390693        0.04566888115447
C           32.87177893244316       -1.18548896800598       -0.00074439300538
N           31.52480671502098       -1.41171161513161       -0.01009003855774
N           28.65333439318126       -1.43429296402334        0.03304066573388
C           30.04037888046360        4.96417671268192       -0.04540421553844
C           30.57300340275881        5.67078324135032       -1.12405217409080
C           30.55905103287689        7.05758313266348       -1.12917803112587
C           30.01835979467357        7.75440610397380       -0.05717616125889
C           29.48794443252486        7.05842281332011        1.02038421167135
C           29.49596772543516        5.67167655927513        1.02693292132069
H           34.57033834692963        0.06739028692888       -0.00853400167006
H           34.59802119436904        2.68153780316705        0.00065537477978
H           32.70238451554862        4.58606018652702        0.01036884635850
H           27.39368304524091        4.54662122354084       -0.11554688105839
H           25.52352290100770        2.62005876569282       -0.07786630109973
H           25.56741151963154       -2.63955671266318       -0.01926243876706
H           27.47093109457107       -4.53486318982277       -0.01723497309206
H           31.05294955972449       -5.07818898849897       -1.87837898964941
H           31.08570966108973       -7.54676720955009       -1.85150629532129
H           30.17053816939534       -8.77910784917029        0.09020410497561
H           29.22585632444751       -7.52931878392998        2.00643320918040
H           29.20185308700943       -5.06052293004454        1.98383673070058
H           32.77752382734507       -4.48053817208308        0.11489609940001
H           34.64156569164248       -2.54507587124403        0.06807728801338
H           30.98491746437063        5.12788824930029       -1.96766201418625
H           30.97226844322328        7.59665588232754       -1.97463185088521
H           30.01003711034332        8.83847376457365       -0.06155350070040
H           29.06571666071734        7.59813643046086        1.86115694348036
H           29.09116248468633        5.12922066468604        1.87424490470441
C           16.30960971137926        0.00517895715413       -0.00414947400901
C           17.53408750896842        0.00560019679591       -0.00746380862850
C           18.87688823433692        0.00476990863436       -0.01142980107679
C           20.10746573297452        0.00047825241419       -0.01315000331492
C           21.44551433331421       -0.00435887870640       -0.01398070193441
C           22.67610247866192       -0.00884622833097       -0.01229180758094
C           24.01889908870186       -0.00999811812195       -0.00906752197346
C           25.24340518472475       -0.00902853402891       -0.00496705778900

          :  Hamiltonian                  GFN1-xTB          :
         :: total energy            -207.018785090660 Eh    ::
         :: gradient norm              0.000720332720 Eh/a0 ::
         :: HOMO-LUMO gap              0.000033403515 eV    ::
         :: SCC energy              -210.478368895941 Eh    ::
         :: repulsion energy           3.565305312140 Eh    ::

    * Orbital Energies and Occupations

         #    Occupation            Energy/Eh            Energy/eV
      -------------------------------------------------------------
         1        2.0000           -0.7639355             -20.7877
       ...           ...                  ...                  ...
       182        2.0000           -0.4115624             -11.1992
       183        2.0000           -0.4084239             -11.1138
       184        2.0000           -0.4084200             -11.1137
       185        2.0000           -0.4081447             -11.1062
       186        2.0000           -0.4081376             -11.1060
       187        2.0000           -0.4081326             -11.1059
       188        2.0000           -0.4079646             -11.1013
       189        2.0000           -0.4050807             -11.0228
       190        2.0000           -0.3953578             -10.7582
       191        2.0000           -0.3953542             -10.7581
       192        2.0000           -0.3894929             -10.5986
       193        2.0000           -0.3803440             -10.3497
       194        1.0003           -0.3556670              -9.6782 (HOMO)
       195        0.9997           -0.3556657              -9.6782 (LUMO)
       196                         -0.3378335              -9.1929
       197                         -0.3277482              -8.9185
       198                         -0.3273184              -8.9068
       199                         -0.3273061              -8.9065
       200                         -0.3006383              -8.1808
       201                         -0.2977272              -8.1016
       202                         -0.2922699              -7.9531
       203                         -0.2732340              -7.4351
       204                         -0.2640066              -7.1840
       205                         -0.2640031              -7.1839
       ...                                ...                  ...
       414                          1.6084548              43.7683
      -------------------------------------------------------------
                  HL-Gap            0.0000012 Eh            0.0000 eV

Wiberg/Mayer (AO) data.
largest (>0.10) Wiberg bond orders for each atom

     #   Z sym  total        # sym  WBO       # sym  WBO       # sym  WBO
 ---------------------------------------------------------------------------
     1  29 Cu   2.185 --     7 N    0.505    30 N    0.505    12 N    0.503
                            31 N    0.502
     2   6 C    3.929 --    29 C    1.361     3 C    1.361    38 H    0.971
     3   6 C    3.917 --     2 C    1.361     7 N    1.229     4 C    1.171
     4   6 C    3.955 --     5 C    1.655     3 C    1.171    39 H    0.976
     5   6 C    3.958 --     4 C    1.655     6 C    1.173    40 H    0.973
     6   6 C    3.913 --     8 C    1.319     7 N    1.239     5 C    1.173
     7   7 N    3.244 --     6 C    1.239     3 C    1.229     1 Cu   0.505
     8   6 C    3.935 --     9 C    1.328     6 C    1.319    32 C    1.025
     9   6 C    3.908 --     8 C    1.328    12 N    1.220    10 C    1.179
    10   6 C    3.954 --    11 C    1.643     9 C    1.179    41 H    0.973
    11   6 C    3.956 --    10 C    1.643    13 C    1.187    42 H    0.974
    12   7 N    3.248 --    13 C    1.258     9 C    1.220     1 Cu   0.503
    13   6 C    3.897 --    12 N    1.258    14 C    1.258    11 C    1.187
    14   6 C    3.939 --    15 C    1.258    13 C    1.258   113 C    1.190
    15   6 C    3.897 --    14 C    1.258    31 N    1.258    16 C    1.186
    16   6 C    3.956 --    17 C    1.643    15 C    1.186    43 H    0.974
    17   6 C    3.954 --    16 C    1.643    18 C    1.179    44 H    0.973
    18   6 C    3.908 --    19 C    1.329    31 N    1.220    17 C    1.179
    19   6 C    3.935 --    18 C    1.329    26 C    1.319    20 C    1.024
    20   6 C    3.988 --    25 C    1.397    21 C    1.396    19 C    1.024
                            23 C    0.108
    21   6 C    3.988 --    22 C    1.447    20 C    1.396    45 H    0.973
                            24 C    0.110
    22   6 C    3.995 --    21 C    1.447    23 C    1.438    46 H    0.973
                            25 C    0.110
    23   6 C    3.991 --    22 C    1.438    24 C    1.438    47 H    0.974
                            20 C    0.108
    24   6 C    3.995 --    25 C    1.447    23 C    1.438    48 H    0.973
                            21 C    0.110
    25   6 C    3.988 --    24 C    1.447    20 C    1.397    49 H    0.973
                            22 C    0.110
    26   6 C    3.913 --    19 C    1.319    30 N    1.239    27 C    1.172
    27   6 C    3.958 --    28 C    1.655    26 C    1.172    50 H    0.973
    28   6 C    3.955 --    27 C    1.655    29 C    1.171    51 H    0.976
    29   6 C    3.917 --     2 C    1.361    30 N    1.229    28 C    1.171
    30   7 N    3.244 --    26 C    1.239    29 C    1.229     1 Cu   0.505
    31   7 N    3.248 --    15 C    1.258    18 C    1.220     1 Cu   0.502
    32   6 C    3.988 --    33 C    1.396    37 C    1.396     8 C    1.025
                            35 C    0.108
    33   6 C    3.988 --    34 C    1.447    32 C    1.396    52 H    0.973
                            36 C    0.110
    34   6 C    3.995 --    33 C    1.447    35 C    1.438    53 H    0.973
                            37 C    0.110
    35   6 C    3.990 --    34 C    1.438    36 C    1.438    54 H    0.974
                            32 C    0.108
    36   6 C    3.995 --    37 C    1.447    35 C    1.438    55 H    0.973
                            33 C    0.110
    37   6 C    3.988 --    36 C    1.447    32 C    1.396    56 H    0.973
                            34 C    0.110
    38   1 H    1.002 --     2 C    0.971
    39   1 H    0.998 --     4 C    0.976
    40   1 H    1.005 --     5 C    0.973
    41   1 H    1.005 --    10 C    0.973
    42   1 H    1.002 --    11 C    0.974
    43   1 H    1.002 --    16 C    0.974
    44   1 H    1.005 --    17 C    0.973
    45   1 H    1.005 --    21 C    0.973
    46   1 H    1.003 --    22 C    0.973
    47   1 H    1.003 --    23 C    0.974
    48   1 H    1.003 --    24 C    0.973
    49   1 H    1.005 --    25 C    0.973
    50   1 H    1.005 --    27 C    0.973
    51   1 H    0.998 --    28 C    0.976
    52   1 H    1.005 --    33 C    0.973
    53   1 H    1.003 --    34 C    0.973
    54   1 H    1.003 --    35 C    0.974
    55   1 H    1.003 --    36 C    0.973
    56   1 H    1.005 --    37 C    0.973
    57  29 Cu   2.185 --    86 N    0.505    63 N    0.505    68 N    0.503
                            87 N    0.502
    58   6 C    3.929 --    85 C    1.361    59 C    1.361    94 H    0.971
    59   6 C    3.917 --    58 C    1.361    63 N    1.229    60 C    1.171
    60   6 C    3.955 --    61 C    1.655    59 C    1.171    95 H    0.976
    61   6 C    3.958 --    60 C    1.655    62 C    1.173    96 H    0.973
    62   6 C    3.913 --    64 C    1.319    63 N    1.239    61 C    1.173
    63   7 N    3.244 --    62 C    1.239    59 C    1.229    57 Cu   0.505
    64   6 C    3.935 --    65 C    1.328    62 C    1.319    88 C    1.025
    65   6 C    3.908 --    64 C    1.328    68 N    1.220    66 C    1.179
    66   6 C    3.954 --    67 C    1.643    65 C    1.179    97 H    0.973
    67   6 C    3.956 --    66 C    1.643    69 C    1.187    98 H    0.974
    68   7 N    3.248 --    69 C    1.258    65 C    1.220    57 Cu   0.503
    69   6 C    3.897 --    68 N    1.258    70 C    1.258    67 C    1.187
    70   6 C    3.939 --    71 C    1.258    69 C    1.258   120 C    1.190
    71   6 C    3.897 --    70 C    1.258    87 N    1.258    72 C    1.186
    72   6 C    3.956 --    73 C    1.643    71 C    1.186    99 H    0.974
    73   6 C    3.954 --    72 C    1.643    74 C    1.179   100 H    0.973
    74   6 C    3.908 --    75 C    1.329    87 N    1.220    73 C    1.179
    75   6 C    3.935 --    74 C    1.329    82 C    1.319    76 C    1.024
    76   6 C    3.988 --    81 C    1.397    77 C    1.396    75 C    1.024
                            79 C    0.108
    77   6 C    3.988 --    78 C    1.447    76 C    1.396   101 H    0.973
                            80 C    0.110
    78   6 C    3.995 --    77 C    1.447    79 C    1.438   102 H    0.973
                            81 C    0.110
    79   6 C    3.991 --    78 C    1.438    80 C    1.438   103 H    0.974
                            76 C    0.108
    80   6 C    3.995 --    81 C    1.447    79 C    1.438   104 H    0.973
                            77 C    0.110
    81   6 C    3.988 --    80 C    1.447    76 C    1.397   105 H    0.973
                            78 C    0.110
    82   6 C    3.913 --    75 C    1.319    86 N    1.239    83 C    1.172
    83   6 C    3.958 --    84 C    1.655    82 C    1.172   106 H    0.973
    84   6 C    3.955 --    83 C    1.655    85 C    1.171   107 H    0.976
    85   6 C    3.917 --    58 C    1.361    86 N    1.229    84 C    1.171
    86   7 N    3.244 --    82 C    1.239    85 C    1.229    57 Cu   0.505
    87   7 N    3.248 --    71 C    1.258    74 C    1.220    57 Cu   0.502
    88   6 C    3.988 --    89 C    1.396    93 C    1.396    64 C    1.025
                            91 C    0.108
    89   6 C    3.988 --    90 C    1.447    88 C    1.396   108 H    0.973
                            92 C    0.110
    90   6 C    3.995 --    89 C    1.447    91 C    1.438   109 H    0.973
                            93 C    0.110
    91   6 C    3.990 --    90 C    1.438    92 C    1.438   110 H    0.974
                            88 C    0.108
    92   6 C    3.995 --    93 C    1.447    91 C    1.438   111 H    0.973
                            89 C    0.110
    93   6 C    3.988 --    92 C    1.447    88 C    1.396   112 H    0.973
                            90 C    0.110
    94   1 H    1.002 --    58 C    0.971
    95   1 H    0.998 --    60 C    0.976
    96   1 H    1.005 --    61 C    0.973
    97   1 H    1.005 --    66 C    0.973
    98   1 H    1.002 --    67 C    0.974
    99   1 H    1.002 --    72 C    0.974
   100   1 H    1.005 --    73 C    0.973
   101   1 H    1.005 --    77 C    0.973
   102   1 H    1.003 --    78 C    0.973
   103   1 H    1.003 --    79 C    0.974
   104   1 H    1.003 --    80 C    0.973
   105   1 H    1.005 --    81 C    0.973
   106   1 H    1.005 --    83 C    0.973
   107   1 H    0.998 --    84 C    0.976
   108   1 H    1.005 --    89 C    0.973
   109   1 H    1.003 --    90 C    0.973
   110   1 H    1.003 --    91 C    0.974
   111   1 H    1.003 --    92 C    0.973
   112   1 H    1.005 --    93 C    0.973
   113   6 C    3.878 --   114 C    2.441    14 C    1.190   116 C    0.187
   114   6 C    3.936 --   113 C    2.441   115 C    1.343
   115   6 C    3.894 --   116 C    2.338   114 C    1.343   118 C    0.183
   116   6 C    3.926 --   115 C    2.338   117 C    1.368   113 C    0.187
   117   6 C    3.926 --   118 C    2.338   116 C    1.368   120 C    0.187
   118   6 C    3.894 --   117 C    2.338   119 C    1.343   115 C    0.183
   119   6 C    3.936 --   120 C    2.441   118 C    1.343
   120   6 C    3.878 --   119 C    2.441    70 C    1.190   117 C    0.187
 ---------------------------------------------------------------------------

           -------------------------------------------------
          | TOTAL ENERGY             -207.018785090660 Eh   |
          | GRADIENT NORM               0.000720332720 Eh/α |
          | HOMO-LUMO GAP               0.000033403515 eV   |
           -------------------------------------------------

 * finished run on 2022/07/30 at 09:12:20.622
