   * xtb version 6.5.1 (b24c23e) compiled by 'conda@728c89f4b128' on 2022-07-12
          program call               : xtb NMA_C4_3.xyz --gfn 1 --opt -T 48

   ID    Z sym.   atoms
    1    6 C      1-5, 7-11, 13-18, 20-25, 27-31, 33-39, 68-72, 74-78, 80-85,
                  87-92, 94-98, 100-106, 135-147, 149-153, 155-160, 162-167,
                  169-173, 175-181
    2    7 N      6, 12, 19, 26, 32, 40, 73, 79, 86, 93, 99, 107, 148, 154,
                  161, 168, 174, 182
    3    1 H      41-67, 108-134, 183-208

          :  Hamiltonian                  GFN1-xTB          :
 * total energy  :  -332.0208784 Eh     change       -0.9097619E-08 Eh
 * total energy  :  -332.2221234 Eh     change       -0.2012450E+00 Eh
 * total energy  :  -332.3093762 Eh     change       -0.8725282E-01 Eh
 * total energy  :  -332.3573600 Eh     change       -0.4798378E-01 Eh
 * total energy  :  -332.3925583 Eh     change       -0.3519832E-01 Eh
 * total energy  :  -332.4324327 Eh     change       -0.3987436E-01 Eh
 * total energy  :  -332.4740099 Eh     change       -0.4157718E-01 Eh
 * total energy  :  -332.5158555 Eh     change       -0.4184565E-01 Eh
 * total energy  :  -332.5510779 Eh     change       -0.3522241E-01 Eh
 * total energy  :  -332.5811640 Eh     change       -0.3008603E-01 Eh
 * total energy  :  -332.8764239 Eh     change       -0.1183776E-04 Eh
 * total energy  :  -332.8764308 Eh     change       -0.6950040E-05 Eh
 * total energy  :  -332.8764372 Eh     change       -0.6321650E-05 Eh
 * total energy  :  -332.8764504 Eh     change       -0.1323499E-04 Eh
 * total energy  :  -332.8764555 Eh     change       -0.5122492E-05 Eh
 * total energy  :  -332.8764608 Eh     change       -0.5258890E-05 Eh
 * total energy  :  -332.8764669 Eh     change       -0.6160882E-05 Eh
 * total energy  :  -332.8764720 Eh     change       -0.5095331E-05 Eh
 * total energy  :  -332.8764765 Eh     change       -0.4452620E-05 Eh
   *** GEOMETRY OPTIMIZATION CONVERGED AFTER 133 ITERATIONS ***

 final structure:
================
208
 xtb: 6.5.1 (b24c23e)
C           33.56009643254576        0.51632282410501        0.04062831824259
C           34.15821134067426        0.58261156042298       -1.21150026463539
C           33.49353002388527        0.70719403935248       -2.46313840547600
C           34.44186426401816        0.68762084538371       -3.44758596911596
C           35.71765946786407        0.56399264187016       -2.82820750047111
N           35.49530624232380        0.50242933163356       -1.48126517811957
C           36.96917035421128        0.48385629347621       -3.45170738625847
C           36.98631379463191        0.58253504631490       -4.92978160742632
C           37.50631124398271       -0.45473939917648       -5.70630802265245
C           37.51720742090386       -0.37899815212329       -7.08856718714690
C           37.00490159627238        0.75039217343048       -7.73361132445368
N           37.04113451841790        0.90440101681340       -9.11173033492347
C           37.09211225883620       -0.27307036105040       -9.96794207014793
C           36.49506656351809        1.79958282370413       -6.95894559989119
C           36.48091603938194        1.71200926838652       -5.57966562014229
C           38.18462146784620        0.32121733713809       -2.78135328849343
C           39.47877092354178        0.33506424844346       -3.43840805070600
C           40.40344722250784        0.18722332109774       -2.46672728497932
N           38.34589987942981        0.17418053706788       -1.43680427965211
C           39.67342519562785        0.08669515001890       -1.21833931823683
C           40.31754194733363       -0.06169657483501        0.02730850646787
C           39.69113362325501       -0.14730766249377        1.28591937586949
C           40.34642312230985       -0.27624436811879        2.53839698473508
C           39.38846719810532       -0.30928949889140        3.51443087705171
C           38.11722825688975       -0.20740354754927        2.88575738383290
N           38.35264389539957       -0.10893112698289        1.53936866203030
C           36.86343115922882       -0.16886339040551        3.50762037198050
C           36.84172335401583       -0.33400477401698        4.97866688298188
C           36.29613292392764        0.65284176243804        5.80209197883968
C           36.27712912766867        0.50751077026441        7.17870911069571
C           36.80770608732163       -0.64235711414262        7.77069339675518
N           36.76517567095736       -0.86543172636799        9.13887081880070
C           36.67841569102814        0.26657580202021       10.05161588615476
C           37.34495782263393       -1.64079663036222        6.94877103058338
C           37.36666775820359       -1.48389837998394        5.57600612870579
C           35.64871438734664        0.01713069672726        2.83744900376564
C           34.34603233899411       -0.00051940005717        3.48407234362728
C           33.43351576480759        0.20463656050714        2.51252918106735
C           34.17601386351481        0.33082590064276        1.27134408451424
N           35.50615913749372        0.21005018984795        1.50466290578058
H           32.47749902315181        0.59596339244423        0.04540065950604
H           32.42478870847776        0.78846252149295       -2.58268747649420
H           34.27484793440389        0.74052611772755       -4.51123324728803
H           36.22661971834834        0.39347410704465       -0.78652168711935
H           37.88983545057496       -1.34414482711578       -5.21817440850403
H           37.92606994041606       -1.20321102617232       -7.66007882722622
H           36.37935201950586        1.59486132223991       -9.44547918514428
H           36.29408941411751       -0.98390176475187       -9.72427180785135
H           36.97801069024287        0.05660158790542      -11.00063409109895
H           38.05818662713199       -0.76885554966087       -9.86486076781191
H           36.11051959357464        2.68724968630021       -7.45024969927101
H           36.09395002262974        2.53842603030106       -4.99337240230320
H           39.63870391068775        0.46505471782638       -4.49650224889022
H           41.47730924832010        0.15425580040234       -2.55913423860080
H           41.41550436293828       -0.32928940687920        2.66751894822280
H           39.54750654702551       -0.38053193318415        4.57807476268669
H           37.62542652427456       -0.00452630143365        0.83939851728868
H           35.90024125061749        1.55909337609486        5.35670863313015
H           35.84793755042551        1.29388789489512        7.78739254911120
H           37.43981503861249       -1.55646507851353        9.44412793911954
H           35.69799680186853        0.73767323653551        9.97061451957005
H           37.45486962094032        1.01187739283091        9.84452799540004
H           36.80168567219495       -0.10954935593509       11.06718140845063
H           37.74456063808282       -2.54382819508573        7.39827841018947
H           37.77507991047428       -2.27147746243870        4.95202860283638
H           34.17489934509959       -0.16754310799381        4.53537024012925
H           32.35895567091937        0.25598333122364        2.59499622284599
C           67.14258301720324        0.40179956962006       -0.06326782972610
C           66.54466043581854        0.54546199063306        1.18246131210880
C           67.20964596814609        0.72779535099902        2.42677547687629
C           66.25946684847897        0.78322436568175        3.40812988289159
C           64.98264861842630        0.64872260098984        2.79333640799688
N           65.20580904421115        0.50586090961233        1.45282225082224
C           63.72909418316006        0.62686485136075        3.41764549152001
C           63.71159298691008        0.81442837008559        4.88708577276204
C           63.17509141291519       -0.16641341998930        5.72347754365115
C           63.16203557446851       -0.00671174881909        7.09846145769664
C           63.68862732715012        1.15260336541978        7.67542465202966
N           63.65093496524207        1.39026794096432        9.04151749910259
C           63.58326702007661        0.26741471849180        9.96708735319286
C           64.21537629043516        2.14538214285132        6.84015440694352
C           64.23185291995506        1.97384634546184        5.46875140156104
C           62.51226010286821        0.44226769732315        2.75589306713203
C           61.21776363685106        0.50931836305345        3.40902404523265
C           60.29243935246196        0.31235870568380        2.44681652836884
N           62.35045706937981        0.21759058989889        1.42202667133441
C           61.02243510603196        0.13017599189560        1.20759392074039
C           60.37733164179757       -0.08531033067302       -0.02772821375774
C           61.00272232526505       -0.24013304636780       -1.28021390961371
C           60.34595323089786       -0.42406789391563       -2.52507322037184
C           61.30325664550539       -0.51160769199596       -3.49831097525221
C           62.57559700002988       -0.39075476237871       -2.87512832205507
N           62.34135189177857       -0.22515919838171       -1.53506228335323
C           63.82959711995405       -0.39441168630672       -3.49751034399236
C           63.85003586081818       -0.62596528000163       -4.95953292096897
C           64.40769851833439        0.31686361678460       -5.82541245201750
C           64.42592643309544        0.11020663946245       -7.19412708164182
C           63.88269338439888       -1.05876053136909       -7.73502878370276
N           63.92393920059764       -1.34310431677322       -9.09197779529132
C           64.02044977193108       -0.25333256040770      -10.05379919490503
C           63.33350220071018       -2.01337096763016       -6.87015257803050
C           63.31243045782544       -1.79520461495528       -5.50573963430826
C           65.04675224259910       -0.19397334596535       -2.83569233842064
C           66.34901234067824       -0.26264170783155       -3.47952586251837
C           67.26472158590983       -0.02982505495142       -2.51724379371838
C           66.52406098889998        0.16711532664111       -1.28424440685787
N           65.19209493702037        0.05810108826209       -1.51313683132990
H           68.22649604030774        0.46058730026710       -0.07030922836341
H           68.27956823731810        0.79501040454730        2.54440613174789
H           66.42547120122417        0.89395259713307        4.46748432565945
H           64.47375763010774        0.37170224490148        0.76328868322975
H           62.78012138639155       -1.07827563423691        5.28887418130980
H           62.74001641865701       -0.78878793926086        7.71760150202718
H           64.32040483548242        2.09147234226845        9.33500518541986
H           64.37480558999947       -0.46502656458010        9.77102337924382
H           63.69595797444278        0.65763096215714       10.97858955289724
H           62.61253410932841       -0.22362278887490        9.88894815527106
H           64.61114931848937        3.05589087847520        7.27780528725642
H           64.63233094103424        2.75746212187081        4.83470008520508
H           61.05828425724918        0.70419015670596        4.45715941275994
H           59.21824050481268        0.29627178485110        2.53959245982981
H           59.27641572227044       -0.47366702857010       -2.65169904719589
H           61.14312857101999       -0.63251875563351       -4.55728119558975
H           63.06948664406354       -0.09335199213112       -0.84068954924564
H           64.81418387538831        1.23726388177905       -5.42034073066542
H           64.86460740574148        0.86369732458759       -7.83670063865075
H           63.24207802622465       -2.04020654879761       -9.36595780791871
H           65.00360833474927        0.21482945665217       -9.99080874626551
H           63.24811700736323        0.50525713507046       -9.88232445067986
H           63.89769112074765       -0.67332807180830      -11.05209317415185
H           62.92388811609477       -2.93093014018718       -7.27937846958142
H           62.89459110048227       -2.54953315533538       -4.84786086129405
H           66.51751145643509       -0.48006251333744       -4.52200627026585
H           68.34001218686279       -0.00099137139955       -2.60090632238962
C           42.94430442040635       -0.14560508449376        0.04029480943050
C           41.72204802930320       -0.11418994701435        0.03064086997576
C           44.29289047355386       -0.16861638980942        0.04192654049309
C           45.51566984615315       -0.17885837328012        0.04055887807748
C           56.40229487825919       -0.20433820648884       -0.02833153670940
C           55.17971141236436       -0.22612881142327       -0.01926959529811
C           57.75068563673498       -0.17305799081065       -0.03199573382794
C           58.97282991221989       -0.13627916691446       -0.02678344521880
C           46.92018258338037       -0.17702722118311        0.03332576487617
C           47.55322330990654       -0.13116825745028        1.29108518852922
C           46.90902882107086       -0.12356105635723        2.55445347091280
C           47.87814454734033       -0.08834315334017        3.52059575963869
C           49.14260034412478       -0.06413151233634        2.87315274267908
N           48.89517791313985       -0.09800341037847        1.52636588143406
C           50.40510968296498       -0.04097125211682        3.48086529025918
C           50.42470404150081        0.03895880286781        4.96051859295737
C           51.03520356345759       -0.96055641724359        5.72340194252828
C           51.04882759825893       -0.88726298706273        7.10326481473610
C           50.45701163469218        0.19610815329045        7.76445575196102
N           50.54801165835801        0.25676702316060        9.14717682192681
C           49.57516304079405        1.03762824937794        9.89952125155274
C           49.85763559954361        1.20559320850987        7.00583804391575
C           49.83707803716244        1.11742150309874        5.62428875574678
C           51.62663051989908       -0.08220196407064        2.80542352526441
C           52.91715359215827        0.01546292634389        3.46288670803100
C           53.84913135810999       -0.04754548155800        2.48906777794784
N           51.79607254101211       -0.18569225001869        1.45786751594088
C           53.12655951509250       -0.17214187774375        1.23923440046573
C           53.77529547745080       -0.24416951923521       -0.01027695196586
C           53.14265909144876       -0.30755510558153       -1.26750635643537
C           53.78757031587779       -0.32430544113334       -2.53048912244056
C           52.81887882862980       -0.34468592641420       -3.49729578039618
C           51.55371936361009       -0.35224136755478       -2.85072982944184
N           51.80058343239192       -0.32797140438159       -1.50357096773509
C           50.29137161426164       -0.34504166263257       -3.45869986066327
C           50.27019778012378       -0.38203786871194       -4.94020010829093
C           49.68772121388966        0.65734246484287       -5.66782082098215
C           49.66928595163839        0.63990136366085       -7.05189043335643
C           50.22317765514003       -0.43866733500577       -7.74744985798210
N           50.27315718180451       -0.48605038295432       -9.13292928646523
C           49.29624939348552        0.26138598249861       -9.91377651497869
C           50.81117870875505       -1.48232632308219       -7.02223195681949
C           50.83711548647157       -1.45022734542259       -5.64070220226736
C           49.07006342167871       -0.29928669807453       -2.78326327604590
C           47.77947048110097       -0.36650882130460       -3.44427587201848
C           46.84685285622087       -0.31645826786344       -2.47020238857434
C           47.56911197193688       -0.22735396254105       -1.21720085663887
N           48.89993900112039       -0.22362830568155       -1.43405003164506
H           45.84080499789255       -0.15026049985131        2.69785393138412
H           47.73050269722494       -0.09305345861129        4.58823121158630
H           49.61422110037346       -0.10595350348100        0.81063372995892
H           51.48266805479948       -1.81389292876481        5.22573969118330
H           51.51941113689463       -1.67369361858376        7.68395601652948
H           50.72452206458120       -0.64771257144662        9.56760240941017
H           48.54730895866088        0.76876506335513        9.63003083460941
H           49.73300976851173        0.84082964376685       10.95992904061278
H           49.72737740361058        2.10200397540962        9.71591104102857
H           49.40950857477505        2.06593789088945        7.48764278159917
H           49.37869215937872        1.91302472911936        5.04675343318456
H           53.06892836387438        0.13572475081675        4.52326659936402
H           54.92268458530392       -0.00434687415741        2.58071976087958
H           54.85607836086412       -0.31084656315489       -2.67342894214097
H           52.96775313443749       -0.33997042063894       -4.56469506041999
H           51.08130934072769       -0.30693127191565       -0.78834292705086
H           49.26227121732505        1.50355241431333       -5.13936173008796
H           49.22515779484791        1.47128231181170       -7.58540909567515
H           50.41145722911087       -1.42506267301800       -9.48678935285770
H           49.48141575428074        1.33206174954745       -9.81812494353714
H           49.41458709515854       -0.02070178490789      -10.95997352061918
H           48.27134544165373        0.04264764726232       -9.59293274072899
H           51.24658223577931       -2.32201654251470       -7.55377173120300
H           51.27965129063562       -2.27483858836206       -5.09243698692658
H           47.62808927635754       -0.45983471714151       -4.50750317204449
H           45.77300993775243       -0.34534829925989       -2.56422267139625

          :  Hamiltonian                  GFN1-xTB          :
         :: total energy            -332.876476486589 Eh    ::
         :: gradient norm              0.000591926639 Eh/a0 ::
         :: HOMO-LUMO gap              0.788537927734 eV    ::
         :: SCC energy              -338.308826928920 Eh    ::
         :: repulsion energy           5.602117809631 Eh    ::

    * Orbital Energies and Occupations

         #    Occupation            Energy/Eh            Energy/eV
      -------------------------------------------------------------
         1        2.0000           -0.7944322             -21.6176
       ...           ...                  ...                  ...
       293        2.0000           -0.4046968             -11.0124
       294        2.0000           -0.3935226             -10.7083
       295        2.0000           -0.3927882             -10.6883
       296        2.0000           -0.3923077             -10.6752
       297        2.0000           -0.3903623             -10.6223
       298        2.0000           -0.3898404             -10.6081
       299        2.0000           -0.3897421             -10.6054
       300        2.0000           -0.3890839             -10.5875
       301        2.0000           -0.3882886             -10.5659
       302        2.0000           -0.3876903             -10.5496
       303        2.0000           -0.3770411             -10.2598
       304        2.0000           -0.3714233             -10.1069
       305        2.0000           -0.3637470              -9.8981 (HOMO)
       306        0.0000           -0.3347688              -9.1095 (LUMO)
       307                         -0.3249579              -8.8426
       308                         -0.3204196              -8.7191
       309                         -0.3199640              -8.7067
       310                         -0.3198507              -8.7036
       311                         -0.3165245              -8.6131
       312                         -0.2929765              -7.9723
       313                         -0.2853281              -7.7642
       314                         -0.2814036              -7.6574
       315                         -0.2553474              -6.9484
       316                         -0.2550194              -6.9394
       ...                                ...                  ...
       672                          1.5251757              41.5021
      -------------------------------------------------------------
                  HL-Gap            0.0289782 Eh            0.7885 eV

Wiberg/Mayer (AO) data.
largest (>0.10) Wiberg bond orders for each atom

     #   Z sym  total        # sym  WBO       # sym  WBO       # sym  WBO
 ---------------------------------------------------------------------------
     1   6 C    3.922 --    39 C    1.366     2 C    1.344    41 H    0.971
     2   6 C    3.904 --     1 C    1.344     3 C    1.232     6 N    1.170
     3   6 C    3.952 --     4 C    1.591     2 C    1.232    42 H    0.977
     4   6 C    3.959 --     3 C    1.591     5 C    1.238    43 H    0.974
     5   6 C    3.894 --     7 C    1.299     4 C    1.238     6 N    1.176
     6   7 N    3.468 --     5 C    1.176     2 C    1.170    44 H    0.873
     7   6 C    3.939 --    16 C    1.334     5 C    1.299     8 C    1.035
     8   6 C    3.988 --     9 C    1.383    15 C    1.375     7 C    1.035
     9   6 C    3.988 --    10 C    1.465     8 C    1.383    45 H    0.972
    10   6 C    3.990 --     9 C    1.465    11 C    1.353    46 H    0.970
    11   6 C    3.952 --    10 C    1.353    14 C    1.345    12 N    1.109
    12   7 N    3.179 --    11 C    1.109    13 C    0.971    47 H    0.931
    13   6 C    3.968 --    49 H    0.990    50 H    0.986    48 H    0.984
                            12 N    0.971
    14   6 C    3.989 --    15 C    1.476    11 C    1.345    51 H    0.971
    15   6 C    3.987 --    14 C    1.476     8 C    1.375    52 H    0.973
    16   6 C    3.913 --     7 C    1.334    19 N    1.285    17 C    1.127
    17   6 C    3.966 --    18 C    1.707    16 C    1.127    53 H    0.974
    18   6 C    3.963 --    17 C    1.707    20 C    1.130    54 H    0.974
    19   7 N    3.020 --    20 C    1.345    16 C    1.285
    20   6 C    3.910 --    19 N    1.345    21 C    1.253    18 C    1.130
    21   6 C    3.933 --    20 C    1.253    22 C    1.249   136 C    1.193
    22   6 C    3.886 --    23 C    1.252    21 C    1.249    26 N    1.190
    23   6 C    3.958 --    24 C    1.578    22 C    1.252    55 H    0.975
    24   6 C    3.955 --    23 C    1.578    25 C    1.245    56 H    0.974
    25   6 C    3.897 --    27 C    1.305    24 C    1.245    26 N    1.165
    26   7 N    3.473 --    22 C    1.190    25 C    1.165    57 H    0.873
    27   6 C    3.924 --    36 C    1.318    25 C    1.305    28 C    1.038
    28   6 C    3.988 --    29 C    1.383    35 C    1.373    27 C    1.038
    29   6 C    3.987 --    30 C    1.465    28 C    1.383    58 H    0.972
    30   6 C    3.989 --    29 C    1.465    31 C    1.353    59 H    0.970
    31   6 C    3.951 --    30 C    1.353    34 C    1.345    32 N    1.109
    32   7 N    3.179 --    31 C    1.109    33 C    0.971    60 H    0.931
    33   6 C    3.968 --    63 H    0.990    61 H    0.986    62 H    0.984
                            32 N    0.971
    34   6 C    3.989 --    35 C    1.477    31 C    1.345    64 H    0.971
    35   6 C    3.986 --    34 C    1.477    28 C    1.373    65 H    0.973
    36   6 C    3.927 --    40 N    1.318    27 C    1.318    37 C    1.120
    37   6 C    3.967 --    38 C    1.719    36 C    1.120    66 H    0.973
    38   6 C    3.966 --    37 C    1.719    39 C    1.119    67 H    0.976
    39   6 C    3.930 --     1 C    1.366    40 N    1.299    38 C    1.119
    40   7 N    3.009 --    36 C    1.318    39 C    1.299
    41   1 H    1.002 --     1 C    0.971
    42   1 H    0.998 --     3 C    0.977
    43   1 H    1.006 --     4 C    0.974
    44   1 H    0.986 --     6 N    0.873
    45   1 H    1.006 --     9 C    0.972
    46   1 H    1.001 --    10 C    0.970
    47   1 H    0.966 --    12 N    0.931
    48   1 H    1.003 --    13 C    0.984
    49   1 H    1.007 --    13 C    0.990
    50   1 H    1.012 --    13 C    0.986
    51   1 H    0.999 --    14 C    0.971
    52   1 H    1.005 --    15 C    0.973
    53   1 H    1.006 --    17 C    0.974
    54   1 H    1.003 --    18 C    0.974
    55   1 H    1.003 --    23 C    0.975
    56   1 H    1.006 --    24 C    0.974
    57   1 H    0.988 --    26 N    0.873
    58   1 H    1.006 --    29 C    0.972
    59   1 H    1.001 --    30 C    0.970
    60   1 H    0.966 --    32 N    0.931
    61   1 H    1.012 --    33 C    0.986
    62   1 H    1.003 --    33 C    0.984
    63   1 H    1.007 --    33 C    0.990
    64   1 H    0.999 --    34 C    0.971
    65   1 H    1.005 --    35 C    0.973
    66   1 H    1.006 --    37 C    0.973
    67   1 H    0.999 --    38 C    0.976
    68   6 C    3.921 --   106 C    1.366    69 C    1.344   108 H    0.971
    69   6 C    3.904 --    68 C    1.344    70 C    1.232    73 N    1.169
    70   6 C    3.952 --    71 C    1.590    69 C    1.232   109 H    0.977
    71   6 C    3.959 --    70 C    1.590    72 C    1.239   110 H    0.974
    72   6 C    3.894 --    74 C    1.298    71 C    1.239    73 N    1.177
    73   7 N    3.468 --    72 C    1.177    69 C    1.169   111 H    0.873
    74   6 C    3.939 --    83 C    1.334    72 C    1.298    75 C    1.035
    75   6 C    3.988 --    76 C    1.383    82 C    1.375    74 C    1.035
    76   6 C    3.988 --    77 C    1.465    75 C    1.383   112 H    0.972
    77   6 C    3.990 --    76 C    1.465    78 C    1.353   113 H    0.970
    78   6 C    3.952 --    77 C    1.353    81 C    1.345    79 N    1.109
    79   7 N    3.179 --    78 C    1.109    80 C    0.971   114 H    0.931
    80   6 C    3.968 --   116 H    0.990   117 H    0.986   115 H    0.984
                            79 N    0.971
    81   6 C    3.989 --    82 C    1.475    78 C    1.345   118 H    0.971
    82   6 C    3.987 --    81 C    1.475    75 C    1.375   119 H    0.973
    83   6 C    3.913 --    74 C    1.334    86 N    1.285    84 C    1.127
    84   6 C    3.966 --    85 C    1.707    83 C    1.127   120 H    0.973
    85   6 C    3.963 --    84 C    1.707    87 C    1.130   121 H    0.974
    86   7 N    3.020 --    87 C    1.345    83 C    1.285
    87   6 C    3.910 --    86 N    1.345    88 C    1.252    85 C    1.130
    88   6 C    3.933 --    87 C    1.252    89 C    1.249   142 C    1.193
    89   6 C    3.886 --    90 C    1.252    88 C    1.249    93 N    1.190
    90   6 C    3.958 --    91 C    1.579    89 C    1.252   122 H    0.975
    91   6 C    3.955 --    90 C    1.579    92 C    1.245   123 H    0.974
    92   6 C    3.897 --    94 C    1.306    91 C    1.245    93 N    1.164
    93   7 N    3.473 --    89 C    1.190    92 C    1.164   124 H    0.873
    94   6 C    3.924 --   103 C    1.317    92 C    1.306    95 C    1.038
    95   6 C    3.988 --    96 C    1.382   102 C    1.373    94 C    1.038
    96   6 C    3.987 --    97 C    1.465    95 C    1.382   125 H    0.972
    97   6 C    3.989 --    96 C    1.465    98 C    1.353   126 H    0.970
    98   6 C    3.951 --    97 C    1.353   101 C    1.345    99 N    1.109
    99   7 N    3.179 --    98 C    1.109   100 C    0.971   127 H    0.931
   100   6 C    3.968 --   130 H    0.990   128 H    0.986   129 H    0.984
                            99 N    0.971
   101   6 C    3.989 --   102 C    1.477    98 C    1.345   131 H    0.971
   102   6 C    3.986 --   101 C    1.477    95 C    1.373   132 H    0.973
   103   6 C    3.927 --   107 N    1.318    94 C    1.317   104 C    1.120
   104   6 C    3.967 --   105 C    1.719   103 C    1.120   133 H    0.973
   105   6 C    3.966 --   104 C    1.719   106 C    1.119   134 H    0.976
   106   6 C    3.930 --    68 C    1.366   107 N    1.299   105 C    1.119
   107   7 N    3.009 --   103 C    1.318   106 C    1.299
   108   1 H    1.002 --    68 C    0.971
   109   1 H    0.998 --    70 C    0.977
   110   1 H    1.006 --    71 C    0.974
   111   1 H    0.986 --    73 N    0.873
   112   1 H    1.006 --    76 C    0.972
   113   1 H    1.001 --    77 C    0.970
   114   1 H    0.966 --    79 N    0.931
   115   1 H    1.003 --    80 C    0.984
   116   1 H    1.007 --    80 C    0.990
   117   1 H    1.012 --    80 C    0.986
   118   1 H    0.999 --    81 C    0.971
   119   1 H    1.005 --    82 C    0.973
   120   1 H    1.006 --    84 C    0.973
   121   1 H    1.003 --    85 C    0.974
   122   1 H    1.003 --    90 C    0.975
   123   1 H    1.006 --    91 C    0.974
   124   1 H    0.988 --    93 N    0.873
   125   1 H    1.006 --    96 C    0.972
   126   1 H    1.001 --    97 C    0.970
   127   1 H    0.966 --    99 N    0.931
   128   1 H    1.012 --   100 C    0.986
   129   1 H    1.003 --   100 C    0.984
   130   1 H    1.007 --   100 C    0.990
   131   1 H    0.999 --   101 C    0.971
   132   1 H    1.005 --   102 C    0.973
   133   1 H    1.006 --   104 C    0.973
   134   1 H    0.999 --   105 C    0.976
   135   6 C    3.932 --   136 C    2.468   137 C    1.313
   136   6 C    3.923 --   135 C    2.468    21 C    1.193   138 C    0.198
   137   6 C    3.928 --   138 C    2.467   135 C    1.313
   138   6 C    3.925 --   137 C    2.467   143 C    1.195   136 C    0.198
   139   6 C    3.928 --   140 C    2.467   141 C    1.313
   140   6 C    3.925 --   139 C    2.467   163 C    1.195   142 C    0.198
   141   6 C    3.932 --   142 C    2.468   139 C    1.313
   142   6 C    3.923 --   141 C    2.468    88 C    1.193   140 C    0.198
   143   6 C    3.920 --   181 C    1.252   144 C    1.244   138 C    1.195
   144   6 C    3.887 --   145 C    1.257   143 C    1.244   148 N    1.190
   145   6 C    3.955 --   146 C    1.572   144 C    1.257   183 H    0.975
   146   6 C    3.955 --   145 C    1.572   147 C    1.251   184 H    0.974
   147   6 C    3.892 --   149 C    1.295   146 C    1.251   148 N    1.166
   148   7 N    3.470 --   144 C    1.190   147 C    1.166   185 H    0.874
   149   6 C    3.926 --   158 C    1.336   147 C    1.295   150 C    1.035
   150   6 C    3.988 --   157 C    1.384   151 C    1.373   149 C    1.035
   151   6 C    3.988 --   152 C    1.477   150 C    1.373   186 H    0.972
   152   6 C    3.989 --   151 C    1.477   153 C    1.345   187 H    0.971
   153   6 C    3.952 --   156 C    1.354   152 C    1.345   154 N    1.109
   154   7 N    3.179 --   153 C    1.109   155 C    0.971   188 H    0.931
   155   6 C    3.968 --   190 H    0.990   191 H    0.986   189 H    0.984
                           154 N    0.971
   156   6 C    3.989 --   157 C    1.464   153 C    1.354   192 H    0.970
   157   6 C    3.987 --   156 C    1.464   150 C    1.384   193 H    0.973
   158   6 C    3.915 --   149 C    1.336   161 N    1.283   159 C    1.127
   159   6 C    3.966 --   160 C    1.706   158 C    1.127   194 H    0.973
   160   6 C    3.963 --   159 C    1.706   162 C    1.131   195 H    0.974
   161   7 N    3.006 --   162 C    1.345   158 C    1.283
   162   6 C    3.910 --   161 N    1.345   163 C    1.252   160 C    1.131
   163   6 C    3.920 --   162 C    1.252   164 C    1.245   140 C    1.195
   164   6 C    3.887 --   165 C    1.256   163 C    1.245   168 N    1.190
   165   6 C    3.955 --   166 C    1.573   164 C    1.256   196 H    0.975
   166   6 C    3.955 --   165 C    1.573   167 C    1.250   197 H    0.974
   167   6 C    3.892 --   169 C    1.296   166 C    1.250   168 N    1.166
   168   7 N    3.470 --   164 C    1.190   167 C    1.166   198 H    0.874
   169   6 C    3.926 --   178 C    1.336   167 C    1.296   170 C    1.034
   170   6 C    3.988 --   171 C    1.384   177 C    1.375   169 C    1.034
   171   6 C    3.988 --   172 C    1.465   170 C    1.384   199 H    0.972
   172   6 C    3.989 --   171 C    1.465   173 C    1.353   200 H    0.970
   173   6 C    3.952 --   172 C    1.353   176 C    1.345   174 N    1.109
   174   7 N    3.179 --   173 C    1.109   175 C    0.971   201 H    0.931
   175   6 C    3.968 --   203 H    0.990   202 H    0.986   204 H    0.984
                           174 N    0.971
   176   6 C    3.989 --   177 C    1.475   173 C    1.345   205 H    0.971
   177   6 C    3.987 --   176 C    1.475   170 C    1.375   206 H    0.973
   178   6 C    3.915 --   169 C    1.336   182 N    1.284   179 C    1.127
   179   6 C    3.966 --   180 C    1.706   178 C    1.127   207 H    0.974
   180   6 C    3.963 --   179 C    1.706   181 C    1.131   208 H    0.974
   181   6 C    3.910 --   182 N    1.345   143 C    1.252   180 C    1.131
   182   7 N    3.006 --   181 C    1.345   178 C    1.284
   183   1 H    1.003 --   145 C    0.975
   184   1 H    1.006 --   146 C    0.974
   185   1 H    0.988 --   148 N    0.874
   186   1 H    1.005 --   151 C    0.972
   187   1 H    0.999 --   152 C    0.971
   188   1 H    0.966 --   154 N    0.931
   189   1 H    1.004 --   155 C    0.984
   190   1 H    1.007 --   155 C    0.990
   191   1 H    1.012 --   155 C    0.986
   192   1 H    1.001 --   156 C    0.970
   193   1 H    1.005 --   157 C    0.973
   194   1 H    1.006 --   159 C    0.973
   195   1 H    1.003 --   160 C    0.974
   196   1 H    1.003 --   165 C    0.975
   197   1 H    1.006 --   166 C    0.974
   198   1 H    0.988 --   168 N    0.874
   199   1 H    1.005 --   171 C    0.972
   200   1 H    1.001 --   172 C    0.970
   201   1 H    0.966 --   174 N    0.931
   202   1 H    1.012 --   175 C    0.986
   203   1 H    1.007 --   175 C    0.990
   204   1 H    1.003 --   175 C    0.984
   205   1 H    0.999 --   176 C    0.971
   206   1 H    1.005 --   177 C    0.973
   207   1 H    1.006 --   179 C    0.974
   208   1 H    1.003 --   180 C    0.974
 ---------------------------------------------------------------------------

           -------------------------------------------------
          | TOTAL ENERGY             -332.876476486589 Eh   |
          | GRADIENT NORM               0.000591926639 Eh/α |
          | HOMO-LUMO GAP               0.788537927734 eV   |
           -------------------------------------------------

 * finished run on 2022/07/30 at 23:02:12.334
