   * xtb version 6.5.1 (b24c23e) compiled by 'conda@728c89f4b128' on 2022-07-12
          program call               : xtb Fe_Ph3OH_C8_3.xyz --gfn 1 --opt -T 48

   ID    Z sym.   atoms
    1   26 Fe     1, 63, 141
    2    6 C      2-6, 8-11, 13, 15, 17-20, 22-27, 29-32, 34, 36, 38-42,
                  64-68, 70-73, 75, 77, 79-82, 84-89, 91-94, 96, 98, 100-104,
                  125-140, 142-146, 148-151, 153, 155, 157-160, 162-167,
                  169-172, 174, 176, 178-182
    3    7 N      7, 21, 28, 43, 69, 83, 90, 105, 147, 161, 168, 183
    4    8 O      12, 14, 16, 33, 35, 37, 74, 76, 78, 95, 97, 99, 152, 154,
                  156, 173, 175, 177
    5    1 H      44-62, 106-124, 184-201

          :  Hamiltonian                  GFN1-xTB          :
 * total energy  :  -397.4194088 Eh     change        0.2407717E-08 Eh
 * total energy  :  -397.8912220 Eh     change       -0.4718132E+00 Eh
 * total energy  :  -398.0617509 Eh     change       -0.1705289E+00 Eh
 * total energy  :  -398.1605719 Eh     change       -0.9882093E-01 Eh
 * total energy  :  -398.2415215 Eh     change       -0.8094966E-01 Eh
 * total energy  :  -398.3172912 Eh     change       -0.7576972E-01 Eh
 * total energy  :  -398.3763425 Eh     change       -0.5905129E-01 Eh
 * total energy  :  -398.4110709 Eh     change       -0.3472832E-01 Eh
 * total energy  :  -398.4375394 Eh     change       -0.2646849E-01 Eh
 * total energy  :  -398.4560403 Eh     change       -0.1850093E-01 Eh
 * total energy  :  -398.5398403 Eh     change        0.2685348E-04 Eh
 * total energy  :  -398.5398700 Eh     change       -0.2972842E-04 Eh
 * total energy  :  -398.5398456 Eh     change        0.2440881E-04 Eh
 * total energy  :  -398.5398781 Eh     change       -0.3250599E-04 Eh
 * total energy  :  -398.5397620 Eh     change        0.1160865E-03 Eh
 * total energy  :  -398.5398710 Eh     change       -0.1090313E-03 Eh
 * total energy  :  -398.5397941 Eh     change        0.7689499E-04 Eh
 * total energy  :  -398.5398904 Eh     change       -0.9629735E-04 Eh
 * total energy  :  -398.5398932 Eh     change       -0.2785107E-05 Eh
   *** GEOMETRY OPTIMIZATION CONVERGED AFTER 77 ITERATIONS ***

 final structure:
================
201
 xtb: 6.5.1 (b24c23e)
Fe          28.18360253502243        0.00213371322246       -0.02028177949323
C           24.79163070069978        0.05027250399378       -0.10576830486146
C           25.45107609446274        1.26137304237846       -0.10087387822143
C           24.77716648357401        2.52448952294328       -0.11230781069804
C           25.73817266220257        3.47634817305268       -0.06877795605925
C           26.99895732894127        2.79234026367033       -0.03933234577432
N           26.80944517770920        1.43684839478192       -0.05645336806288
C           28.22667957848946        3.43937928816829        0.04981123663964
C           28.24414028401726        4.92324142784831        0.07869157841273
C           27.79817084250438        5.64945319489596       -1.02531194806560
C           27.82059084412897        7.03911284493934       -0.99967324120295
O           27.39821099889268        7.75553994299313       -2.06957522558775
C           28.28134646377274        7.70621408652265        0.13671935758677
O           28.28798860489967        9.07625353842819        0.13456931625575
C           28.72148454535840        6.98002443431581        1.24046248533101
O           29.15472671798648        7.70433553816398        2.31964999142537
C           28.70921434696517        5.59089695760847        1.21451653683302
C           29.43490328116999        2.76099372486160        0.11557024629640
C           30.70985841268193        3.41238226344771        0.17427035336296
C           31.64795137720741        2.43572156480099        0.18744050493439
N           29.59778962442495        1.39559595777261        0.08504965827801
C           30.94480232065774        1.19284499229559        0.12652513734321
C           31.59586722978158       -0.04606835887222        0.07876290272413
C           30.91400206112863       -1.26619949817480       -0.00120376271779
C           31.58478566223525       -2.52631766406731       -0.07515444538582
C           30.62070357535199       -3.47569037529746       -0.12831388831419
C           29.36275066085974       -2.79124978003174       -0.07602337767426
N           29.56122108082968       -1.43157203490457       -0.01423124207028
C           28.13443997669634       -3.43490069282500       -0.10135371263018
C           28.11060980777066       -4.91785862401591       -0.14913740148585
C           28.63451670216810       -5.66273288878133        0.90721794245554
C           28.60768360760617       -7.05179837835364        0.86031294642113
O           29.10611102323414       -7.78618959307350        1.88429281390860
C           28.06430217710431       -7.69967666809981       -0.25031973549229
O           28.05598528625324       -9.06959114092610       -0.27092714276970
C           27.54554962166485       -6.95496517957560       -1.30662839752531
O           27.03378374348144       -7.66102724880571       -2.36339739632175
C           27.56165681656067       -5.56661926994442       -1.25840631177425
C           26.92226896841870       -2.75272584782635       -0.08831037202739
C           25.64287886558339       -3.40121755568991       -0.06813425024312
C           24.70764349880719       -2.42257349286194       -0.07161187308599
C           25.41654747709904       -1.17907570708695       -0.08410230555101
N           26.77009156467523       -1.39264856837622       -0.08010777216019
H           23.70762600986842        0.06548251871558       -0.12516454228395
H           23.70599162315361        2.64596559889900       -0.14181783544776
H           25.61679720790891        4.54708586406205       -0.04745324042630
H           27.45072745789098        5.14159778912689       -1.91567945571326
H           27.49156539383427        8.69975358606162       -1.86091143103303
H           28.63453687312324        9.37506264638003        0.99039688779319
H           29.43828341578197        7.11993637863707        3.03491989137574
H           29.04209418580959        5.03140569244307        2.08078754559567
H           30.85911987127061        4.47964880518159        0.18893209439613
H           32.72099985000430        2.53280509356860        0.22468833892308
H           32.65546994271464       -2.65150435413793       -0.08889579800954
H           30.74043602095982       -4.54399449281455       -0.20402582247059
H           29.04713698344212       -5.16997771329154        1.77800197333428
H           28.99659475731545       -8.72670061134056        1.66707395171855
H           27.64811655768735       -9.35350957109188       -1.10451217955687
H           26.70268530016955       -7.06442788073556       -3.04766756575315
H           27.16712758577054       -4.99266733223638       -2.08866430888217
H           25.49230407630385       -4.46830898370880       -0.04390682631240
H           23.63312109903096       -2.51418637080307       -0.06122769066888
Fe          65.28739658975186       -0.04232241982685        0.00533539454707
C           68.67911560624427       -0.07954029523806       -0.09965278091696
C           68.01935622216953       -1.28336110288538       -0.23103871243145
C           68.69272371998628       -2.53652576159867       -0.39159226795003
C           67.73134705674100       -3.48664520300492       -0.45921142887294
C           66.47094784700194       -2.81061872125941       -0.34675167944858
N           66.66099697318748       -1.46262991643497       -0.20461678605276
C           65.24326402769707       -3.46381246767472       -0.32993282954104
C           65.22609717449903       -4.94045747271713       -0.47824531260355
C           65.66820205683115       -5.52914521494678       -1.66278808889837
C           65.64709647700919       -6.91193395881653       -1.80313019025240
O           66.06591339251743       -7.49495792216774       -2.95245200376149
C           65.19161299637420       -7.71050372176170       -0.75261183844814
O           65.18642610973470       -9.07052073888979       -0.91807076609107
C           64.75535842922986       -7.12181757481588        0.43162895085205
O           64.32737216272628       -7.97030448079958        1.41852071880133
C           64.76631265934041       -5.73951847302421        0.57164168399827
C           64.03575745501954       -2.79870700383752       -0.17541877376474
C           62.76105782319748       -3.45317248614066       -0.18281881292743
C           61.82379926841998       -2.48588984722282       -0.04134272455406
N           63.87333808206463       -1.43957110897693       -0.04038696491225
C           62.52703979340794       -1.24426553565026        0.03994857357989
C           61.87621169974074       -0.00881352671315        0.14644381103347
C           62.55781155209218        1.21313075981428        0.19796489208451
C           61.88657960855804        2.47295179690242        0.27270746193410
C           62.85017575145985        3.42351724543306        0.31064703782007
C           64.10847491252791        2.73885603715275        0.27117946912873
N           63.91031697000418        1.38035565458642        0.18550837363385
C           65.33654907819225        3.38256977963662        0.30318240216420
C           65.36065754159047        4.86189038650953        0.41658455110294
C           64.84690588496085        5.48756772666727        1.55228679363007
C           64.87400540268214        6.87354202781294        1.65604423712972
O           64.38539537833547        7.49217697858879        2.75814336045496
C           65.40743377068442        7.63829747815736        0.61716840098770
O           65.41597696226088        9.00222387435838        0.74513901670476
C           65.91626789921642        7.01271438814976       -0.51830977345082
O           66.41864690248386        7.82940222144075       -1.49687632096045
C           65.90006338050149        5.62730531910101       -0.62066227214992
C           66.54877743889872        2.70388088707683        0.23238352118083
C           67.82821622510762        3.34700424244010        0.31673785720840
C           68.76343195770492        2.37476948638662        0.20447245458463
C           68.05444515302744        1.13971066615663        0.05995635023105
N           66.70090620518762        1.35111792746755        0.09219100128377
H           69.76306259407461       -0.09235341749556       -0.12364108578263
H           69.76379025724664       -2.65391314493530       -0.43716534972555
H           67.85232372092115       -4.55245851230832       -0.56444861259014
H           66.01169235692879       -4.91813151432296       -2.48744398179607
H           65.97393470841081       -8.45743315802349       -2.85783107533734
H           64.84365456650927       -9.46971449037103       -0.10261784427922
H           64.04610642882307       -7.47565315222964        2.19938359876574
H           64.43685247106033       -5.28792865369627        1.49996939291559
H           62.61116152183319       -4.51445412168755       -0.29573650911578
H           60.75115701473045       -2.58749970535404       -0.00457930955378
H           60.81586707852649        2.59771132289839        0.28705415176631
H           62.72975376129245        4.49352945375150        0.35393661095914
H           64.44217619476909        4.90312611375029        2.36834871240597
H           64.49202750992778        8.45088344525260        2.64287125566595
H           65.81494516882024        9.37550938273274       -0.05692878729469
H           66.74142791825777        7.31099511216485       -2.24569952635544
H           66.28683528550464        5.14689595714229       -1.51170014671978
H           67.97887291993838        4.40532020519499        0.45529810229394
H           69.83799107815672        2.46510495847993        0.22053437740159
C           32.99581873292353       -0.06296895362974        0.09731869295936
C           34.22245879287735       -0.07152522284271        0.10559108856243
C           35.56133832867065       -0.07736359543862        0.10626678722451
C           36.79445127248727       -0.07684043212184        0.09911488525446
C           38.12829314943489       -0.07232759485120        0.08690645917446
C           39.36137531443310       -0.06469051184678        0.06941724775629
C           40.69960665796756       -0.05596051888946        0.04655721627120
C           41.92632514646947       -0.04396989465877        0.02256425550870
C           51.54685570395939        0.00446857076308        0.11971696811958
C           52.77339298632867        0.01168345398569        0.15593670192450
C           54.11144536106881        0.01531725024473        0.18640810763449
C           55.34453572960165        0.01962705645987        0.20841882840923
C           56.67830930190956        0.01923475399676        0.21785153968441
C           57.91150927189135        0.01860626047523        0.21826587245960
C           59.25021002410638        0.01341130653415        0.20573835184353
C           60.47672924586156        0.00500826692290        0.18379430425445
Fe          46.73746533254752       -0.01222224941149       -0.01179961731336
C           43.32467758850497       -0.03186036599855       -0.00156107069347
C           43.99032905792276        1.17727103780109        0.24203101674691
C           43.31275015430381        2.40048471133142        0.53366622211915
C           44.26115541575908        3.36865577142936        0.57136760338830
C           45.51325221402397        2.73039824782129        0.29738730714162
N           45.33425798214002        1.37831664139243        0.13734214344936
C           46.72044686341153        3.40773654053797        0.16742519913433
C           46.71042614484899        4.88719944616316        0.24130841766829
C           47.42682477322199        5.54732168649739        1.24060581717497
C           47.41901191140428        6.93654458510549        1.32818055498896
O           48.09898090232014        7.59061487550725        2.30481135344691
C           46.69767915220434        7.68637515716660        0.39281877426113
O           46.67796254887563        9.04247042082208        0.44603986707219
C           45.98855298877394        7.01765586549093       -0.60924065039305
O           45.30887744578648        7.81183717872815       -1.49565286811551
C           45.98113058735830        5.63229874185889       -0.68754881663829
C           47.93610560067290        2.75918726028772       -0.01435731414606
C           49.18835624906955        3.43346150322570       -0.18162143745878
C           50.14850227696559        2.47640050875848       -0.19264932904143
N           48.12782346782537        1.39907573935194        0.01740802192476
C           49.47719087304247        1.22367895809992       -0.05011618477745
C           50.14906084207163       -0.00039074967337        0.07469672003645
C           49.47932403629068       -1.22963761601316        0.13873757357599
C           50.15221139952116       -2.48294761878056        0.27345498264363
C           49.20480677227533       -3.44520128604840        0.15744330459889
C           47.95782233809517       -2.77282878559795       -0.05236717874367
N           48.13807297991895       -1.41171454431218       -0.01994303402999
C           46.75586395987487       -3.42274902141162       -0.30479140896876
C           46.76585187846117       -4.90015865332606       -0.43368834436793
C           47.50824375442181       -5.50544623645242       -1.44819596150380
C           47.50623541181103       -6.88949453357352       -1.57667073211989
O           48.20577765389428       -7.48933123785335       -2.56779411148770
C           46.77042423411937       -7.66892468799217       -0.68143080219677
O           46.80087391505779       -9.04590554524736       -0.84143893370987
C           46.06214652835809       -7.06695120644319        0.35702735027661
O           45.37207080737203       -7.82601364363256        1.25597893147196
C           46.04257271362862       -5.68123373235375        0.46821724770492
C           45.54409481445558       -2.75403622857603       -0.42588926382515
C           44.29666739077518       -3.39827827597068       -0.70863447580153
C           43.33529631830342       -2.44809943871654       -0.60758976136014
C           44.00138638523568       -1.22696015008112       -0.28143127996025
N           45.34958085171429       -1.41093137096011       -0.21223942795813
H           42.24916436428686        2.49299987775305        0.68368351269905
H           44.13325257784343        4.41960372622356        0.77330044691218
H           47.97936226702694        4.97498978504249        1.97714997366635
H           48.55314404804649        6.97063189673414        2.89043638486650
H           46.12726499290539        9.36781109041607       -0.28438093890366
H           44.85139744769040        7.27747424868831       -2.15776417304191
H           45.43232644974693        5.13697916154374       -1.47978166348856
H           49.30901562819494        4.49987512443078       -0.28010655744288
H           51.21569683199744        2.59378353881199       -0.29033064860270
H           51.21266324232832       -2.59661224752144        0.43065776275973
H           49.32946231783212       -4.51425287010969        0.21215468756559
H           48.06650034964625       -4.90776948247519       -2.15700508455950
H           48.08188268768357       -8.45035419842325       -2.49200373408098
H           45.92498060760150       -9.42723015858817       -0.69682750874563
H           45.68862080625691       -8.74038041686700        1.23812108777921
H           45.48833958152765       -5.22334083262715        1.27717623471203
H           44.18042473594938       -4.44185607051056       -0.95135408037149
H           42.27033652860524       -2.54996354231129       -0.74068012173826

          :  Hamiltonian                  GFN1-xTB          :
         :: total energy            -398.539893221535 Eh    ::
         :: gradient norm              0.000528847117 Eh/a0 ::
         :: HOMO-LUMO gap              0.051610965328 eV    ::
         :: SCC energy              -404.197458221771 Eh    ::
         :: repulsion energy           5.834873778859 Eh    ::

    * Orbital Energies and Occupations

         #    Occupation            Energy/Eh            Energy/eV
      -------------------------------------------------------------
         1        2.0000           -0.8153054             -22.1856
       ...           ...                  ...                  ...
       336        2.0000           -0.3975378             -10.8176
       337        2.0000           -0.3959331             -10.7739
       338        1.9953           -0.3899853             -10.6120
       339        1.9928           -0.3895817             -10.6011
       340        1.9916           -0.3894383             -10.5972
       341        1.9914           -0.3894177             -10.5966
       342        1.9694           -0.3882012             -10.5635
       343        1.9610           -0.3879664             -10.5571
       344        1.9524           -0.3877733             -10.5518
       345        1.9519           -0.3877623             -10.5515
       346        1.9488           -0.3877019             -10.5499
       347        1.9485           -0.3876970             -10.5498
       348        1.2539           -0.3847382             -10.4693 (HOMO)
       349        0.3717           -0.3828415             -10.4176 (LUMO)
       350        0.3363           -0.3827259             -10.4145
       351        0.3353           -0.3827225             -10.4144
       352                         -0.3471942              -9.4476
       353                         -0.3368916              -9.1673
       354                         -0.3315942              -9.0231
       355                         -0.3310331              -9.0079
       356                         -0.3280175              -8.9258
       357                         -0.3279842              -8.9249
       358                         -0.3130570              -8.5187
       359                         -0.3084793              -8.3941
       ...                                ...                  ...
       707                          1.5961470              43.4334
      -------------------------------------------------------------
                  HL-Gap            0.0018967 Eh            0.0516 eV

Wiberg/Mayer (AO) data.
largest (>0.10) Wiberg bond orders for each atom

     #   Z sym  total        # sym  WBO       # sym  WBO       # sym  WBO
 ---------------------------------------------------------------------------
     1  26 Fe   3.082 --     7 N    0.663    43 N    0.662    28 N    0.656
                            21 N    0.656
     2   6 C    3.918 --     3 C    1.364    42 C    1.363    44 H    0.970
     3   6 C    3.925 --     2 C    1.364     7 N    1.210     4 C    1.173
     4   6 C    3.959 --     5 C    1.650     3 C    1.173    45 H    0.975
     5   6 C    3.962 --     4 C    1.650     6 C    1.175    46 H    0.973
     6   6 C    3.919 --     8 C    1.314     7 N    1.226     5 C    1.175
     7   7 N    3.378 --     6 C    1.226     3 C    1.210     1 Fe   0.663
     8   6 C    3.921 --    18 C    1.336     6 C    1.314     9 C    1.024
     9   6 C    3.988 --    10 C    1.399    17 C    1.387     8 C    1.024
    10   6 C    3.977 --     9 C    1.399    11 C    1.380    47 H    0.970
    11   6 C    3.917 --    10 C    1.380    13 C    1.324    12 O    1.053
    12   8 O    2.049 --    11 C    1.053    48 H    0.847
    13   6 C    3.904 --    15 C    1.340    11 C    1.324    14 O    1.021
    14   8 O    2.021 --    13 C    1.021    49 H    0.846
    15   6 C    3.905 --    17 C    1.384    13 C    1.340    16 O    1.014
    16   8 O    2.025 --    15 C    1.014    50 H    0.860
    17   6 C    3.973 --     9 C    1.387    15 C    1.384    51 H    0.969
    18   6 C    3.917 --     8 C    1.336    21 N    1.199    19 C    1.179
    19   6 C    3.957 --    20 C    1.638    18 C    1.179    52 H    0.973
    20   6 C    3.960 --    19 C    1.638    22 C    1.188    53 H    0.973
    21   7 N    3.377 --    22 C    1.248    18 C    1.199     1 Fe   0.656
    22   6 C    3.903 --    21 N    1.248    23 C    1.248    20 C    1.188
    23   6 C    3.919 --    24 C    1.249    22 C    1.248   125 C    1.207
    24   6 C    3.903 --    23 C    1.249    28 N    1.248    25 C    1.187
    25   6 C    3.960 --    26 C    1.640    24 C    1.187    54 H    0.973
    26   6 C    3.957 --    25 C    1.640    27 C    1.178    55 H    0.973
    27   6 C    3.917 --    29 C    1.338    28 N    1.199    26 C    1.178
    28   7 N    3.377 --    24 C    1.248    27 C    1.199     1 Fe   0.656
    29   6 C    3.922 --    27 C    1.338    39 C    1.312    30 C    1.025
    30   6 C    3.988 --    31 C    1.399    38 C    1.386    29 C    1.025
    31   6 C    3.977 --    30 C    1.399    32 C    1.380    56 H    0.970
    32   6 C    3.917 --    31 C    1.380    34 C    1.324    33 O    1.053
    33   8 O    2.049 --    32 C    1.053    57 H    0.847
    34   6 C    3.904 --    36 C    1.340    32 C    1.324    35 O    1.021
    35   8 O    2.021 --    34 C    1.021    58 H    0.846
    36   6 C    3.905 --    38 C    1.384    34 C    1.340    37 O    1.014
    37   8 O    2.025 --    36 C    1.014    59 H    0.861
    38   6 C    3.973 --    30 C    1.386    36 C    1.384    60 H    0.969
    39   6 C    3.919 --    29 C    1.312    43 N    1.227    40 C    1.176
    40   6 C    3.962 --    41 C    1.648    39 C    1.176    61 H    0.973
    41   6 C    3.958 --    40 C    1.648    42 C    1.174    62 H    0.975
    42   6 C    3.925 --     2 C    1.363    43 N    1.210    41 C    1.174
    43   7 N    3.378 --    39 C    1.227    42 C    1.210     1 Fe   0.662
    44   1 H    1.001 --     2 C    0.970
    45   1 H    0.998 --     4 C    0.975
    46   1 H    1.005 --     5 C    0.973
    47   1 H    0.999 --    10 C    0.970
    48   1 H    0.877 --    12 O    0.847
    49   1 H    0.876 --    14 O    0.846
    50   1 H    0.881 --    16 O    0.860
    51   1 H    1.000 --    17 C    0.969
    52   1 H    1.006 --    19 C    0.973
    53   1 H    1.002 --    20 C    0.973
    54   1 H    1.002 --    25 C    0.973
    55   1 H    1.005 --    26 C    0.973
    56   1 H    0.999 --    31 C    0.970
    57   1 H    0.878 --    33 O    0.847
    58   1 H    0.876 --    35 O    0.846
    59   1 H    0.881 --    37 O    0.861
    60   1 H    1.000 --    38 C    0.969
    61   1 H    1.005 --    40 C    0.973
    62   1 H    0.998 --    41 C    0.975
    63  26 Fe   3.080 --    69 N    0.662   105 N    0.662    90 N    0.656
                            83 N    0.655
    64   6 C    3.918 --    65 C    1.364   104 C    1.363   106 H    0.970
    65   6 C    3.925 --    64 C    1.364    69 N    1.210    66 C    1.173
    66   6 C    3.959 --    67 C    1.650    65 C    1.173   107 H    0.975
    67   6 C    3.962 --    66 C    1.650    68 C    1.175   108 H    0.973
    68   6 C    3.919 --    70 C    1.313    69 N    1.226    67 C    1.175
    69   7 N    3.378 --    68 C    1.226    65 C    1.210    63 Fe   0.662
    70   6 C    3.921 --    80 C    1.337    68 C    1.313    71 C    1.024
    71   6 C    3.988 --    72 C    1.399    79 C    1.387    70 C    1.024
    72   6 C    3.977 --    71 C    1.399    73 C    1.380   109 H    0.970
    73   6 C    3.917 --    72 C    1.380    75 C    1.324    74 O    1.053
    74   8 O    2.049 --    73 C    1.053   110 H    0.847
    75   6 C    3.904 --    77 C    1.340    73 C    1.324    76 O    1.021
    76   8 O    2.021 --    75 C    1.021   111 H    0.846
    77   6 C    3.905 --    79 C    1.384    75 C    1.340    78 O    1.014
    78   8 O    2.025 --    77 C    1.014   112 H    0.860
    79   6 C    3.973 --    71 C    1.387    77 C    1.384   113 H    0.969
    80   6 C    3.917 --    70 C    1.337    83 N    1.199    81 C    1.179
    81   6 C    3.957 --    82 C    1.638    80 C    1.179   114 H    0.973
    82   6 C    3.960 --    81 C    1.638    84 C    1.188   115 H    0.973
    83   7 N    3.377 --    84 C    1.249    80 C    1.199    63 Fe   0.655
    84   6 C    3.903 --    83 N    1.249    85 C    1.248    82 C    1.188
    85   6 C    3.919 --    86 C    1.249    84 C    1.248   140 C    1.207
    86   6 C    3.903 --    85 C    1.249    90 N    1.248    87 C    1.187
    87   6 C    3.960 --    88 C    1.640    86 C    1.187   116 H    0.973
    88   6 C    3.957 --    87 C    1.640    89 C    1.178   117 H    0.973
    89   6 C    3.917 --    91 C    1.338    90 N    1.199    88 C    1.178
    90   7 N    3.377 --    86 C    1.248    89 C    1.199    63 Fe   0.656
    91   6 C    3.921 --    89 C    1.338   101 C    1.311    92 C    1.025
    92   6 C    3.987 --    93 C    1.399   100 C    1.386    91 C    1.025
    93   6 C    3.977 --    92 C    1.399    94 C    1.380   118 H    0.970
    94   6 C    3.917 --    93 C    1.380    96 C    1.324    95 O    1.053
    95   8 O    2.049 --    94 C    1.053   119 H    0.847
    96   6 C    3.904 --    98 C    1.340    94 C    1.324    97 O    1.022
    97   8 O    2.021 --    96 C    1.022   120 H    0.846
    98   6 C    3.905 --   100 C    1.384    96 C    1.340    99 O    1.014
    99   8 O    2.025 --    98 C    1.014   121 H    0.860
   100   6 C    3.973 --    92 C    1.386    98 C    1.384   122 H    0.969
   101   6 C    3.919 --    91 C    1.311   105 N    1.227   102 C    1.176
   102   6 C    3.962 --   103 C    1.648   101 C    1.176   123 H    0.973
   103   6 C    3.958 --   102 C    1.648   104 C    1.174   124 H    0.975
   104   6 C    3.925 --    64 C    1.363   105 N    1.210   103 C    1.174
   105   7 N    3.378 --   101 C    1.227   104 C    1.210    63 Fe   0.662
   106   1 H    1.001 --    64 C    0.970
   107   1 H    0.998 --    66 C    0.975
   108   1 H    1.005 --    67 C    0.973
   109   1 H    0.999 --    72 C    0.970
   110   1 H    0.877 --    74 O    0.847
   111   1 H    0.876 --    76 O    0.846
   112   1 H    0.881 --    78 O    0.860
   113   1 H    1.000 --    79 C    0.969
   114   1 H    1.006 --    81 C    0.973
   115   1 H    1.002 --    82 C    0.973
   116   1 H    1.002 --    87 C    0.973
   117   1 H    1.005 --    88 C    0.973
   118   1 H    0.999 --    93 C    0.970
   119   1 H    0.877 --    95 O    0.847
   120   1 H    0.876 --    97 O    0.846
   121   1 H    0.881 --    99 O    0.860
   122   1 H    1.000 --   100 C    0.969
   123   1 H    1.005 --   102 C    0.973
   124   1 H    0.998 --   103 C    0.975
   125   6 C    3.863 --   126 C    2.409    23 C    1.207   128 C    0.182
   126   6 C    3.924 --   125 C    2.409   127 C    1.365
   127   6 C    3.880 --   128 C    2.302   126 C    1.365   130 C    0.177
   128   6 C    3.915 --   127 C    2.302   129 C    1.392   125 C    0.182
   129   6 C    3.912 --   130 C    2.301   128 C    1.392   132 C    0.182
   130   6 C    3.881 --   129 C    2.301   131 C    1.367   127 C    0.177
   131   6 C    3.919 --   132 C    2.404   130 C    1.367
   132   6 C    3.864 --   131 C    2.404   142 C    1.213   129 C    0.182
   133   6 C    3.864 --   134 C    2.403   163 C    1.213   136 C    0.182
   134   6 C    3.919 --   133 C    2.403   135 C    1.368
   135   6 C    3.881 --   136 C    2.300   134 C    1.368   138 C    0.177
   136   6 C    3.912 --   135 C    2.300   137 C    1.393   133 C    0.182
   137   6 C    3.914 --   138 C    2.301   136 C    1.393   140 C    0.182
   138   6 C    3.879 --   137 C    2.301   139 C    1.366   135 C    0.177
   139   6 C    3.924 --   140 C    2.408   138 C    1.366
   140   6 C    3.862 --   139 C    2.408    85 C    1.207   137 C    0.182
   141  26 Fe   3.057 --   183 N    0.648   168 N    0.648   161 N    0.647
                           147 N    0.646
   142   6 C    3.905 --   143 C    1.244   182 C    1.244   132 C    1.213
   143   6 C    3.904 --   147 N    1.247   142 C    1.244   144 C    1.193
   144   6 C    3.958 --   145 C    1.631   143 C    1.193   184 H    0.973
   145   6 C    3.958 --   144 C    1.631   146 C    1.185   185 H    0.973
   146   6 C    3.914 --   148 C    1.319   147 N    1.207   145 C    1.185
   147   7 N    3.366 --   143 C    1.247   146 C    1.207   141 Fe   0.646
   148   6 C    3.915 --   158 C    1.322   146 C    1.319   149 C    1.032
   149   6 C    3.986 --   150 C    1.390   157 C    1.382   148 C    1.032
   150   6 C    3.974 --   149 C    1.390   151 C    1.381   186 H    0.969
   151   6 C    3.914 --   150 C    1.381   153 C    1.319   152 O    1.045
   152   8 O    2.054 --   151 C    1.045   187 H    0.866
   153   6 C    3.913 --   155 C    1.326   151 C    1.319   154 O    1.054
   154   8 O    2.049 --   153 C    1.054   188 H    0.849
   155   6 C    3.903 --   157 C    1.392   153 C    1.326   156 O    1.014
   156   8 O    2.027 --   155 C    1.014   189 H    0.860
   157   6 C    3.973 --   155 C    1.392   149 C    1.382   190 H    0.969
   158   6 C    3.914 --   148 C    1.322   161 N    1.204   159 C    1.184
   159   6 C    3.958 --   160 C    1.632   158 C    1.184   191 H    0.973
   160   6 C    3.959 --   159 C    1.632   162 C    1.193   192 H    0.973
   161   7 N    3.366 --   162 C    1.250   158 C    1.204   141 Fe   0.647
   162   6 C    3.904 --   161 N    1.250   163 C    1.242   160 C    1.193
   163   6 C    3.905 --   164 C    1.246   162 C    1.242   133 C    1.213
   164   6 C    3.904 --   168 N    1.247   163 C    1.246   165 C    1.190
   165   6 C    3.959 --   166 C    1.634   164 C    1.190   193 H    0.973
   166   6 C    3.958 --   165 C    1.634   167 C    1.183   194 H    0.973
   167   6 C    3.914 --   169 C    1.322   168 N    1.205   166 C    1.183
   168   7 N    3.366 --   164 C    1.247   167 C    1.205   141 Fe   0.648
   169   6 C    3.914 --   179 C    1.324   167 C    1.322   170 C    1.028
   170   6 C    3.988 --   171 C    1.396   178 C    1.396   169 C    1.028
   171   6 C    3.976 --   170 C    1.396   172 C    1.377   195 H    0.970
   172   6 C    3.917 --   171 C    1.377   174 C    1.331   173 O    1.057
   173   8 O    2.053 --   172 C    1.057   196 H    0.847
   174   6 C    3.888 --   176 C    1.346   172 C    1.331   175 O    0.982
   175   8 O    1.985 --   174 C    0.982   197 H    0.863
   176   6 C    3.910 --   178 C    1.379   174 C    1.346   177 O    1.028
   177   8 O    2.030 --   176 C    1.028   198 H    0.862
   178   6 C    3.976 --   170 C    1.396   176 C    1.379   199 H    0.970
   179   6 C    3.914 --   169 C    1.324   183 N    1.204   180 C    1.183
   180   6 C    3.958 --   181 C    1.634   179 C    1.183   200 H    0.973
   181   6 C    3.959 --   180 C    1.634   182 C    1.191   201 H    0.973
   182   6 C    3.904 --   183 N    1.249   142 C    1.244   181 C    1.191
   183   7 N    3.367 --   182 C    1.249   179 C    1.204   141 Fe   0.648
   184   1 H    1.001 --   144 C    0.973
   185   1 H    1.005 --   145 C    0.973
   186   1 H    1.001 --   150 C    0.969
   187   1 H    0.886 --   152 O    0.866
   188   1 H    0.880 --   154 O    0.849
   189   1 H    0.881 --   156 O    0.860
   190   1 H    1.000 --   157 C    0.969
   191   1 H    1.005 --   159 C    0.973
   192   1 H    1.001 --   160 C    0.973
   193   1 H    1.001 --   165 C    0.973
   194   1 H    1.005 --   166 C    0.973
   195   1 H    0.999 --   171 C    0.970
   196   1 H    0.880 --   173 O    0.847
   197   1 H    0.883 --   175 O    0.863
   198   1 H    0.885 --   177 O    0.862
   199   1 H    1.000 --   178 C    0.970
   200   1 H    1.005 --   180 C    0.973
   201   1 H    1.001 --   181 C    0.973
 ---------------------------------------------------------------------------

           -------------------------------------------------
          | TOTAL ENERGY             -398.539893221535 Eh   |
          | GRADIENT NORM               0.000528847117 Eh/α |
          | HOMO-LUMO GAP               0.051610965328 eV   |
           -------------------------------------------------

 * finished run on 2022/07/29 at 22:36:23.090
