   * xtb version 6.5.1 (b24c23e) compiled by 'conda@728c89f4b128' on 2022-07-12
          program call               : xtb Cu_BSA_C2_2.xyz --gfn 1 --opt -T 48

   ID    Z sym.   atoms
    1   29 Cu     1, 65
    2    6 C      2-6, 8-12, 17-21, 23-28, 30-34, 39-44, 66-70, 72-76, 81-85,
                  87-92, 94-98, 103-108, 129, 130
    3    7 N      7, 22, 29, 45, 71, 86, 93, 109
    4   16 S      13, 35, 77, 99
    5    8 O      14-16, 36-38, 78-80, 100-102
    6    1 H      46-64, 110-128
########################################################################
[WARNING] Please study the warnings concerning your input carefully
-1- prog_main_parseArguments: Unknown option '-T' provided
########################################################################

          :  Hamiltonian                  GFN1-xTB          :
 * total energy  :  -265.0941368 Eh     change       -0.6361915E-09 Eh
 * total energy  :  -265.2085890 Eh     change       -0.1144522E+00 Eh
 * total energy  :  -265.2808463 Eh     change       -0.7225722E-01 Eh
 * total energy  :  -265.2978927 Eh     change       -0.1704647E-01 Eh
 * total energy  :  -265.3088990 Eh     change       -0.1100626E-01 Eh
 * total energy  :  -265.3156906 Eh     change       -0.6791630E-02 Eh
 * total energy  :  -265.3206519 Eh     change       -0.4961289E-02 Eh
 * total energy  :  -265.3239843 Eh     change       -0.3332399E-02 Eh
 * total energy  :  -265.3259180 Eh     change       -0.1933663E-02 Eh
 * total energy  :  -265.3270038 Eh     change       -0.1085870E-02 Eh
 * total energy  :  -265.3324761 Eh     change       -0.1022366E-04 Eh
 * total energy  :  -265.3324874 Eh     change       -0.1128049E-04 Eh
 * total energy  :  -265.3325001 Eh     change       -0.1277724E-04 Eh
 * total energy  :  -265.3325130 Eh     change       -0.1281595E-04 Eh
 * total energy  :  -265.3325241 Eh     change       -0.1115861E-04 Eh
 * total energy  :  -265.3325335 Eh     change       -0.9383759E-05 Eh
 * total energy  :  -265.3325412 Eh     change       -0.7728830E-05 Eh
 * total energy  :  -265.3325470 Eh     change       -0.5734354E-05 Eh
 * total energy  :  -265.3325518 Eh     change       -0.4794895E-05 Eh
   *** GEOMETRY OPTIMIZATION CONVERGED AFTER 61 ITERATIONS ***

 final structure:
================
130
 xtb: 6.5.1 (b24c23e)
Cu          18.27719545941473        0.03597400069915        0.04519283452452
C           14.86930362235289        0.09680248260074        0.08295187700316
C           15.50189637752500       -0.21166078469184        1.27785290297987
C           14.82595711026793       -0.55658499968615        2.49619526921042
C           15.78339394791419       -0.77518138743038        3.43090286338056
C           17.05351720370243       -0.54847355006585        2.79504509714642
N           16.85174765129240       -0.22215882465287        1.48552700408609
C           18.29897533470502       -0.64265805828731        3.42024385885314
C           18.31912050977104       -0.95890952945868        4.86876273777572
C           17.70322786878814       -0.10955883715876        5.79142690523634
C           17.72793232006880       -0.40442576677622        7.14469475783550
C           18.36963180149284       -1.55904494505007        7.56251786440268
S           18.41640113598001       -1.93278909658858        9.27439744055860
O           18.23940081019662       -0.74666480975859       10.05911250486463
O           17.05221912362249       -2.81034440387200        9.36190797730100
O           19.52037949224490       -2.79532959600522        9.57873951827026
C           18.99021345882456       -2.42061742064645        6.67239554589438
C           18.96304941086332       -2.11347431515858        5.32238346416745
C           19.53270116103747       -0.46330956465596        2.78899111892544
C           20.80073543751376       -0.44473783409856        3.46100030057850
C           21.74933860215763       -0.25047240609901        2.51058726181954
N           19.72890813922113       -0.26375743092814        1.44894565695069
C           21.07257951088901       -0.15219080030731        1.25309043478721
C           21.71632501477766       -0.00490030880130        0.01113237564579
C           21.05245313659801        0.14990369608500       -1.21948561011437
C           21.70592723972766        0.22339638354929       -2.49094004039978
C           20.74294329361836        0.43143851277023       -3.42399299748591
C           19.48964465974477        0.48524286082823       -2.72695189463430
N           19.70811708882771        0.29054775193372       -1.38945927751287
C           18.24851956257216        0.69437734591692       -3.33347352955268
C           18.24302684968654        0.99429129831583       -4.78598074877037
C           17.58286925829638        0.15025840136432       -5.68225587960964
C           17.57275729282881        0.43346798828632       -7.03834399750251
C           18.22578063432490        1.57035075145924       -7.48533826467146
S           18.20230228205884        1.94719982445787       -9.19803286020112
O           18.32383136814196        3.35940287175149       -9.41608287873712
O           19.61544288156892        1.26751623326525       -9.61758975450865
O           17.13937401225711        1.24093276939221       -9.84801248627454
C           18.88602450988369        2.42873262144776       -6.62083120200885
C           18.89454552424563        2.13285897638092       -5.26801088369844
C           17.01486296944030        0.64755043592166       -2.68018973367809
C           15.73985408397580        0.91516751832666       -3.28990116080658
C           14.79637712460435        0.74047998520785       -2.33216867511778
C           15.48628319628251        0.37887549591302       -1.12652877089203
N           16.83067311973780        0.33844588749114       -1.36390789030917
H           13.78452406204040        0.11739384110225        0.09500952664863
H           13.75542133050728       -0.62939996975501        2.60512900734550
H           15.64872993680935       -1.07380546560949        4.45803230962689
H           17.21944923530369        0.79652612635935        5.44579256233385
H           17.26414849170618        0.25294205761177        7.86935682109738
H           16.93042839340795       -3.15022919535634       10.25673850565484
H           19.48777877803761       -3.31166352761407        7.03409207815877
H           19.43408689138429       -2.77873511726723        4.60810174998212
H           20.94264887530598       -0.54493373623389        4.52481662928942
H           22.81460609675552       -0.16652390548662        2.64553980247850
H           22.76597005739482        0.11260212034878       -2.64645474820716
H           20.86512887536998        0.52066700140918       -4.49126023690488
H           17.08704366507170       -0.74011810645812       -5.31356370079547
H           17.06379230315816       -0.21382706055240       -7.74140591149066
H           19.91928683865379        1.62251623253867      -10.46193260714018
H           19.37656083353449        3.31516251636721       -7.00303845443631
H           19.39488668209143        2.79739692697996       -4.57324196119299
H           15.59328655301562        1.20979656749171       -4.31651767546101
H           13.72711693247761        0.85221025525667       -2.41790994849113
Cu          29.19566638789886        0.05027543302096       -0.02877926749330
C           32.60352018060522        0.12050177664506       -0.04317278250708
C           31.97036770535175        0.27534455778032       -1.26720412672699
C           32.64573197884602        0.40529022074503       -2.52705997803259
C           31.68784386751938        0.54723643071589       -3.47598114205444
C           30.41801876764914        0.52251553295635       -2.80081018541082
N           30.62042066235073        0.34197870079388       -1.46347217353361
C           29.17223862683677        0.66568478482896       -3.41598139676413
C           29.15128503946581        0.90702124448974       -4.87884065836769
C           29.76660935385023        2.03737519333626       -5.42263656011676
C           29.74129384851888        2.26339137825971       -6.78907579090193
C           29.09955045535882        1.34466369982192       -7.60369588584428
S           29.05249300075066        1.62966843333668       -9.33256015740950
O           29.22893201053548        3.02182823488125       -9.62369797230430
O           30.41701728379875        0.84704794830007       -9.73799352773822
O           27.94879564121007        0.94007891674175       -9.93396011855820
C           28.47942838912244        0.21503414704271       -7.09465139558169
C           28.50717613960738        0.00164479158519       -5.72668990292385
C           27.93886925772174        0.59905147282802       -2.76247231866704
C           26.67055799928790        0.86480084980779       -3.37938952506153
C           25.72247154316180        0.69450034583858       -2.42388618857328
N           27.74333495818680        0.28950244702088       -1.44338513135244
C           26.39979541667495        0.32106212403699       -1.21942653172457
C           25.75660104198703       -0.00089706349697       -0.01060970086909
C           26.42100358235244       -0.31176344818672        1.18981647954676
C           25.76811511865412       -0.71323826416934        2.39878302851300
C           26.73157565622796       -0.86453130133341        3.34222716818976
C           27.98456074486239       -0.55691915549845        2.71378342161800
N           27.76543610167816       -0.24373646595750        1.39909340371486
C           29.22600352725904       -0.58646315598993        3.35407376814463
C           29.23231467639074       -0.84394705666701        4.81469820653523
C           29.89319042300944       -1.95896969132285        5.33574826982775
C           29.90474951257344       -2.19595554887521        6.70065162033050
C           29.25238898182564       -1.30428826151351        7.53619692463572
S           29.27904361292938       -1.58517005916203        9.26714368722280
O           29.15667815877068       -0.35282614067312        9.99027264760727
O           27.86766444743082       -2.37442476172714        9.40878637472459
O           30.34403233446122       -2.47945584195397        9.60959939341516
C           28.59117735286301       -0.18783763336593        7.04994727906205
C           28.58120544417646        0.03617092524820        5.68338759083807
C           30.45935867467076       -0.38870008211258        2.72905220295262
C           31.73472399641210       -0.36521292685378        3.39382214636424
C           32.67770691696560       -0.17379713072811        2.43880532586935
C           31.98715187855504       -0.06443026969192        1.18522865967051
N           30.64286942963838       -0.18969288752932        1.39158855718016
H           33.68829510348908        0.14428760328258       -0.04726190156089
H           33.71622464629798        0.37830306569298       -2.65563967363183
H           31.82201646288437        0.64937450325990       -4.54081591973650
H           30.25045342215286        2.75176062785790       -4.76686189614054
H           30.20465651356917        3.14212608852217       -7.21975282408218
H           30.53891471854379        0.86183744474087      -10.69507103688397
H           27.98177799475430       -0.47944357261468       -7.75978776025299
H           28.03650115815594       -0.88056998972720       -5.30858587706010
H           26.52813061985256        1.16469890986559       -4.40489451910103
H           24.65721679733413        0.82281194618980       -2.51765265792038
H           24.70810932887683       -0.87368007139840        2.50285838059280
H           26.60993560760268       -1.17591414138697        4.36701863633528
H           30.38858125243185       -2.65038766310667        4.66412338287689
H           30.41445061423979       -3.05676208850576        7.11483804514422
H           27.56967953049672       -2.36358314181749       10.32656283223989
H           28.10113347055210        0.49495987110187        7.73267467138059
H           28.08021097267083        0.91000250053348        5.28328481082426
H           31.88188736901478       -0.47061315241351        4.45658189771042
H           33.74703293163394       -0.10168340987428        2.55919506357936
C           23.12765356955718       -0.01070347246859        0.00046819464280
C           24.34527536417196       -0.01018628547968       -0.00236037043055

          :  Hamiltonian                  GFN1-xTB          :
         :: total energy            -265.332551760569 Eh    ::
         :: gradient norm              0.000282409365 Eh/a0 ::
         :: HOMO-LUMO gap              0.007103019577 eV    ::
         :: SCC energy              -268.683270949028 Eh    ::
         :: repulsion energy           3.472209844059 Eh    ::

    * Orbital Energies and Occupations

         #    Occupation            Energy/Eh            Energy/eV
      -------------------------------------------------------------
         1        2.0000           -1.0363381             -28.2002
       ...           ...                  ...                  ...
       218        2.0000           -0.4283264             -11.6554
       219        2.0000           -0.4282944             -11.6545
       220        2.0000           -0.4251976             -11.5702
       221        2.0000           -0.4251921             -11.5701
       222        2.0000           -0.4251298             -11.5684
       223        2.0000           -0.4250560             -11.5664
       224        2.0000           -0.4250340             -11.5658
       225        2.0000           -0.4250257             -11.5655
       226        2.0000           -0.4141016             -11.2683
       227        2.0000           -0.4133730             -11.2485
       228        2.0000           -0.4133569             -11.2480
       229        2.0000           -0.3994517             -10.8696
       230        1.0686           -0.3727109             -10.1420 (HOMO)
       231        0.9314           -0.3724499             -10.1349 (LUMO)
       232                         -0.3560448              -9.6885
       233                         -0.3480277              -9.4703
       234                         -0.3480229              -9.4702
       235                         -0.3385655              -9.2128
       236                         -0.3197737              -8.7015
       237                         -0.3156384              -8.5890
       238                         -0.3083421              -8.3904
       239                         -0.3082756              -8.3886
       240                         -0.3031767              -8.2499
       241                         -0.2977729              -8.1028
       ...                                ...                  ...
       474                          1.3172007              35.8429
      -------------------------------------------------------------
                  HL-Gap            0.0002610 Eh            0.0071 eV

Wiberg/Mayer (AO) data.
largest (>0.10) Wiberg bond orders for each atom

     #   Z sym  total        # sym  WBO       # sym  WBO       # sym  WBO
 ---------------------------------------------------------------------------
     1  29 Cu   2.178 --    45 N    0.503     7 N    0.502    22 N    0.500
                            29 N    0.499
     2   6 C    3.930 --    44 C    1.362     3 C    1.362    46 H    0.971
     3   6 C    3.915 --     2 C    1.362     7 N    1.230     4 C    1.169
     4   6 C    3.955 --     5 C    1.658     3 C    1.169    47 H    0.975
     5   6 C    3.958 --     4 C    1.658     6 C    1.170    48 H    0.973
     6   6 C    3.915 --     8 C    1.319     7 N    1.241     5 C    1.170
     7   7 N    3.242 --     6 C    1.241     3 C    1.230     1 Cu   0.502
     8   6 C    3.932 --    19 C    1.321     6 C    1.319     9 C    1.032
     9   6 C    3.986 --    10 C    1.390    18 C    1.389     8 C    1.032
    10   6 C    3.986 --    11 C    1.450     9 C    1.390    49 H    0.971
                            17 C    0.105
    11   6 C    3.989 --    10 C    1.450    12 C    1.407    50 H    0.967
                            18 C    0.106
    12   6 C    3.929 --    11 C    1.407    17 C    1.406    13 S    0.754
    13  16 S    5.264 --    14 O    1.720    16 O    1.717    15 O    1.013
                            12 C    0.754
    14   8 O    2.079 --    13 S    1.720    16 O    0.139
    15   8 O    2.087 --    13 S    1.013    51 H    0.828
    16   8 O    2.076 --    13 S    1.717    14 O    0.139
    17   6 C    3.989 --    18 C    1.451    12 C    1.406    52 H    0.967
                            10 C    0.105
    18   6 C    3.986 --    17 C    1.451     9 C    1.389    53 H    0.971
                            11 C    0.106
    19   6 C    3.909 --     8 C    1.321    22 N    1.227    20 C    1.179
    20   6 C    3.954 --    21 C    1.641    19 C    1.179    54 H    0.973
    21   6 C    3.957 --    20 C    1.641    23 C    1.187    55 H    0.966
    22   7 N    3.245 --    23 C    1.253    19 C    1.227     1 Cu   0.500
    23   6 C    3.900 --    24 C    1.264    22 N    1.253    21 C    1.187
    24   6 C    3.940 --    23 C    1.264    25 C    1.263   129 C    1.177
    25   6 C    3.901 --    24 C    1.263    29 N    1.254    26 C    1.187
    26   6 C    3.957 --    27 C    1.641    25 C    1.187    56 H    0.966
    27   6 C    3.954 --    26 C    1.641    28 C    1.179    57 H    0.973
    28   6 C    3.909 --    30 C    1.322    29 N    1.226    27 C    1.179
    29   7 N    3.245 --    25 C    1.254    28 C    1.226     1 Cu   0.499
    30   6 C    3.932 --    28 C    1.322    41 C    1.320    31 C    1.030
    31   6 C    3.986 --    32 C    1.391    40 C    1.389    30 C    1.030
    32   6 C    3.986 --    33 C    1.449    31 C    1.391    58 H    0.971
                            39 C    0.106
    33   6 C    3.989 --    32 C    1.449    34 C    1.408    59 H    0.966
                            40 C    0.106
    34   6 C    3.931 --    33 C    1.408    39 C    1.406    35 S    0.754
    35  16 S    5.269 --    38 O    1.727    36 O    1.713    37 O    1.016
                            34 C    0.754
    36   8 O    2.072 --    35 S    1.713    38 O    0.138
    37   8 O    2.090 --    35 S    1.016    60 H    0.827
    38   8 O    2.085 --    35 S    1.727    36 O    0.138
    39   6 C    3.989 --    40 C    1.452    34 C    1.406    61 H    0.967
                            32 C    0.106
    40   6 C    3.986 --    39 C    1.452    31 C    1.389    62 H    0.971
                            33 C    0.106
    41   6 C    3.915 --    30 C    1.320    45 N    1.240    42 C    1.169
    42   6 C    3.958 --    43 C    1.659    41 C    1.169    63 H    0.973
    43   6 C    3.955 --    42 C    1.659    44 C    1.168    64 H    0.975
    44   6 C    3.915 --     2 C    1.362    45 N    1.230    43 C    1.168
    45   7 N    3.243 --    41 C    1.240    44 C    1.230     1 Cu   0.503
    46   1 H    1.001 --     2 C    0.971
    47   1 H    0.997 --     4 C    0.975
    48   1 H    1.003 --     5 C    0.973
    49   1 H    1.003 --    10 C    0.971
    50   1 H    0.999 --    11 C    0.967
    51   1 H    0.854 --    15 O    0.828
    52   1 H    1.000 --    17 C    0.967
    53   1 H    1.003 --    18 C    0.971
    54   1 H    1.003 --    20 C    0.973
    55   1 H    1.007 --    21 C    0.966
    56   1 H    1.006 --    26 C    0.966
    57   1 H    1.003 --    27 C    0.973
    58   1 H    1.003 --    32 C    0.971
    59   1 H    1.000 --    33 C    0.966
    60   1 H    0.854 --    37 O    0.827
    61   1 H    0.999 --    39 C    0.967
    62   1 H    1.003 --    40 C    0.971
    63   1 H    1.003 --    42 C    0.973
    64   1 H    0.997 --    43 C    0.975
    65  29 Cu   2.178 --   109 N    0.503    71 N    0.502    86 N    0.500
                            93 N    0.499
    66   6 C    3.930 --   108 C    1.362    67 C    1.362   110 H    0.971
    67   6 C    3.915 --    66 C    1.362    71 N    1.230    68 C    1.169
    68   6 C    3.955 --    69 C    1.658    67 C    1.169   111 H    0.975
    69   6 C    3.958 --    68 C    1.658    70 C    1.170   112 H    0.973
    70   6 C    3.915 --    72 C    1.319    71 N    1.241    69 C    1.170
    71   7 N    3.242 --    70 C    1.241    67 C    1.230    65 Cu   0.502
    72   6 C    3.932 --    83 C    1.321    70 C    1.319    73 C    1.032
    73   6 C    3.986 --    74 C    1.390    82 C    1.389    72 C    1.032
    74   6 C    3.986 --    75 C    1.450    73 C    1.390   113 H    0.971
                            81 C    0.105
    75   6 C    3.989 --    74 C    1.450    76 C    1.407   114 H    0.967
                            82 C    0.106
    76   6 C    3.929 --    75 C    1.407    81 C    1.406    77 S    0.754
    77  16 S    5.264 --    78 O    1.720    80 O    1.717    79 O    1.013
                            76 C    0.754
    78   8 O    2.079 --    77 S    1.720    80 O    0.139
    79   8 O    2.087 --    77 S    1.013   115 H    0.828
    80   8 O    2.076 --    77 S    1.717    78 O    0.139
    81   6 C    3.989 --    82 C    1.451    76 C    1.406   116 H    0.967
                            74 C    0.105
    82   6 C    3.986 --    81 C    1.451    73 C    1.389   117 H    0.971
                            75 C    0.106
    83   6 C    3.909 --    72 C    1.321    86 N    1.227    84 C    1.179
    84   6 C    3.954 --    85 C    1.641    83 C    1.179   118 H    0.973
    85   6 C    3.957 --    84 C    1.641    87 C    1.187   119 H    0.966
    86   7 N    3.245 --    87 C    1.253    83 C    1.227    65 Cu   0.500
    87   6 C    3.900 --    88 C    1.264    86 N    1.253    85 C    1.187
    88   6 C    3.940 --    87 C    1.264    89 C    1.263   130 C    1.177
    89   6 C    3.901 --    88 C    1.263    93 N    1.254    90 C    1.187
    90   6 C    3.957 --    91 C    1.641    89 C    1.187   120 H    0.966
    91   6 C    3.954 --    90 C    1.641    92 C    1.179   121 H    0.973
    92   6 C    3.909 --    94 C    1.322    93 N    1.226    91 C    1.179
    93   7 N    3.245 --    89 C    1.254    92 C    1.226    65 Cu   0.499
    94   6 C    3.932 --    92 C    1.322   105 C    1.320    95 C    1.030
    95   6 C    3.986 --    96 C    1.391   104 C    1.389    94 C    1.030
    96   6 C    3.986 --    97 C    1.449    95 C    1.391   122 H    0.971
                           103 C    0.106
    97   6 C    3.989 --    96 C    1.449    98 C    1.408   123 H    0.966
                           104 C    0.106
    98   6 C    3.930 --    97 C    1.408   103 C    1.406    99 S    0.754
    99  16 S    5.268 --   102 O    1.727   100 O    1.713   101 O    1.016
                            98 C    0.754
   100   8 O    2.072 --    99 S    1.713   102 O    0.138
   101   8 O    2.090 --    99 S    1.016   124 H    0.827
   102   8 O    2.085 --    99 S    1.727   100 O    0.138
   103   6 C    3.989 --   104 C    1.452    98 C    1.406   125 H    0.967
                            96 C    0.106
   104   6 C    3.986 --   103 C    1.452    95 C    1.389   126 H    0.971
                            97 C    0.106
   105   6 C    3.915 --    94 C    1.320   109 N    1.240   106 C    1.169
   106   6 C    3.958 --   107 C    1.659   105 C    1.169   127 H    0.973
   107   6 C    3.955 --   106 C    1.659   108 C    1.168   128 H    0.975
   108   6 C    3.915 --    66 C    1.362   109 N    1.230   107 C    1.168
   109   7 N    3.243 --   105 C    1.240   108 C    1.230    65 Cu   0.503
   110   1 H    1.001 --    66 C    0.971
   111   1 H    0.997 --    68 C    0.975
   112   1 H    1.003 --    69 C    0.973
   113   1 H    1.003 --    74 C    0.971
   114   1 H    0.999 --    75 C    0.967
   115   1 H    0.854 --    79 O    0.828
   116   1 H    1.000 --    81 C    0.967
   117   1 H    1.003 --    82 C    0.971
   118   1 H    1.003 --    84 C    0.973
   119   1 H    1.007 --    85 C    0.966
   120   1 H    1.006 --    90 C    0.966
   121   1 H    1.003 --    91 C    0.973
   122   1 H    1.003 --    96 C    0.971
   123   1 H    1.000 --    97 C    0.966
   124   1 H    0.854 --   101 O    0.827
   125   1 H    0.999 --   103 C    0.967
   126   1 H    1.003 --   104 C    0.971
   127   1 H    1.003 --   106 C    0.973
   128   1 H    0.997 --   107 C    0.975
   129   6 C    3.936 --   130 C    2.582    24 C    1.177
   130   6 C    3.936 --   129 C    2.582    88 C    1.177
 ---------------------------------------------------------------------------

           -------------------------------------------------
          | TOTAL ENERGY             -265.332551760569 Eh   |
          | GRADIENT NORM               0.000282409365 Eh/α |
          | HOMO-LUMO GAP               0.007103019577 eV   |
           -------------------------------------------------

 * finished run on 2022/07/30 at 13:05:37.679
