   * xtb version 6.5.1 (b24c23e) compiled by 'conda@728c89f4b128' on 2022-07-12
          program call               : xtb C2Py_C6_3.xyz --gfn 1 --opt -T 48

   ID    Z sym.   atoms
    1    6 C      1-5, 7-12, 14-18, 20-25, 27-32, 34-39, 60-64, 66-71, 73-77,
                  79-84, 86-91, 93-98, 119-135, 137-142, 144-148, 150-155,
                  157-162, 164-169
    2    7 N      6, 13, 19, 26, 33, 40, 65, 72, 78, 85, 92, 99, 136, 143,
                  149, 156, 163, 170
    3    1 H      41-59, 100-118, 171-188

          :  Hamiltonian                  GFN1-xTB          :
 * total energy  :  -327.0772355 Eh     change       -0.2819263E-08 Eh
 * total energy  :  -327.2138330 Eh     change       -0.1365976E+00 Eh
 * total energy  :  -327.2920077 Eh     change       -0.7817468E-01 Eh
 * total energy  :  -327.3154522 Eh     change       -0.2344448E-01 Eh
 * total energy  :  -327.3330219 Eh     change       -0.1756968E-01 Eh
 * total energy  :  -327.3482091 Eh     change       -0.1518717E-01 Eh
 * total energy  :  -327.3658365 Eh     change       -0.1762748E-01 Eh
 * total energy  :  -327.3855176 Eh     change       -0.1968112E-01 Eh
 * total energy  :  -327.4060828 Eh     change       -0.2056514E-01 Eh
 * total energy  :  -327.4275737 Eh     change       -0.2149090E-01 Eh
 * total energy  :  -327.7927389 Eh     change       -0.3874409E-04 Eh
 * total energy  :  -327.7927710 Eh     change       -0.3210186E-04 Eh
 * total energy  :  -327.7927973 Eh     change       -0.2630245E-04 Eh
 * total energy  :  -327.7928168 Eh     change       -0.1950821E-04 Eh
 * total energy  :  -327.7928229 Eh     change       -0.6109475E-05 Eh
 * total energy  :  -327.7928052 Eh     change        0.1775310E-04 Eh
 * total energy  :  -327.7928364 Eh     change       -0.3123946E-04 Eh
 * total energy  :  -327.7928429 Eh     change       -0.6509532E-05 Eh
 * total energy  :  -327.7928466 Eh     change       -0.3674969E-05 Eh
   *** GEOMETRY OPTIMIZATION CONVERGED AFTER 98 ITERATIONS ***

 final structure:
================
188
 xtb: 6.5.1 (b24c23e)
C           27.98895716742630        0.01430590055888       -0.11440451316126
C           28.59222071033753        1.01981093130544       -0.86115485819276
C           27.94285930019416        2.02345471470043       -1.63148236791222
C           28.90918682767775        2.80320369938414       -2.20565331663145
C           30.17431258997572        2.29776064377024       -1.80218228403448
N           29.93761620983403        1.22688830079207       -0.99470640861505
C           31.44102024666479        2.79425387509369       -2.15852962492572
C           31.45903385497525        3.91896699994703       -3.01299600950083
C           31.46831178975523        4.88528129643416       -3.74701205583056
C           31.47738215136670        6.00987977835114       -4.60334014099249
C           30.28813046643993        6.53552381377024       -5.12201947500343
C           30.34999551841879        7.63730748288946       -5.95637481868528
N           31.49194536285814        8.23061873271971       -6.29452347310435
C           32.62679217513597        7.73737971193087       -5.80505087589988
C           32.67422653169950        6.63969513842316       -4.96439267978668
C           32.67087309441386        2.26384453291560       -1.73605107674106
C           33.95284589790766        2.81033407231634       -2.13568822472482
C           34.89328640556658        2.04685899067098       -1.54049979474116
N           32.84411384932699        1.19636865673232       -0.91934015352605
C           34.17990396536667        1.03883006482751       -0.78010305983022
C           34.83002362419323        0.05488846794678       -0.01230690361184
C           34.20133110516637       -0.94963028735644        0.74870994998055
C           34.84423308617143       -1.94897157507871        1.52459664893404
C           33.87373862738408       -2.73026617272575        2.09173437597344
C           32.61324594409304       -2.22721019715050        1.67712971957214
N           32.85767706448443       -1.15255856008940        0.87056932603277
C           31.34791989134747       -2.73366966320876        2.02215478759781
C           31.32741454929663       -3.86896925132746        2.86083134723744
C           31.31678307650024       -4.84981610937216        3.57570239450861
C           31.29698102075787       -5.99593073258476        4.40231466048234
C           32.48379597754719       -6.59743683470361        4.83795734416456
C           32.41009486507048       -7.72057090296764        5.64221989988897
N           31.25876058898020       -8.26490409389114        6.02808367844507
C           30.12621365341468       -7.69870019142717        5.61885298931301
C           30.09028862180646       -6.57464565466309        4.81322087408245
C           30.11722571488485       -2.20311554344645        1.59540631793714
C           28.82895579506670       -2.75418911841926        1.97839258134377
C           27.89491667914119       -1.98518848577514        1.38257414026320
C           28.61590774708608       -0.96821440775062        0.63684219298768
N           29.95668008946708       -1.13379037308789        0.79091520286272
H           26.90381112147371        0.00448775944293       -0.12849244994297
H           26.87364497521998        2.12544916465120       -1.72664413555490
H           28.76865003793310        3.65445203074524       -2.85237056119964
H           30.65823193822397        0.66335786820488       -0.55615460860156
H           29.33582994834724        6.08339347563851       -4.87236089142740
H           29.44289324862360        8.06494435720806       -6.37371509297844
H           33.53989705057192        8.24593576304746       -6.10074620822473
H           33.62093593645537        6.27089414570456       -4.58862054047548
H           34.08549280674434        3.66178847661179       -2.78390032238274
H           35.96662124151172        2.13488258931379       -1.59326430668056
H           35.91239472336323       -2.05033258925460        1.62904971159248
H           34.01077432844095       -3.58046393627430        2.74033577812133
H           32.13999277789106       -0.59082174850510        0.42455802255783
H           33.44332131959003       -6.18724830633369        4.54692713193240
H           33.31499659115465       -8.20774079208159        5.99393964921451
H           29.20517167568745       -8.16830823070354        5.95205996081525
H           29.14494128634836       -6.14625221281104        4.50285322646533
H           28.69131812854101       -3.61202670531460        2.61738408675829
H           26.82045923680259       -2.07148597085670        1.42304894911845
C           66.93181133265836       -0.09241317769585        0.02019794793980
C           66.32496202327272       -0.93355832625326        0.94589356072074
C           66.97041477678030       -1.80265917738525        1.86807382971283
C           66.00110446928626       -2.44895533590728        2.58527577080093
C           64.73814571486103       -1.99154285955716        2.12237010699442
N           64.97891543841160       -1.08213360624611        1.13757467824946
C           63.46940158336330       -2.38634182030571        2.58306407243065
C           63.44297345577198       -3.35363183313281        3.61218828652051
C           63.41989726380289       -4.19031065963611        4.49085299535111
C           63.38779890157669       -5.16606096538663        5.51312889318846
C           64.56270218231138       -5.76154146341130        5.98684045856560
C           64.47540970906469       -6.71362701597928        6.98681457065118
N           63.32189683976263       -7.09631109242581        7.52847577841120
C           62.20051922009410       -6.53437507382178        7.08414266631930
C           62.17859147125628       -5.57460187063419        6.08810095240328
C           62.24237997542068       -1.90071439964022        2.10258204816735
C           60.95860824586280       -2.33383637068113        2.61827836515611
C           60.02144417212958       -1.66102670670512        1.91794572780482
N           62.07335105276571       -0.98780592901452        1.11512240957055
C           60.73859218643280       -0.82202671299183        0.97714789139668
C           60.09126157346788        0.02380937734451        0.05694406702604
C           60.72294631425661        0.85778305755792       -0.88589427909401
C           60.08367483560766        1.71422883822968       -1.81953069822644
C           61.05715713016113        2.34780184456597       -2.54415253147518
C           62.31585472660600        1.89440317798730       -2.07095137144844
N           62.06731863149747        0.99747434363285       -1.07145899715517
C           63.58348114739001        2.28820403834746       -2.53408296282546
C           63.61141119548100        3.23082181665649       -3.58450272691086
C           63.63384477909364        4.03799189225469       -4.49071386545623
C           63.67269830650935        4.97536949972586       -5.54763923877373
C           62.49743291210613        5.47606911510604       -6.12032929640984
C           62.59242999531539        6.39015405322510       -7.15439265450680
N           63.75379402051608        6.82348121478873       -7.63828763919497
C           64.87554071272886        6.35290454982497       -7.09883913160611
C           64.89014734863069        5.43687351965914       -6.06233356381491
C           64.81204295275084        1.81784088584570       -2.03605992085299
C           66.10264362459428        2.25409621559245       -2.54014992529229
C           67.03361408298760        1.59025988712847       -1.82505130201375
C           66.30850975422496        0.75012212452706       -0.88774971659465
N           64.96829829535996        0.91691815594563       -1.04594508250306
H           68.01698408212791       -0.10613196012638        0.01261658414864
H           68.03918009901156       -1.91131128409848        1.96089007975002
H           66.13818988104789       -3.17819146382658        3.36760885007783
H           64.26046125937259       -0.58710005764293        0.61990333126570
H           65.52366954023880       -5.47966198859311        5.57370680805583
H           65.37089067654379       -7.19266229878752        7.37220064433814
H           61.27732149317909       -6.86942927788133        7.54810542781338
H           61.24213091572435       -5.14316171091519        5.75583379487580
H           60.82239234148977       -3.05460267661526        3.40862929006139
H           58.94808819975060       -1.70964828706472        2.00768566173712
H           59.01580892553343        1.82547417025963       -1.91691477955812
H           60.92334743172818        3.06650359934563       -3.33653565591168
H           62.78301073633668        0.50681836844787       -0.54551716168487
H           61.53024777147843        5.15007898455580       -5.75719043614022
H           61.69685380014592        6.79441529356028       -7.61745435655224
H           65.80533480818077        6.72746102067180       -7.51723114269437
H           65.82720668933692        5.07968014277279       -5.65257890643362
H           66.24395151766532        2.97135424402502       -3.33306225375147
H           68.10844976907261        1.64096963334417       -1.90050269279677
C           40.03296555477106        0.02893810860020        0.04251731846376
C           38.80520536619976        0.03905226106301        0.02788010372075
C           37.46008680694559        0.05148927781787        0.01846546891638
C           36.23674488024957        0.06013998301575        0.00521031743903
C           41.37790844781985        0.01277994317050        0.05641460119191
C           42.60127091037428       -0.00637796776213        0.06658348798902
C           56.11647358436883        0.05086681297760        0.07966124529518
C           54.88856688869011        0.04204648974804        0.09491054075796
C           53.54380000124096        0.02908953276326        0.10199434932443
C           52.32032747287821        0.00724948265932        0.10737953568919
C           57.46140884763933        0.05054358726317        0.07290159992751
C           58.68492351796393        0.04225852831623        0.06511379327550
C           44.00718939487255       -0.02300181794787        0.07508922372632
C           44.64103905588787       -0.24265924171673       -1.16362862031139
C           44.00747184532292       -0.46280619565005       -2.41307066849240
C           44.98624387646866       -0.65703529924440       -3.35116818489227
C           46.24096080724873       -0.55664699662907       -2.69742177160222
N           45.98671992719714       -0.30376631678318       -1.38028361172314
C           47.51072514292640       -0.69322472344183       -3.28799329515376
C           47.53039952339898       -0.98610605556982       -4.66995080086895
C           47.54346310341332       -1.24965078304126       -5.85448290876819
C           47.56517899270504       -1.56383584652647       -7.23244117723362
C           48.77101519526309       -1.79185782904829       -7.90590915696008
C           48.73744973393815       -2.10115725859566       -9.25387222855773
N           47.60794815836953       -2.19339215831837       -9.95131775729389
C           46.45755877765529       -1.97734068490218       -9.31854818301899
C           46.38167482217611       -1.66298356624021       -7.97341213427066
C           48.74284184390756       -0.56538743121938       -2.62775041564969
C           50.02115736996134       -0.69591172353233       -3.29944720211836
C           50.96714235830356       -0.49680695095123       -2.35768379606706
N           48.92336409837716       -0.29937376677405       -1.31152404190027
C           50.26067190746875       -0.25192410823859       -1.11563378179363
C           50.91476113995663       -0.01250837602878        0.10687329336704
C           50.28089824791112        0.20224524993529        1.34648589917118
C           50.91446872661256        0.43169357249416        2.59418284175413
C           49.93558165290780        0.58168260416631        3.54029013449720
C           48.68082722467638        0.44935348050605        2.89233274436429
N           48.93520407809793        0.22208208606967        1.57052002235842
C           47.41095100357884        0.53478951132554        3.49231266075017
C           47.39136568294340        0.76477789555465        4.88613687356505
C           47.37799966432892        0.96050364762518        6.08375007912853
C           47.35744081067735        1.18628325012418        7.47897271423447
C           46.15017647381440        1.29573103873120        8.17910412850516
C           46.18503641451829        1.51589175322018        9.54446311652583
N           47.31715055716046        1.63020024902149       10.23438433783303
C           48.46897362241673        1.52739902154528        9.57615823563382
C           48.54370005240746        1.30794614798711        8.21225319143413
C           46.17881363596076        0.41590403783665        2.83032889811409
C           44.90035448568274        0.52217606899550        3.50613435674529
C           43.95440627324406        0.37081675128642        2.55551484062632
C           44.66103193252390        0.17031402110218        1.30558389644674
N           45.99843112593507        0.20101888336363        1.50481767764157
H           42.94039644877041       -0.47253028886164       -2.56584348824381
H           44.85729853796177       -0.85159611961408       -4.40367079483975
H           46.69585928636977       -0.18348269292962       -0.66473503903885
H           49.71368203270774       -1.72761523883143       -7.37606451286629
H           49.65765654817451       -2.28409152717483       -9.80125404962867
H           45.55529172752368       -2.06051694855543       -9.91758887030808
H           45.42300830059291       -1.49546666901324       -7.49740931951117
H           50.14817907092340       -0.90832903732018       -4.34893607472716
H           52.03989093892428       -0.51209990177245       -2.46484414817014
H           51.98162151769946        0.47399151165426        2.74084845396467
H           50.06457027582956        0.76862680877385        4.59416411491488
H           48.22598742294751        0.08765870665512        0.85757109351895
H           45.20527697780472        1.20876703450455        7.65648748678198
H           45.26368531317356        1.60487718269882       10.11283826682785
H           49.37344454582757        1.62541731216171       10.16962361095371
H           49.50360488693425        1.23065614961175        7.71602585312399
H           44.77317709688722        0.69085566414638        4.56352399070109
H           42.88157653245090        0.38702945619333        2.66189965932243

          :  Hamiltonian                  GFN1-xTB          :
         :: total energy            -327.792846576086 Eh    ::
         :: gradient norm              0.000926451798 Eh/a0 ::
         :: HOMO-LUMO gap              0.942582618393 eV    ::
         :: SCC energy              -333.708113882599 Eh    ::
         :: repulsion energy           6.063521538451 Eh    ::

    * Orbital Energies and Occupations

         #    Occupation            Energy/Eh            Energy/eV
      -------------------------------------------------------------
         1        2.0000           -0.8141821             -22.1550
       ...           ...                  ...                  ...
       289        2.0000           -0.4212556             -11.4629
       290        2.0000           -0.4212300             -11.4623
       291        2.0000           -0.4208720             -11.4525
       292        2.0000           -0.4208341             -11.4515
       293        2.0000           -0.4207069             -11.4480
       294        2.0000           -0.4206751             -11.4472
       295        2.0000           -0.4205853             -11.4447
       296        2.0000           -0.4078430             -11.0980
       297        2.0000           -0.4068753             -11.0716
       298        2.0000           -0.4068463             -11.0709
       299        2.0000           -0.3921220             -10.6702
       300        2.0000           -0.3897853             -10.6066
       301        2.0000           -0.3864807             -10.5167 (HOMO)
       302                         -0.3518415              -9.5741 (LUMO)
       303                         -0.3482429              -9.4762
       304                         -0.3479626              -9.4685
       305                         -0.3463081              -9.4235
       306                         -0.3431574              -9.3378
       307                         -0.3409381              -9.2774
       308                         -0.3232301              -8.7955
       309                         -0.3173659              -8.6360
       310                         -0.3169075              -8.6235
       311                         -0.2921547              -7.9499
       312                         -0.2915741              -7.9341
       ...                                ...                  ...
       640                          1.5710044              42.7492
      -------------------------------------------------------------
                  HL-Gap            0.0346393 Eh            0.9426 eV

Wiberg/Mayer (AO) data.
largest (>0.10) Wiberg bond orders for each atom

     #   Z sym  total        # sym  WBO       # sym  WBO       # sym  WBO
 ---------------------------------------------------------------------------
     1   6 C    3.926 --    39 C    1.379     2 C    1.340    41 H    0.971
     2   6 C    3.895 --     1 C    1.340     3 C    1.236     6 N    1.165
     3   6 C    3.954 --     4 C    1.586     2 C    1.236    42 H    0.976
     4   6 C    3.958 --     3 C    1.586     5 C    1.246    43 H    0.975
     5   6 C    3.890 --     7 C    1.256     4 C    1.246     6 N    1.191
     6   7 N    3.472 --     5 C    1.191     2 C    1.165    44 H    0.874
     7   6 C    3.935 --    16 C    1.282     5 C    1.256     8 C    1.161
     8   6 C    3.958 --     9 C    2.624     7 C    1.161
     9   6 C    3.932 --     8 C    2.624    10 C    1.142
    10   6 C    3.987 --    15 C    1.350    11 C    1.350     9 C    1.142
    11   6 C    3.973 --    12 C    1.457    10 C    1.350    45 H    0.974
                            14 C    0.104
    12   6 C    3.973 --    11 C    1.457    13 N    1.407    46 H    0.972
                            15 C    0.104
    13   7 N    2.994 --    12 C    1.407    14 C    1.407
    14   6 C    3.972 --    15 C    1.457    13 N    1.407    47 H    0.972
                            11 C    0.104
    15   6 C    3.973 --    14 C    1.457    10 C    1.350    48 H    0.974
                            12 C    0.104
    16   6 C    3.903 --    19 N    1.312     7 C    1.282    17 C    1.129
    17   6 C    3.965 --    18 C    1.708    16 C    1.129    49 H    0.975
    18   6 C    3.964 --    17 C    1.708    20 C    1.128    50 H    0.974
    19   7 N    3.017 --    20 C    1.324    16 C    1.312
    20   6 C    3.897 --    19 N    1.324    21 C    1.266    18 C    1.128
    21   6 C    3.935 --    20 C    1.266    22 C    1.249   122 C    1.185
    22   6 C    3.880 --    23 C    1.254    21 C    1.249    26 N    1.183
    23   6 C    3.958 --    24 C    1.575    22 C    1.254    51 H    0.975
    24   6 C    3.955 --    23 C    1.575    25 C    1.253    52 H    0.975
    25   6 C    3.890 --    27 C    1.262    24 C    1.253    26 N    1.179
    26   7 N    3.475 --    22 C    1.183    25 C    1.179    53 H    0.873
    27   6 C    3.924 --    36 C    1.268    25 C    1.262    28 C    1.164
    28   6 C    3.958 --    29 C    2.620    27 C    1.164
    29   6 C    3.928 --    28 C    2.620    30 C    1.143
    30   6 C    3.987 --    35 C    1.349    31 C    1.349    29 C    1.143
    31   6 C    3.972 --    32 C    1.457    30 C    1.349    54 H    0.974
                            34 C    0.103
    32   6 C    3.973 --    31 C    1.457    33 N    1.407    55 H    0.972
                            35 C    0.104
    33   7 N    2.993 --    34 C    1.407    32 C    1.407
    34   6 C    3.972 --    35 C    1.457    33 N    1.407    56 H    0.972
                            31 C    0.103
    35   6 C    3.972 --    34 C    1.457    30 C    1.349    57 H    0.974
                            32 C    0.104
    36   6 C    3.919 --    40 N    1.344    27 C    1.268    37 C    1.121
    37   6 C    3.966 --    38 C    1.721    36 C    1.121    58 H    0.975
    38   6 C    3.967 --    37 C    1.721    39 C    1.117    59 H    0.976
    39   6 C    3.919 --     1 C    1.379    40 N    1.282    38 C    1.117
    40   7 N    3.010 --    36 C    1.344    39 C    1.282
    41   1 H    1.002 --     1 C    0.971
    42   1 H    0.997 --     3 C    0.976
    43   1 H    1.002 --     4 C    0.975
    44   1 H    0.986 --     6 N    0.874
    45   1 H    1.002 --    11 C    0.974
    46   1 H    1.013 --    12 C    0.972
    47   1 H    1.013 --    14 C    0.972
    48   1 H    1.002 --    15 C    0.974
    49   1 H    1.003 --    17 C    0.975
    50   1 H    1.002 --    18 C    0.974
    51   1 H    1.001 --    23 C    0.975
    52   1 H    1.002 --    24 C    0.975
    53   1 H    0.987 --    26 N    0.873
    54   1 H    1.002 --    31 C    0.974
    55   1 H    1.013 --    32 C    0.972
    56   1 H    1.013 --    34 C    0.972
    57   1 H    1.002 --    35 C    0.974
    58   1 H    1.003 --    37 C    0.975
    59   1 H    0.998 --    38 C    0.976
    60   6 C    3.926 --    98 C    1.379    61 C    1.340   100 H    0.971
    61   6 C    3.895 --    60 C    1.340    62 C    1.236    65 N    1.165
    62   6 C    3.953 --    63 C    1.586    61 C    1.236   101 H    0.977
    63   6 C    3.958 --    62 C    1.586    64 C    1.246   102 H    0.975
    64   6 C    3.890 --    66 C    1.256    63 C    1.246    65 N    1.191
    65   7 N    3.472 --    64 C    1.191    61 C    1.165   103 H    0.874
    66   6 C    3.935 --    75 C    1.282    64 C    1.256    67 C    1.161
    67   6 C    3.958 --    68 C    2.624    66 C    1.161
    68   6 C    3.932 --    67 C    2.624    69 C    1.142
    69   6 C    3.987 --    70 C    1.350    74 C    1.350    68 C    1.142
    70   6 C    3.973 --    71 C    1.457    69 C    1.350   104 H    0.974
                            73 C    0.104
    71   6 C    3.973 --    70 C    1.457    72 N    1.407   105 H    0.972
                            74 C    0.104
    72   7 N    2.994 --    71 C    1.407    73 C    1.407
    73   6 C    3.972 --    74 C    1.457    72 N    1.407   106 H    0.972
                            70 C    0.104
    74   6 C    3.973 --    73 C    1.457    69 C    1.350   107 H    0.974
                            71 C    0.104
    75   6 C    3.903 --    78 N    1.311    66 C    1.282    76 C    1.129
    76   6 C    3.965 --    77 C    1.708    75 C    1.129   108 H    0.974
    77   6 C    3.964 --    76 C    1.708    79 C    1.128   109 H    0.974
    78   7 N    3.016 --    79 C    1.325    75 C    1.311
    79   6 C    3.897 --    78 N    1.325    80 C    1.265    77 C    1.128
    80   6 C    3.935 --    79 C    1.265    81 C    1.249   130 C    1.186
    81   6 C    3.879 --    82 C    1.255    80 C    1.249    85 N    1.183
    82   6 C    3.958 --    83 C    1.575    81 C    1.255   110 H    0.975
    83   6 C    3.955 --    82 C    1.575    84 C    1.253   111 H    0.975
    84   6 C    3.890 --    86 C    1.262    83 C    1.253    85 N    1.179
    85   7 N    3.475 --    81 C    1.183    84 C    1.179   112 H    0.873
    86   6 C    3.923 --    95 C    1.267    84 C    1.262    87 C    1.164
    87   6 C    3.958 --    88 C    2.620    86 C    1.164
    88   6 C    3.928 --    87 C    2.620    89 C    1.143
    89   6 C    3.987 --    90 C    1.349    94 C    1.349    88 C    1.143
    90   6 C    3.972 --    91 C    1.457    89 C    1.349   113 H    0.974
                            93 C    0.103
    91   6 C    3.973 --    90 C    1.457    92 N    1.407   114 H    0.972
                            94 C    0.104
    92   7 N    2.993 --    91 C    1.407    93 C    1.407
    93   6 C    3.972 --    94 C    1.457    92 N    1.407   115 H    0.972
                            90 C    0.103
    94   6 C    3.972 --    93 C    1.457    89 C    1.349   116 H    0.974
                            91 C    0.104
    95   6 C    3.919 --    99 N    1.344    86 C    1.267    96 C    1.121
    96   6 C    3.966 --    97 C    1.721    95 C    1.121   117 H    0.975
    97   6 C    3.967 --    96 C    1.721    98 C    1.117   118 H    0.976
    98   6 C    3.919 --    60 C    1.379    99 N    1.281    97 C    1.117
    99   7 N    3.009 --    95 C    1.344    98 C    1.281
   100   1 H    1.002 --    60 C    0.971
   101   1 H    0.997 --    62 C    0.977
   102   1 H    1.002 --    63 C    0.975
   103   1 H    0.986 --    65 N    0.874
   104   1 H    1.002 --    70 C    0.974
   105   1 H    1.013 --    71 C    0.972
   106   1 H    1.013 --    73 C    0.972
   107   1 H    1.002 --    74 C    0.974
   108   1 H    1.003 --    76 C    0.974
   109   1 H    1.002 --    77 C    0.974
   110   1 H    1.001 --    82 C    0.975
   111   1 H    1.002 --    83 C    0.975
   112   1 H    0.987 --    85 N    0.873
   113   1 H    1.002 --    90 C    0.974
   114   1 H    1.013 --    91 C    0.972
   115   1 H    1.013 --    93 C    0.972
   116   1 H    1.002 --    94 C    0.974
   117   1 H    1.003 --    96 C    0.975
   118   1 H    0.998 --    97 C    0.976
   119   6 C    3.923 --   120 C    2.373   123 C    1.330   122 C    0.190
   120   6 C    3.922 --   119 C    2.373   121 C    1.329   124 C    0.189
   121   6 C    3.932 --   122 C    2.455   120 C    1.329
   122   6 C    3.888 --   121 C    2.455    21 C    1.185   119 C    0.190
   123   6 C    3.930 --   124 C    2.453   119 C    1.330
   124   6 C    3.889 --   123 C    2.453   131 C    1.187   120 C    0.189
   125   6 C    3.922 --   126 C    2.372   129 C    1.331   128 C    0.189
   126   6 C    3.924 --   125 C    2.372   127 C    1.331   130 C    0.190
   127   6 C    3.930 --   128 C    2.452   126 C    1.331
   128   6 C    3.889 --   127 C    2.452   151 C    1.188   125 C    0.189
   129   6 C    3.932 --   130 C    2.453   125 C    1.331
   130   6 C    3.889 --   129 C    2.453    80 C    1.186   126 C    0.190
   131   6 C    3.926 --   169 C    1.267   132 C    1.246   124 C    1.187
   132   6 C    3.880 --   133 C    1.258   131 C    1.246   136 N    1.183
   133   6 C    3.956 --   134 C    1.570   132 C    1.258   171 H    0.975
   134   6 C    3.956 --   133 C    1.570   135 C    1.257   172 H    0.975
   135   6 C    3.886 --   134 C    1.257   137 C    1.254   136 N    1.180
   136   7 N    3.473 --   132 C    1.183   135 C    1.180   173 H    0.874
   137   6 C    3.926 --   146 C    1.283   135 C    1.254   138 C    1.161
   138   6 C    3.958 --   139 C    2.623   137 C    1.161
   139   6 C    3.930 --   138 C    2.623   140 C    1.142
   140   6 C    3.987 --   145 C    1.350   141 C    1.350   139 C    1.142
   141   6 C    3.973 --   142 C    1.457   140 C    1.350   174 H    0.974
                           144 C    0.104
   142   6 C    3.972 --   141 C    1.457   143 N    1.407   175 H    0.972
                           145 C    0.104
   143   7 N    2.994 --   144 C    1.407   142 C    1.407
   144   6 C    3.973 --   145 C    1.457   143 N    1.407   176 H    0.972
                           141 C    0.104
   145   6 C    3.973 --   144 C    1.457   140 C    1.350   177 H    0.974
                           142 C    0.104
   146   6 C    3.904 --   149 N    1.311   137 C    1.283   147 C    1.129
   147   6 C    3.965 --   148 C    1.708   146 C    1.129   178 H    0.974
   148   6 C    3.964 --   147 C    1.708   150 C    1.129   179 H    0.974
   149   7 N    3.008 --   150 C    1.324   146 C    1.311
   150   6 C    3.897 --   149 N    1.324   151 C    1.266   148 C    1.129
   151   6 C    3.926 --   150 C    1.266   152 C    1.245   128 C    1.188
   152   6 C    3.880 --   153 C    1.258   151 C    1.245   156 N    1.183
   153   6 C    3.956 --   154 C    1.570   152 C    1.258   180 H    0.975
   154   6 C    3.955 --   153 C    1.570   155 C    1.257   181 H    0.975
   155   6 C    3.887 --   154 C    1.257   157 C    1.254   156 N    1.180
   156   7 N    3.473 --   152 C    1.183   155 C    1.180   182 H    0.874
   157   6 C    3.926 --   166 C    1.283   155 C    1.254   158 C    1.161
   158   6 C    3.958 --   159 C    2.623   157 C    1.161
   159   6 C    3.930 --   158 C    2.623   160 C    1.142
   160   6 C    3.987 --   165 C    1.350   161 C    1.350   159 C    1.142
   161   6 C    3.973 --   162 C    1.457   160 C    1.350   183 H    0.974
                           164 C    0.104
   162   6 C    3.972 --   161 C    1.457   163 N    1.407   184 H    0.972
                           165 C    0.104
   163   7 N    2.993 --   164 C    1.407   162 C    1.407
   164   6 C    3.973 --   165 C    1.457   163 N    1.407   185 H    0.972
                           161 C    0.104
   165   6 C    3.973 --   164 C    1.457   160 C    1.350   186 H    0.974
                           162 C    0.104
   166   6 C    3.905 --   170 N    1.311   157 C    1.283   167 C    1.129
   167   6 C    3.965 --   168 C    1.708   166 C    1.129   187 H    0.974
   168   6 C    3.964 --   167 C    1.708   169 C    1.129   188 H    0.974
   169   6 C    3.897 --   170 N    1.323   131 C    1.267   168 C    1.129
   170   7 N    3.008 --   169 C    1.323   166 C    1.311
   171   1 H    1.001 --   133 C    0.975
   172   1 H    1.002 --   134 C    0.975
   173   1 H    0.987 --   136 N    0.874
   174   1 H    1.002 --   141 C    0.974
   175   1 H    1.013 --   142 C    0.972
   176   1 H    1.013 --   144 C    0.972
   177   1 H    1.002 --   145 C    0.974
   178   1 H    1.003 --   147 C    0.974
   179   1 H    1.002 --   148 C    0.974
   180   1 H    1.001 --   153 C    0.975
   181   1 H    1.002 --   154 C    0.975
   182   1 H    0.987 --   156 N    0.874
   183   1 H    1.002 --   161 C    0.974
   184   1 H    1.013 --   162 C    0.972
   185   1 H    1.013 --   164 C    0.972
   186   1 H    1.002 --   165 C    0.974
   187   1 H    1.003 --   167 C    0.974
   188   1 H    1.002 --   168 C    0.974
 ---------------------------------------------------------------------------

           -------------------------------------------------
          | TOTAL ENERGY             -327.792846576086 Eh   |
          | GRADIENT NORM               0.000926451798 Eh/α |
          | HOMO-LUMO GAP               0.942582618393 eV   |
           -------------------------------------------------

 * finished run on 2022/07/29 at 00:07:59.352
