   * xtb version 6.4.1 (bd6e46d) compiled by 'conda@4901f00b25ba' on 2021-06-10
          program call               : xtb Cu_TPP.xyz --gfn 2 --opt
          number of atoms            :                    77
          number of electrons        :                   235
          charge                     :                     0
          spin                       :                   0.5

   ID    Z sym.   atoms
    1   29 Cu     1
    2    6 C      2-23, 25-34, 36-47
    3    7 N      24, 35, 48, 49
    4    1 H      50-77

          :  Hamiltonian                  GFN2-xTB          :
 * total energy  :  -124.0604132 Eh     change       -0.1531120E-08 Eh
 * total energy  :  -124.1040896 Eh     change       -0.4367643E-01 Eh
 * total energy  :  -124.1254181 Eh     change       -0.2132846E-01 Eh
 * total energy  :  -124.1303703 Eh     change       -0.4952257E-02 Eh
 * total energy  :  -124.1334906 Eh     change       -0.3120292E-02 Eh
 * total energy  :  -124.1346592 Eh     change       -0.1168555E-02 Eh
 * total energy  :  -124.1354148 Eh     change       -0.7556368E-03 Eh
 * total energy  :  -124.1361030 Eh     change       -0.6881684E-03 Eh
 * total energy  :  -124.1367229 Eh     change       -0.6199212E-03 Eh
 * total energy  :  -124.1371887 Eh     change       -0.4658300E-03 Eh
 * total energy  :  -124.1383846 Eh     change       -0.3289011E-04 Eh
 * total energy  :  -124.1384080 Eh     change       -0.2341530E-04 Eh
 * total energy  :  -124.1384307 Eh     change       -0.2267784E-04 Eh
 * total energy  :  -124.1384381 Eh     change       -0.7480414E-05 Eh
 * total energy  :  -124.1384479 Eh     change       -0.9770020E-05 Eh
 * total energy  :  -124.1384594 Eh     change       -0.1147952E-04 Eh
 * total energy  :  -124.1384709 Eh     change       -0.1150551E-04 Eh
 * total energy  :  -124.1384781 Eh     change       -0.7170397E-05 Eh
 * total energy  :  -124.1384818 Eh     change       -0.3722834E-05 Eh
   *** GEOMETRY OPTIMIZATION CONVERGED AFTER 29 ITERATIONS ***

 final structure:
================
77
 xtb: 6.4.1 (bd6e46d)
Cu       -0.08847572718764    0.17068676574437    0.01310370328160
C        -3.48129531765905    0.63860261498080    0.08899696453666
C        -4.94458631338387    0.83868805270075    0.12649409232594
C        -5.58388379048995    1.56661487713763   -0.87277875523307
C        -6.95430200650493    1.74939493109503   -0.83868602972179
C        -7.70262045402870    1.21408258728511    0.19641072694725
C        -7.07391094119486    0.49117469915038    1.19652088848869
C        -5.70455301455419    0.30092596536896    1.16112332092915
C        -2.99978006556618   -0.66494897349574   -0.01058614713437
C        -3.83963912699503   -1.81870915096015   -0.17012120006010
C        -3.02266733113681   -2.89687024699896   -0.19411026504531
C        -1.68162183627635   -2.40490099917445   -0.04649190479645
C        -0.55607675458798   -3.22333777865192    0.01967613724434
C        -0.75785919004361   -4.68676681978068    0.02099267044850
C        -0.23079090024771   -5.47401004821391   -0.99866385399862
C        -0.42408872252159   -6.84343501103673   -0.99753149612213
C        -1.13948589740473   -7.44495228940940    0.02447194975761
C        -1.66388488996183   -6.66941886988534    1.04509475308255
C        -1.47784951192811   -5.29907516474114    1.04281059460938
C         0.74874167824848   -2.74019547319314    0.09201202391727
C         1.90451121214326   -3.57583801198432    0.25884799051147
C         2.98249832287034   -2.75817559529843    0.25337093291949
C         2.48840816472178   -1.42103763187554    0.08010096884157
N         1.13146705867205   -1.43900618966637    0.01327186481429
C         3.30462247185884   -0.29626871284980   -0.01831308581258
C         4.76846229955145   -0.49475897741817   -0.02424040171193
C         5.37762447753599   -1.23726630541234   -1.03167631910446
C         6.74876479966268   -1.41765800247430   -1.03758212954259
C         7.52819111315454   -0.86508942237810   -0.03494646311786
C         6.92973709483756   -0.12761061847350    0.97307150477826
C         5.55958562607917    0.05996174043513    0.97767502033466
C         2.81941113864977    1.00620232210646   -0.11617019390501
C         3.65327638082579    2.15739406444094   -0.32002031782646
C         2.83581269543274    3.23536276966412   -0.33219680451944
N         1.51920973693479    1.39109439679933   -0.03242830370170
C         1.50068279941957    2.74624459027025   -0.13135177878553
C         0.37753742856594    3.56540594780042   -0.03825628805443
C         0.57552535771536    5.02870500438044   -0.07621428090614
C         1.33842971029976    5.66733276156984    0.89714930562966
C         1.52047484644313    7.03774497098425    0.85714432835062
C         0.94848371026329    7.78716308436183   -0.15740589469107
C         0.18921126935407    7.15948772797618   -1.13090454533330
C         0.00064181224102    5.79014483220290   -1.08988727555836
C        -0.92350277261296    3.08272927980929    0.08824728266377
C        -2.07311045052546    3.92018206955098    0.28651087778262
C        -3.15042688448234    3.10259655708667    0.32670347287166
C        -2.66212514450303    1.76376967393518    0.15017348460629
N        -1.30821971523159    1.78087276759731    0.03781480740087
N        -1.69719038819922   -1.04864933478058    0.03367453406197
H        -4.99927910528231    1.97744775266964   -1.68329477688494
H        -7.44045552003435    2.31109506511585   -1.62310022177310
H        -8.77240504353724    1.35967828663849    0.22357679450279
H        -7.65293813956547    0.07421623242324    2.00772713280871
H        -5.21149050707102   -0.25739676496068    1.94386451947131
H        -4.90724428050898   -1.79319855640425   -0.26837361990295
H        -3.28962388815616   -3.92828813811018   -0.31624080066280
H         0.32126708495398   -5.00226542519498   -1.79875099811242
H        -0.01537508955700   -7.44382986951778   -1.79728713471489
H        -1.28774742223872   -8.51471622057763    0.02569751484420
H        -2.21980720318971   -7.13418420616009    1.84638579900542
H        -1.88008020031373   -4.69316290843280    1.84188763300089
H         1.88084085309580   -4.64091054595732    0.38198374302051
H         4.01519689044756   -3.02207828881983    0.37138259114237
H         4.76882556394558   -1.66119499528211   -1.81722604629685
H         7.21120019102831   -1.99104849171095   -1.82783454395893
H         8.59860159271428   -1.00852735457721   -0.03924934531972
H         7.53305144849999    0.30309227610085    1.75896884721640
H         5.09016848247535    0.62957223489212    1.76675744089288
H         4.71689149799703    2.13040828066736   -0.45432092807447
H         3.09854562970534    4.26468056233397   -0.47868689373039
H         1.77754079079185    5.08262438767283    1.69262904350259
H         2.11055676666398    7.52320326910050    1.62089385979978
H         1.09365311495184    8.85688140922206   -0.18914426007906
H        -0.25713879598891    7.73911408700486   -1.92586273332471
H        -0.58519578274684    5.29770384133912   -1.85262498848461
H        -2.04552470282912    4.98639794347261    0.39862218027617
H        -4.17865628450490    3.36757571077170    0.47720672538353

          :  Hamiltonian                  GFN2-xTB          :
         :: total energy            -124.138481792023 Eh    ::
         :: gradient norm              0.000279294503 Eh/a0 ::
         :: HOMO-LUMO gap              0.572075849502 eV    ::
         :: SCC energy              -126.369319907379 Eh    ::
         :: -> dispersion             -0.120241733652 Eh    ::
         :: repulsion energy           2.231482235008 Eh    ::

    * Orbital Energies and Occupations

         #    Occupation            Energy/Eh            Energy/eV
      -------------------------------------------------------------
         1        2.0000           -0.6726088             -18.3026
       ...           ...                  ...                  ...
       106        2.0000           -0.3993017             -10.8656
       107        2.0000           -0.3992677             -10.8646
       108        2.0000           -0.3972606             -10.8100
       109        2.0000           -0.3968233             -10.7981
       110        2.0000           -0.3967834             -10.7970
       111        2.0000           -0.3962604             -10.7828
       112        2.0000           -0.3836486             -10.4396
       113        2.0000           -0.3698097             -10.0630
       114        2.0000           -0.3697598             -10.0617
       115        2.0000           -0.3639809              -9.9044
       116        2.0000           -0.3625505              -9.8655
       117        2.0000           -0.3516201              -9.5681
       118        1.0000           -0.3139124              -8.5420 (HOMO)
       119        0.0000           -0.2928890              -7.9699 (LUMO)
       120        0.0000           -0.2928537              -7.9690
       121                         -0.2555001              -6.9525
       122                         -0.2259442              -6.1483
       123                         -0.2249209              -6.1204
       124                         -0.2248913              -6.1196
       125                         -0.2248868              -6.1195
       126                         -0.2247071              -6.1146
       127                         -0.2239696              -6.0945
       128                         -0.2239518              -6.0940
       129                         -0.2196456              -5.9769
       ...                                ...                  ...
       229                          0.7234317              19.6856
      -------------------------------------------------------------
                  HL-Gap            0.0210234 Eh            0.5721 eV

     #   Z          covCN         q      C6AA      α(0)
     1  29 Cu       2.960     0.190   146.305    27.542
     2   6 C        2.961    -0.010    28.253     8.718
     3   6 C        2.982     0.017    27.628     8.622
     4   6 C        2.924    -0.030    28.758     8.794
     5   6 C        2.919    -0.029    28.721     8.788
     6   6 C        2.920    -0.031    28.765     8.795
     7   6 C        2.919    -0.029    28.721     8.788
     8   6 C        2.924    -0.030    28.758     8.794
     9   6 C        3.148     0.073    26.116     8.360
    10   6 C        3.020    -0.051    29.235     8.869
    11   6 C        3.020    -0.051    29.236     8.869
    12   6 C        3.147     0.073    26.116     8.360
    13   6 C        2.961    -0.010    28.253     8.719
    14   6 C        2.982     0.017    27.629     8.622
    15   6 C        2.924    -0.030    28.758     8.794
    16   6 C        2.919    -0.029    28.721     8.788
    17   6 C        2.920    -0.031    28.765     8.795
    18   6 C        2.919    -0.029    28.721     8.788
    19   6 C        2.924    -0.030    28.759     8.794
    20   6 C        3.147     0.073    26.116     8.360
    21   6 C        3.020    -0.051    29.235     8.869
    22   6 C        3.020    -0.051    29.236     8.869
    23   6 C        3.147     0.073    26.117     8.360
    24   7 N        2.622    -0.176    24.818     7.399
    25   6 C        2.961    -0.010    28.254     8.719
    26   6 C        2.982     0.017    27.629     8.622
    27   6 C        2.924    -0.030    28.759     8.794
    28   6 C        2.919    -0.029    28.721     8.788
    29   6 C        2.920    -0.031    28.765     8.795
    30   6 C        2.919    -0.029    28.721     8.788
    31   6 C        2.924    -0.030    28.758     8.794
    32   6 C        3.147     0.073    26.116     8.360
    33   6 C        3.020    -0.051    29.236     8.869
    34   6 C        3.020    -0.051    29.237     8.870
    35   7 N        2.622    -0.176    24.817     7.399
    36   6 C        3.147     0.073    26.117     8.360
    37   6 C        2.961    -0.010    28.253     8.718
    38   6 C        2.982     0.017    27.629     8.622
    39   6 C        2.924    -0.030    28.759     8.795
    40   6 C        2.919    -0.029    28.722     8.788
    41   6 C        2.920    -0.031    28.764     8.795
    42   6 C        2.919    -0.029    28.720     8.788
    43   6 C        2.925    -0.030    28.757     8.794
    44   6 C        3.147     0.073    26.115     8.360
    45   6 C        3.020    -0.051    29.235     8.869
    46   6 C        3.020    -0.051    29.236     8.869
    47   6 C        3.147     0.073    26.117     8.360
    48   7 N        2.621    -0.176    24.816     7.399
    49   7 N        2.622    -0.176    24.816     7.398
    50   1 H        0.926     0.033     2.549     2.497
    51   1 H        0.926     0.032     2.553     2.499
    52   1 H        0.926     0.032     2.563     2.504
    53   1 H        0.926     0.032     2.553     2.499
    54   1 H        0.926     0.033     2.550     2.497
    55   1 H        0.926     0.032     2.558     2.501
    56   1 H        0.926     0.032     2.556     2.500
    57   1 H        0.926     0.033     2.549     2.497
    58   1 H        0.926     0.032     2.553     2.499
    59   1 H        0.926     0.032     2.563     2.504
    60   1 H        0.926     0.032     2.553     2.499
    61   1 H        0.926     0.033     2.549     2.497
    62   1 H        0.926     0.032     2.558     2.501
    63   1 H        0.926     0.032     2.556     2.500
    64   1 H        0.926     0.033     2.548     2.496
    65   1 H        0.926     0.032     2.553     2.499
    66   1 H        0.926     0.032     2.563     2.504
    67   1 H        0.926     0.032     2.553     2.499
    68   1 H        0.926     0.033     2.549     2.497
    69   1 H        0.926     0.032     2.558     2.501
    70   1 H        0.926     0.032     2.555     2.499
    71   1 H        0.926     0.033     2.547     2.496
    72   1 H        0.926     0.032     2.553     2.499
    73   1 H        0.926     0.032     2.563     2.504
    74   1 H        0.926     0.032     2.553     2.499
    75   1 H        0.926     0.033     2.549     2.497
    76   1 H        0.926     0.032     2.558     2.501
    77   1 H        0.926     0.032     2.557     2.501

Wiberg/Mayer (AO) data.
largest (>0.10) Wiberg bond orders for each atom

     #   Z sym  total        # sym  WBO       # sym  WBO       # sym  WBO
 ---------------------------------------------------------------------------
     1  29 Cu   2.327 --    49 N    0.533    35 N    0.533    24 N    0.532
                            48 N    0.532
     2   6 C    3.929 --    47 C    1.309     9 C    1.308     3 C    1.027
     3   6 C    3.987 --     4 C    1.393     8 C    1.393     2 C    1.027
                             6 C    0.108
     4   6 C    3.983 --     5 C    1.448     3 C    1.393    50 H    0.970
                             7 C    0.109
     5   6 C    3.991 --     4 C    1.448     6 C    1.436    51 H    0.970
                             8 C    0.109
     6   6 C    3.986 --     5 C    1.436     7 C    1.436    52 H    0.971
                             3 C    0.108
     7   6 C    3.991 --     8 C    1.448     6 C    1.436    53 H    0.970
                             4 C    0.109
     8   6 C    3.983 --     7 C    1.448     3 C    1.393    54 H    0.970
                             5 C    0.109
     9   6 C    3.929 --     2 C    1.308    49 N    1.264    10 C    1.170
    10   6 C    3.951 --    11 C    1.653     9 C    1.170    55 H    0.970
    11   6 C    3.951 --    10 C    1.653    12 C    1.169    56 H    0.970
    12   6 C    3.929 --    13 C    1.309    49 N    1.264    11 C    1.169
    13   6 C    3.929 --    12 C    1.309    20 C    1.308    14 C    1.028
    14   6 C    3.987 --    15 C    1.393    19 C    1.392    13 C    1.028
                            17 C    0.108
    15   6 C    3.983 --    16 C    1.448    14 C    1.393    57 H    0.970
                            18 C    0.109
    16   6 C    3.991 --    15 C    1.448    17 C    1.436    58 H    0.970
                            19 C    0.109
    17   6 C    3.986 --    16 C    1.436    18 C    1.436    59 H    0.971
                            14 C    0.108
    18   6 C    3.991 --    19 C    1.448    17 C    1.436    60 H    0.970
                            15 C    0.109
    19   6 C    3.983 --    18 C    1.448    14 C    1.392    61 H    0.970
                            16 C    0.109
    20   6 C    3.929 --    13 C    1.308    24 N    1.264    21 C    1.170
    21   6 C    3.951 --    22 C    1.653    20 C    1.170    62 H    0.970
    22   6 C    3.951 --    21 C    1.653    23 C    1.169    63 H    0.970
    23   6 C    3.929 --    25 C    1.309    24 N    1.264    22 C    1.169
    24   7 N    3.374 --    20 C    1.264    23 C    1.264     1 Cu   0.532
    25   6 C    3.929 --    23 C    1.309    32 C    1.308    26 C    1.028
    26   6 C    3.987 --    27 C    1.393    31 C    1.393    25 C    1.028
                            29 C    0.108
    27   6 C    3.983 --    28 C    1.448    26 C    1.393    64 H    0.970
                            30 C    0.109
    28   6 C    3.991 --    27 C    1.448    29 C    1.436    65 H    0.970
                            31 C    0.109
    29   6 C    3.986 --    28 C    1.436    30 C    1.436    66 H    0.971
                            26 C    0.108
    30   6 C    3.991 --    31 C    1.448    29 C    1.436    67 H    0.970
                            27 C    0.109
    31   6 C    3.983 --    30 C    1.448    26 C    1.393    68 H    0.970
                            28 C    0.109
    32   6 C    3.929 --    25 C    1.308    35 N    1.264    33 C    1.169
    33   6 C    3.951 --    34 C    1.653    32 C    1.169    69 H    0.970
    34   6 C    3.951 --    33 C    1.653    36 C    1.169    70 H    0.970
    35   7 N    3.375 --    32 C    1.264    36 C    1.263     1 Cu   0.533
    36   6 C    3.929 --    37 C    1.309    35 N    1.263    34 C    1.169
    37   6 C    3.929 --    36 C    1.309    44 C    1.308    38 C    1.028
    38   6 C    3.987 --    39 C    1.393    43 C    1.392    37 C    1.028
                            41 C    0.108
    39   6 C    3.983 --    40 C    1.448    38 C    1.393    71 H    0.970
                            42 C    0.109
    40   6 C    3.991 --    39 C    1.448    41 C    1.436    72 H    0.970
                            43 C    0.109
    41   6 C    3.986 --    40 C    1.436    42 C    1.436    73 H    0.971
                            38 C    0.108
    42   6 C    3.991 --    43 C    1.448    41 C    1.436    74 H    0.970
                            39 C    0.109
    43   6 C    3.983 --    42 C    1.448    38 C    1.392    75 H    0.970
                            40 C    0.109
    44   6 C    3.929 --    37 C    1.308    48 N    1.264    45 C    1.170
    45   6 C    3.951 --    46 C    1.653    44 C    1.170    76 H    0.970
    46   6 C    3.951 --    45 C    1.653    47 C    1.170    77 H    0.970
    47   6 C    3.929 --     2 C    1.309    48 N    1.263    46 C    1.170
    48   7 N    3.374 --    44 C    1.264    47 C    1.263     1 Cu   0.532
    49   7 N    3.375 --     9 C    1.264    12 C    1.264     1 Cu   0.533
    50   1 H    0.999 --     4 C    0.970
    51   1 H    0.998 --     5 C    0.970
    52   1 H    0.999 --     6 C    0.971
    53   1 H    0.998 --     7 C    0.970
    54   1 H    0.999 --     8 C    0.970
    55   1 H    0.998 --    10 C    0.970
    56   1 H    0.998 --    11 C    0.970
    57   1 H    0.999 --    15 C    0.970
    58   1 H    0.998 --    16 C    0.970
    59   1 H    0.999 --    17 C    0.971
    60   1 H    0.998 --    18 C    0.970
    61   1 H    0.999 --    19 C    0.970
    62   1 H    0.998 --    21 C    0.970
    63   1 H    0.998 --    22 C    0.970
    64   1 H    0.999 --    27 C    0.970
    65   1 H    0.998 --    28 C    0.970
    66   1 H    0.999 --    29 C    0.971
    67   1 H    0.998 --    30 C    0.970
    68   1 H    0.999 --    31 C    0.970
    69   1 H    0.998 --    33 C    0.970
    70   1 H    0.998 --    34 C    0.970
    71   1 H    0.999 --    39 C    0.970
    72   1 H    0.998 --    40 C    0.970
    73   1 H    0.999 --    41 C    0.971
    74   1 H    0.998 --    42 C    0.970
    75   1 H    0.999 --    43 C    0.970
    76   1 H    0.998 --    45 C    0.970
    77   1 H    0.998 --    46 C    0.970
 ---------------------------------------------------------------------------

molecular dipole:
                 x           y           z       tot (Debye)
 q only:        0.000       0.001      -0.001
   full:       -0.000       0.001      -0.001       0.003

           -------------------------------------------------
          | TOTAL ENERGY             -124.138481792023 Eh   |
          | GRADIENT NORM               0.000279294503 Eh/α |
          | HOMO-LUMO GAP               0.572075849502 eV   |
           -------------------------------------------------

 * finished run on 2022/07/26 at 11:21:56.781
