   * xtb version 6.5.1 (b24c23e) compiled by 'conda@728c89f4b128' on 2022-07-12
          program call               : xtb PhOH_C2_3.xyz --gfn 1 --opt -T 48

   ID    Z sym.   atoms
    1    6 C      1-5, 7-11, 13-17, 19-24, 26-30, 32-37, 60-64, 66-70, 72-76,
                  78-83, 85-89, 91-96, 119-127, 129-133, 135-139, 141-146,
                  148-152, 154-159
    2    7 N      6, 18, 25, 38, 65, 77, 84, 97, 128, 140, 147, 160
    3    8 O      12, 31, 71, 90, 134, 153
    4    1 H      39-59, 98-118, 161-180

          :  Hamiltonian                  GFN1-xTB          :
 * total energy  :  -310.5358020 Eh     change       -0.6731398E-09 Eh
 * total energy  :  -310.6779315 Eh     change       -0.1421296E+00 Eh
 * total energy  :  -310.7725390 Eh     change       -0.9460743E-01 Eh
 * total energy  :  -310.8208769 Eh     change       -0.4833791E-01 Eh
 * total energy  :  -310.8740009 Eh     change       -0.5312401E-01 Eh
 * total energy  :  -310.9137428 Eh     change       -0.3974195E-01 Eh
 * total energy  :  -310.9427162 Eh     change       -0.2897334E-01 Eh
 * total energy  :  -310.9704984 Eh     change       -0.2778220E-01 Eh
 * total energy  :  -310.9949894 Eh     change       -0.2449102E-01 Eh
 * total energy  :  -311.0160982 Eh     change       -0.2110877E-01 Eh
 * total energy  :  -311.1476117 Eh     change       -0.2155153E-04 Eh
 * total energy  :  -311.1476283 Eh     change       -0.1654194E-04 Eh
 * total energy  :  -311.1476425 Eh     change       -0.1424475E-04 Eh
 * total energy  :  -311.1476579 Eh     change       -0.1536431E-04 Eh
 * total energy  :  -311.1476773 Eh     change       -0.1941025E-04 Eh
 * total energy  :  -311.1477014 Eh     change       -0.2415553E-04 Eh
 * total energy  :  -311.1477261 Eh     change       -0.2469805E-04 Eh
 * total energy  :  -311.1477449 Eh     change       -0.1879881E-04 Eh
 * total energy  :  -311.1477497 Eh     change       -0.4733188E-05 Eh
   *** GEOMETRY OPTIMIZATION CONVERGED AFTER 122 ITERATIONS ***

 final structure:
================
180
 xtb: 6.5.1 (b24c23e)
C           29.84392328339790       -0.04084627995293       -0.07518207286967
C           30.42527580698165        1.15750188827969       -0.46863497342466
C           29.74674812225360        2.33371839612047       -0.89439243407311
C           30.68741571916873        3.28488687334173       -1.17340384394839
C           31.97115989261230        2.72355848246783       -0.91781523820795
N           31.76217901614358        1.43756921048191       -0.50640976279499
C           33.21921297630501        3.33862012044273       -1.06814382971713
C           33.21321521776237        4.76055859689865       -1.49111251085257
C           33.82995718214441        5.15234473176488       -2.67981749646642
C           33.82375384793330        6.48045411282716       -3.07705588649035
C           33.20094846049997        7.43784300835463       -2.27966649695485
O           33.17431131449074        8.74994817256952       -2.62891644941312
C           32.58256835575507        7.06047798442697       -1.08911348862152
C           32.58826761893494        5.73143459268998       -0.70441296619904
C           34.45098302236605        2.71703422367922       -0.84616518689696
C           35.73037414894070        3.39371324638446       -0.95924708306888
C           36.67599211902833        2.47228280897452       -0.68217902269998
N           34.64076906877673        1.41825364324782       -0.48487867972357
C           35.97450581007855        1.23889661130357       -0.38537044521355
C           36.64178178619153        0.04085559167371       -0.06327735037721
C           36.03432422928292       -1.18522689151335        0.26642060395280
C           36.70422304033090       -2.39596492198028        0.58478636171497
C           35.75841385452420       -3.33769234574627        0.88242559042128
C           34.47945269279325       -2.72682067050874        0.76587345880735
N           34.69776100490744       -1.43065679608338        0.37959318998502
C           33.23256505788578       -3.32385381257758        0.98370077375288
C           33.24001619270544       -4.73301496700233        1.44572458208637
C           33.85861090448737       -5.08184427252501        2.64915259817507
C           33.86677606192929       -6.39370578452701        3.08847344285702
C           33.25792399978690       -7.38377165356547        2.31944259241068
O           33.28859791709335       -8.66184298996281        2.77744597166037
C           32.64027979214320       -7.05200874791592        1.11582309064990
C           32.63069821726411       -5.73352641127420        0.68771038230757
C           31.99953643956070       -2.68906673189162        0.80210419263190
C           30.71183616929890       -3.30666224497852        1.07854819918548
C           29.77340461644836       -2.38791624376304        0.77285884701653
C           30.48687487892890       -1.20504648669286        0.32520020812957
N           31.82463106192352       -1.41969465816318        0.36348656023197
H           28.75869869505724       -0.05876394132606       -0.07840093357488
H           28.67548977122481        2.42533486636523       -0.97768729468964
H           30.51328225585397        4.28569055068978       -1.53406449810165
H           32.50185960976331        0.78633410299207       -0.26582183001028
H           34.30387165527177        4.40656899948495       -3.30823237565695
H           34.29973015916400        6.77802910387823       -4.00527552310651
H           33.63361891795190        8.90108223808564       -3.46590180289170
H           32.10584539435371        7.81576986891553       -0.47659694526507
H           32.11986770014971        5.44105355365476        0.22948320476446
H           35.86610308253307        4.43454539329730       -1.20465116914332
H           37.74697994769981        2.59388447919284       -0.67024396766656
H           37.77452123269881       -2.52346594897977        0.58453862624795
H           35.92903871318828       -4.36746044584796        1.15085794037691
H           33.96136578310809       -0.75452121203268        0.20595916864034
H           34.32010034949450       -4.31004631277175        3.25511101138434
H           34.33881479572887       -6.66491931562051        4.02469734048456
H           32.83450709858428       -9.26382376025411        2.17268973225009
H           32.17152373231075       -7.82656316723827        0.51830455025605
H           32.16150370398518       -5.47929432005760       -0.25617634730332
H           30.56981989125065       -4.30265455209543        1.46629997868819
H           28.69996740759648       -2.46912488198938        0.84419306462878
C           58.36347458854345       -0.08531071473644        0.03252084776438
C           57.75257921538178       -1.21846507277180        0.55378749839444
C           58.40268899856731       -2.38210310801321        1.05254200123240
C           57.43961729647337       -3.25208162506804        1.48038902128555
C           56.16967959710293       -2.64470012618018        1.26426271878502
N           56.40945556185618       -1.42583797317634        0.69520639705074
C           54.90690625371042       -3.17685055667361        1.54833756232991
C           54.87612227854000       -4.50279022634617        2.21243290534266
C           54.24616440600022       -5.58999574299914        1.60582745133544
C           54.21384307615172       -6.82810787666365        2.22856924446580
C           54.81056665649501       -6.99023377677672        3.47674070339662
O           54.79797574081786       -8.18387726230122        4.12432825167548
C           55.44326895589116       -5.91271625896740        4.09390359473721
C           55.47611294996581       -4.68263457178159        3.46143843375165
C           53.69169714219267       -2.54850758345543        1.26224019827064
C           52.39370036841152       -3.09428765916664        1.61617691982207
C           51.47429748967423       -2.20843543435550        1.18011020824240
N           53.53900694950246       -1.34564041526052        0.64397680763854
C           52.21106312927391       -1.11661276780062        0.57373676707127
C           51.57827265909427        0.01523400697612        0.02517253209631
C           52.21333917907633        1.14811152849849       -0.51436360515049
C           51.56972511202147        2.26768146264801       -1.10540826867557
C           52.53700166138431        3.13972084556773       -1.52251361831139
C           53.80301490038886        2.58254788493485       -1.19084897064418
N           53.55537514227958        1.37734774299262       -0.58852101247068
C           55.06575514769962        3.12720015545651       -1.45027860103445
C           55.09885213183850        4.45810544085931       -2.10295190478480
C           54.50988668246321        5.56870825396483       -1.49319464229720
C           54.53787499646838        6.81046168282460       -2.10290454371527
C           55.15388936974137        6.95745195687374       -3.34435611625251
O           55.15831566170798        8.18867090604716       -3.91736559935211
C           55.74322694843895        5.85898184697417       -3.96587151588350
C           55.71632257680272        4.62059948448333       -3.34389745496587
C           56.28108961857424        2.50348543545902       -1.14835527977900
C           57.58688649253175        3.10459526046655       -1.37097343815415
C           58.49923326841565        2.20112903691771       -0.95913904838727
C           57.75210648198756        1.05418819272163       -0.47428088655925
N           56.42024702425984        1.27486829102740       -0.59572787073052
H           59.44880165849398       -0.09913493186996        0.02764146322458
H           59.47145020516522       -2.52480089494975        1.07088386894970
H           57.58956941916556       -4.23388580017522        1.89945753718805
H           55.68485256599219       -0.77271755184201        0.41662316745995
H           53.79221243723811       -5.46894917652803        0.62861218821755
H           53.72740670926073       -7.67102759872796        1.74944467083348
H           54.32640822287475       -8.85620058023180        3.61450148108630
H           55.89979452173596       -6.05177081701668        5.06608660640753
H           55.95440456758888       -3.84081207905344        3.94973663579246
H           52.22896505165692       -4.02097326301021        2.14164126715252
H           50.40063081491986       -2.25888111950876        1.26528306971330
H           50.50193358611451        2.37827489295444       -1.20549525611417
H           52.38925966184606        4.07999973956032       -2.02813089617217
H           54.27775248286559        0.74252493544465       -0.26478068442573
H           54.04304160579871        5.45891242377411       -0.52066569694285
H           54.08829497333888        7.67420440568730       -1.62887193219202
H           55.61456273949010        8.17869064131963       -4.76948185372411
H           56.21798173547523        5.97682411933005       -4.93407609482861
H           56.16274649048719        3.76348737663470       -3.83560543897614
H           57.75772678237858        4.09028876577078       -1.77316625971577
H           59.57532873279964        2.27844679002884       -0.96169903880643
C           38.05226115456139        0.05505391399279       -0.05902895408909
C           39.26913191050328        0.06161872490246       -0.04594584866027
C           48.95078528076571        0.03433880382631       -0.00249677266977
C           50.16704889873142        0.03001950631807        0.01170432769395
C           40.67894487717560        0.05604382842807       -0.02524747874551
C           41.30161190704030       -1.16245258877958       -0.35540674151055
C           40.65247200811569       -2.35500736321398       -0.76690853121448
C           41.61461249494009       -3.29535159619493       -1.01571679651030
C           42.88139694340462       -2.70554141461153       -0.75619927010103
N           42.64165671963209       -1.41446521179247       -0.36731337982267
C           44.13862688914674       -3.30773798342747       -0.89046702808573
C           44.14882667917917       -4.73672591852324       -1.28920858498608
C           44.77422270554287       -5.13606695384881       -2.47111713996645
C           44.78363298894280       -6.46849756399444       -2.85298458846485
C           44.16911118757346       -7.42312685475041       -2.04590724052919
O           44.15791226636175       -8.73944353173570       -2.38008301862898
C           43.54352149565521       -7.03856292024926       -0.86140725484743
C           43.53257049293244       -5.70498834084076       -0.49258203619906
C           45.36568520323246       -2.67303227558620       -0.68702371960188
C           46.64777291198245       -3.35083622944565       -0.75988975993847
C           47.58932686588780       -2.41573149239624       -0.51648102693388
N           45.54876140295042       -1.35876704405199       -0.38485538699446
C           46.88160769973948       -1.17164224646054       -0.28737860471544
C           47.54034706190482        0.04369178550978       -0.02239524657022
C           46.92055975856726        1.27730626372766        0.24661828288324
C           47.57466590901057        2.49113143406132        0.58299528725337
C           46.61381870487136        3.42763319691847        0.84987293454682
C           45.34293787731769        2.81547789612382        0.67281122524343
N           45.57966637028550        1.51810958035916        0.30371528905952
C           44.08593365515362        3.39549089010162        0.88211774780034
C           44.07561619589276        4.81479981198559        1.31705269159901
C           44.60610189845549        5.81932510024657        0.50451444099373
C           44.59670963724157        7.14101706245357        0.91472386701461
C           44.05950712931880        7.47622451707667        2.15619889995912
O           44.07089533701740        8.78179280556779        2.52962314601804
C           43.52991699870916        6.48460987368585        2.97870178244706
C           43.53700209585471        5.16466974482961        2.55591942202627
C           42.85838948712409        2.74749383217283        0.72957902639363
C           41.57484185924503        3.40545652092078        0.89597688057037
C           40.63217306796490        2.47491044711190        0.64057335817747
C           41.33916365962843        1.25335144060099        0.31178080747871
N           42.67346151201398        1.44686442241671        0.37275055533696
H           39.58581559368573       -2.46836220227606       -0.87258231503779
H           41.46174918339297       -4.30391252844550       -1.36350107469679
H           43.36384955612908       -0.74033771595853       -0.13641941589348
H           45.24239623390044       -4.39244706082098       -3.10638136876046
H           45.26526475674639       -6.77159091783858       -3.77650549447930
H           44.62321610945334       -8.89502822307413       -3.21295037712210
H           43.07373868070658       -7.79199779508575       -0.24129662210514
H           43.05791052796586       -5.40886757020452        0.43629172727030
H           46.78680383820697       -4.40212774045115       -0.95362467188483
H           48.66067709528150       -2.53332750433049       -0.48532032939696
H           48.64419849707496        2.61910814553002        0.62866951934143
H           46.77056104049329        4.44896416158168        1.15622061108179
H           44.85521595699583        0.82988182698584        0.12792480476407
H           45.01193649415465        5.56180359552686       -0.46746441899596
H           45.00029823529410        7.92307109456435        0.28354125667847
H           43.67147247079995        8.90198696890596        3.40165959454026
H           43.11623917881587        6.74906288845832        3.94596272927578
H           43.13537354779466        4.39188607093803        3.20183448381897
H           41.43472260110106        4.44229720706716        1.15539183646732
H           39.55985573120634        2.58190680545824        0.66594911088602

          :  Hamiltonian                  GFN1-xTB          :
         :: total energy            -311.147749670730 Eh    ::
         :: gradient norm              0.000452555941 Eh/a0 ::
         :: HOMO-LUMO gap              0.858041556234 eV    ::
         :: SCC energy              -315.955282407089 Eh    ::
         :: repulsion energy           4.964489899651 Eh    ::

    * Orbital Energies and Occupations

         #    Occupation            Energy/Eh            Energy/eV
      -------------------------------------------------------------
         1        2.0000           -0.8056317             -21.9224
       ...           ...                  ...                  ...
       267        2.0000           -0.4160540             -11.3214
       268        2.0000           -0.4143237             -11.2743
       269        2.0000           -0.4141608             -11.2699
       270        2.0000           -0.4140186             -11.2660
       271        2.0000           -0.4129425             -11.2367
       272        2.0000           -0.4128383             -11.2339
       273        2.0000           -0.4127495             -11.2315
       274        2.0000           -0.3971062             -10.8058
       275        2.0000           -0.3964798             -10.7888
       276        2.0000           -0.3963539             -10.7853
       277        2.0000           -0.3878617             -10.5543
       278        2.0000           -0.3811818             -10.3725
       279        2.0000           -0.3729118             -10.1474 (HOMO)
       280        0.0000           -0.3413794              -9.2894 (LUMO)
       281                         -0.3312452              -9.0136
       282                         -0.3284762              -8.9383
       283                         -0.3283148              -8.9339
       284                         -0.3281408              -8.9292
       285                         -0.3220663              -8.7639
       286                         -0.2982121              -8.1148
       287                         -0.2914281              -7.9302
       288                         -0.2875385              -7.8243
       289                         -0.2674527              -7.2778
       290                         -0.2670777              -7.2676
       ...                                ...                  ...
       596                          1.3413037              36.4987
      -------------------------------------------------------------
                  HL-Gap            0.0315324 Eh            0.8580 eV

Wiberg/Mayer (AO) data.
largest (>0.10) Wiberg bond orders for each atom

     #   Z sym  total        # sym  WBO       # sym  WBO       # sym  WBO
 ---------------------------------------------------------------------------
     1   6 C    3.924 --    37 C    1.365     2 C    1.347    39 H    0.971
     2   6 C    3.903 --     1 C    1.347     3 C    1.230     6 N    1.169
     3   6 C    3.953 --     4 C    1.594     2 C    1.230    40 H    0.977
     4   6 C    3.959 --     3 C    1.594     5 C    1.235    41 H    0.974
     5   6 C    3.896 --     7 C    1.303     4 C    1.235     6 N    1.176
     6   7 N    3.469 --     5 C    1.176     2 C    1.169    42 H    0.874
     7   6 C    3.939 --    15 C    1.334     5 C    1.303     8 C    1.030
     8   6 C    3.989 --     9 C    1.393    14 C    1.384     7 C    1.030
     9   6 C    3.988 --    10 C    1.453     8 C    1.393    43 H    0.972
                            13 C    0.105
    10   6 C    3.988 --     9 C    1.453    11 C    1.372    44 H    0.970
                            14 C    0.102
    11   6 C    3.900 --    10 C    1.372    13 C    1.364    12 O    1.040
    12   8 O    2.043 --    11 C    1.040    45 H    0.865
    13   6 C    3.990 --    14 C    1.466    11 C    1.364    46 H    0.971
                             9 C    0.105
    14   6 C    3.987 --    13 C    1.466     8 C    1.384    47 H    0.973
                            10 C    0.102
    15   6 C    3.915 --     7 C    1.334    18 N    1.288    16 C    1.126
    16   6 C    3.966 --    17 C    1.708    15 C    1.126    48 H    0.973
    17   6 C    3.964 --    16 C    1.708    19 C    1.129    49 H    0.970
    18   7 N    3.021 --    19 C    1.340    15 C    1.288
    19   6 C    3.915 --    18 N    1.340    20 C    1.262    17 C    1.129
    20   6 C    3.936 --    19 C    1.262    21 C    1.256   119 C    1.175
    21   6 C    3.891 --    20 C    1.256    22 C    1.250    25 N    1.187
    22   6 C    3.959 --    23 C    1.581    21 C    1.250    50 H    0.972
    23   6 C    3.955 --    22 C    1.581    24 C    1.242    51 H    0.974
    24   6 C    3.898 --    26 C    1.307    23 C    1.242    25 N    1.166
    25   7 N    3.474 --    21 C    1.187    24 C    1.166    52 H    0.873
    26   6 C    3.925 --    34 C    1.322    24 C    1.307    27 C    1.031
    27   6 C    3.989 --    33 C    1.392    28 C    1.383    26 C    1.031
    28   6 C    3.986 --    29 C    1.467    27 C    1.383    53 H    0.973
                            32 C    0.102
    29   6 C    3.990 --    28 C    1.467    30 C    1.364    54 H    0.971
                            33 C    0.105
    30   6 C    3.900 --    32 C    1.372    29 C    1.364    31 O    1.040
    31   8 O    2.043 --    30 C    1.040    55 H    0.865
    32   6 C    3.988 --    33 C    1.453    30 C    1.372    56 H    0.970
                            28 C    0.102
    33   6 C    3.987 --    32 C    1.453    27 C    1.392    57 H    0.972
                            29 C    0.105
    34   6 C    3.929 --    26 C    1.322    38 N    1.316    35 C    1.119
    35   6 C    3.967 --    36 C    1.721    34 C    1.119    58 H    0.974
    36   6 C    3.966 --    35 C    1.721    37 C    1.118    59 H    0.976
    37   6 C    3.930 --     1 C    1.365    38 N    1.301    36 C    1.118
    38   7 N    3.011 --    34 C    1.316    37 C    1.301
    39   1 H    1.002 --     1 C    0.971
    40   1 H    0.998 --     3 C    0.977
    41   1 H    1.005 --     4 C    0.974
    42   1 H    0.986 --     6 N    0.874
    43   1 H    1.005 --     9 C    0.972
    44   1 H    0.999 --    10 C    0.970
    45   1 H    0.887 --    12 O    0.865
    46   1 H    0.999 --    13 C    0.971
    47   1 H    1.005 --    14 C    0.973
    48   1 H    1.005 --    16 C    0.973
    49   1 H    1.006 --    17 C    0.970
    50   1 H    1.005 --    22 C    0.972
    51   1 H    1.005 --    23 C    0.974
    52   1 H    0.988 --    25 N    0.873
    53   1 H    1.005 --    28 C    0.973
    54   1 H    0.999 --    29 C    0.971
    55   1 H    0.887 --    31 O    0.865
    56   1 H    0.999 --    32 C    0.970
    57   1 H    1.005 --    33 C    0.972
    58   1 H    1.005 --    35 C    0.974
    59   1 H    0.998 --    36 C    0.976
    60   6 C    3.925 --    96 C    1.365    61 C    1.347    98 H    0.971
    61   6 C    3.903 --    60 C    1.347    62 C    1.230    65 N    1.170
    62   6 C    3.953 --    63 C    1.595    61 C    1.230    99 H    0.977
    63   6 C    3.959 --    62 C    1.595    64 C    1.235   100 H    0.974
    64   6 C    3.896 --    66 C    1.304    63 C    1.235    65 N    1.176
    65   7 N    3.469 --    64 C    1.176    61 C    1.170   101 H    0.873
    66   6 C    3.939 --    74 C    1.333    64 C    1.304    67 C    1.031
    67   6 C    3.989 --    68 C    1.393    73 C    1.383    66 C    1.031
    68   6 C    3.988 --    69 C    1.453    67 C    1.393   102 H    0.972
                            72 C    0.105
    69   6 C    3.988 --    68 C    1.453    70 C    1.372   103 H    0.970
                            73 C    0.102
    70   6 C    3.900 --    69 C    1.372    72 C    1.364    71 O    1.040
    71   8 O    2.043 --    70 C    1.040   104 H    0.865
    72   6 C    3.990 --    73 C    1.467    70 C    1.364   105 H    0.971
                            68 C    0.105
    73   6 C    3.987 --    72 C    1.467    67 C    1.383   106 H    0.973
                            69 C    0.102
    74   6 C    3.916 --    66 C    1.333    77 N    1.290    75 C    1.126
    75   6 C    3.966 --    76 C    1.709    74 C    1.126   107 H    0.973
    76   6 C    3.965 --    75 C    1.709    78 C    1.128   108 H    0.972
    77   7 N    3.021 --    78 C    1.339    74 C    1.290
    78   6 C    3.916 --    77 N    1.339    79 C    1.263    76 C    1.128
    79   6 C    3.936 --    78 C    1.263    80 C    1.259   122 C    1.169
    80   6 C    3.892 --    79 C    1.259    81 C    1.248    84 N    1.187
    81   6 C    3.959 --    82 C    1.582    80 C    1.248   109 H    0.974
    82   6 C    3.956 --    81 C    1.582    83 C    1.242   110 H    0.974
    83   6 C    3.898 --    85 C    1.308    82 C    1.242    84 N    1.166
    84   7 N    3.474 --    80 C    1.187    83 C    1.166   111 H    0.873
    85   6 C    3.926 --    93 C    1.321    83 C    1.308    86 C    1.032
    86   6 C    3.989 --    92 C    1.391    87 C    1.383    85 C    1.032
    87   6 C    3.986 --    88 C    1.466    86 C    1.383   112 H    0.973
                            91 C    0.102
    88   6 C    3.990 --    87 C    1.466    89 C    1.364   113 H    0.971
                            92 C    0.105
    89   6 C    3.900 --    91 C    1.371    88 C    1.364    90 O    1.040
    90   8 O    2.043 --    89 C    1.040   114 H    0.865
    91   6 C    3.988 --    92 C    1.453    89 C    1.371   115 H    0.970
                            87 C    0.102
    92   6 C    3.987 --    91 C    1.453    86 C    1.391   116 H    0.972
                            88 C    0.105
    93   6 C    3.929 --    85 C    1.321    97 N    1.317    94 C    1.119
    94   6 C    3.967 --    95 C    1.721    93 C    1.119   117 H    0.974
    95   6 C    3.966 --    94 C    1.721    96 C    1.118   118 H    0.976
    96   6 C    3.930 --    60 C    1.365    97 N    1.301    95 C    1.118
    97   7 N    3.013 --    93 C    1.317    96 C    1.301
    98   1 H    1.002 --    60 C    0.971
    99   1 H    0.998 --    62 C    0.977
   100   1 H    1.005 --    63 C    0.974
   101   1 H    0.986 --    65 N    0.873
   102   1 H    1.005 --    68 C    0.972
   103   1 H    0.999 --    69 C    0.970
   104   1 H    0.887 --    71 O    0.865
   105   1 H    0.999 --    72 C    0.971
   106   1 H    1.005 --    73 C    0.973
   107   1 H    1.005 --    75 C    0.973
   108   1 H    1.005 --    76 C    0.972
   109   1 H    1.004 --    81 C    0.974
   110   1 H    1.005 --    82 C    0.974
   111   1 H    0.987 --    84 N    0.873
   112   1 H    1.005 --    87 C    0.973
   113   1 H    0.999 --    88 C    0.971
   114   1 H    0.887 --    90 O    0.865
   115   1 H    0.999 --    91 C    0.970
   116   1 H    1.005 --    92 C    0.972
   117   1 H    1.005 --    94 C    0.974
   118   1 H    0.998 --    95 C    0.976
   119   6 C    3.929 --   120 C    2.575    20 C    1.175
   120   6 C    3.931 --   119 C    2.575   123 C    1.176
   121   6 C    3.930 --   122 C    2.579   142 C    1.171
   122   6 C    3.928 --   121 C    2.579    79 C    1.169
   123   6 C    3.925 --   159 C    1.262   124 C    1.252   120 C    1.176
   124   6 C    3.892 --   125 C    1.254   123 C    1.252   128 N    1.187
   125   6 C    3.956 --   126 C    1.575   124 C    1.254   161 H    0.972
   126   6 C    3.956 --   125 C    1.575   127 C    1.247   162 H    0.974
   127   6 C    3.894 --   129 C    1.299   126 C    1.247   128 N    1.167
   128   7 N    3.471 --   124 C    1.187   127 C    1.167   163 H    0.874
   129   6 C    3.927 --   137 C    1.335   127 C    1.299   130 C    1.031
   130   6 C    3.989 --   131 C    1.392   136 C    1.383   129 C    1.031
   131   6 C    3.987 --   132 C    1.453   130 C    1.392   164 H    0.972
                           135 C    0.105
   132   6 C    3.988 --   131 C    1.453   133 C    1.371   165 H    0.970
                           136 C    0.102
   133   6 C    3.900 --   132 C    1.371   135 C    1.364   134 O    1.040
   134   8 O    2.043 --   133 C    1.040   166 H    0.865
   135   6 C    3.990 --   136 C    1.466   133 C    1.364   167 H    0.971
                           131 C    0.105
   136   6 C    3.987 --   135 C    1.466   130 C    1.383   168 H    0.973
                           132 C    0.102
   137   6 C    3.918 --   129 C    1.335   140 N    1.288   138 C    1.125
   138   6 C    3.967 --   139 C    1.708   137 C    1.125   169 H    0.974
   139   6 C    3.964 --   138 C    1.708   141 C    1.129   170 H    0.973
   140   7 N    3.009 --   141 C    1.339   137 C    1.288
   141   6 C    3.917 --   140 N    1.339   142 C    1.263   139 C    1.129
   142   6 C    3.924 --   141 C    1.263   143 C    1.256   121 C    1.171
   143   6 C    3.893 --   142 C    1.256   144 C    1.251   147 N    1.187
   144   6 C    3.956 --   145 C    1.578   143 C    1.251   171 H    0.974
   145   6 C    3.957 --   144 C    1.578   146 C    1.246   172 H    0.974
   146   6 C    3.894 --   148 C    1.301   145 C    1.246   147 N    1.167
   147   7 N    3.470 --   143 C    1.187   146 C    1.167   173 H    0.874
   148   6 C    3.928 --   156 C    1.336   146 C    1.301   149 C    1.028
   149   6 C    3.988 --   155 C    1.392   150 C    1.385   148 C    1.028
   150   6 C    3.987 --   151 C    1.465   149 C    1.385   174 H    0.973
                           154 C    0.102
   151   6 C    3.990 --   150 C    1.465   152 C    1.365   175 H    0.971
                           155 C    0.105
   152   6 C    3.901 --   154 C    1.371   151 C    1.365   153 O    1.040
   153   8 O    2.043 --   152 C    1.040   176 H    0.865
   154   6 C    3.988 --   155 C    1.453   152 C    1.371   177 H    0.970
                           150 C    0.102
   155   6 C    3.988 --   154 C    1.453   149 C    1.392   178 H    0.972
                           151 C    0.105
   156   6 C    3.917 --   148 C    1.336   160 N    1.287   157 C    1.126
   157   6 C    3.967 --   158 C    1.708   156 C    1.126   179 H    0.974
   158   6 C    3.964 --   157 C    1.708   159 C    1.130   180 H    0.971
   159   6 C    3.916 --   160 N    1.340   123 C    1.262   158 C    1.130
   160   7 N    3.010 --   159 C    1.340   156 C    1.287
   161   1 H    1.005 --   125 C    0.972
   162   1 H    1.005 --   126 C    0.974
   163   1 H    0.987 --   128 N    0.874
   164   1 H    1.005 --   131 C    0.972
   165   1 H    0.999 --   132 C    0.970
   166   1 H    0.887 --   134 O    0.865
   167   1 H    0.999 --   135 C    0.971
   168   1 H    1.005 --   136 C    0.973
   169   1 H    1.005 --   138 C    0.974
   170   1 H    1.005 --   139 C    0.973
   171   1 H    1.004 --   144 C    0.974
   172   1 H    1.005 --   145 C    0.974
   173   1 H    0.987 --   147 N    0.874
   174   1 H    1.005 --   150 C    0.973
   175   1 H    0.999 --   151 C    0.971
   176   1 H    0.887 --   153 O    0.865
   177   1 H    0.999 --   154 C    0.970
   178   1 H    1.005 --   155 C    0.972
   179   1 H    1.005 --   157 C    0.974
   180   1 H    1.006 --   158 C    0.971
 ---------------------------------------------------------------------------

           -------------------------------------------------
          | TOTAL ENERGY             -311.147749670730 Eh   |
          | GRADIENT NORM               0.000452555941 Eh/α |
          | HOMO-LUMO GAP               0.858041556234 eV   |
           -------------------------------------------------

 * finished run on 2022/07/28 at 11:54:52.207
