   * xtb version 6.5.1 (b24c23e) compiled by 'conda@728c89f4b128' on 2022-07-12
          program call               : xtb H_C10_3.xyz --gfn 1 --opt -T 48

   ID    Z sym.   atoms
    1    6 C      1-5, 7-10, 12-17, 19-23, 38-42, 44-47, 49-54, 56-60, 75-99,
                  101-104, 106-111, 113-117
    2    7 N      6, 11, 18, 24, 43, 48, 55, 61, 100, 105, 112, 118
    3    1 H      25-37, 62-74, 119-130

          :  Hamiltonian                  GFN1-xTB          :
 * total energy  :  -221.5670986 Eh     change       -0.1600966E-08 Eh
 * total energy  :  -226.2088998 Eh     change       -0.4641801E+01 Eh
 * total energy  :  -226.5497869 Eh     change       -0.3408871E+00 Eh
 * total energy  :  -226.7087922 Eh     change       -0.1590053E+00 Eh
 * total energy  :  -226.7615855 Eh     change       -0.5279329E-01 Eh
 * total energy  :  -226.7805796 Eh     change       -0.1899411E-01 Eh
 * total energy  :  -226.7902881 Eh     change       -0.9708541E-02 Eh
 * total energy  :  -226.7938498 Eh     change       -0.3561744E-02 Eh
 * total energy  :  -226.7956313 Eh     change       -0.1781431E-02 Eh
 * total energy  :  -226.7964705 Eh     change       -0.8392000E-03 Eh
 * total energy  :  -227.0345865 Eh     change       -0.6919227E-05 Eh
 * total energy  :  -227.0345993 Eh     change       -0.1278208E-04 Eh
 * total energy  :  -227.0346184 Eh     change       -0.1909110E-04 Eh
 * total energy  :  -227.0346301 Eh     change       -0.1175344E-04 Eh
 * total energy  :  -227.0346414 Eh     change       -0.1132273E-04 Eh
 * total energy  :  -227.0346547 Eh     change       -0.1330811E-04 Eh
 * total energy  :  -227.0346671 Eh     change       -0.1239973E-04 Eh
 * total energy  :  -227.0346789 Eh     change       -0.1179129E-04 Eh
 * total energy  :  -227.0346822 Eh     change       -0.3240914E-05 Eh
   *** GEOMETRY OPTIMIZATION CONVERGED AFTER 122 ITERATIONS ***

 final structure:
================
130
 xtb: 6.5.1 (b24c23e)
C            2.61427624623303       -0.13120451406715       -0.05463331262938
C            3.24924372925606       -1.36270527630734        0.03304017447719
C            2.61127773844604       -2.64291280829025        0.04209588601781
C            3.57956175804479       -3.60087172795414        0.07874867219591
C            4.84958285077787       -2.94473118035184        0.10007370971786
N            4.59213603917381       -1.59780701165630        0.09189137871426
C            6.10472917512205       -3.52337635263004        0.03291810913796
C            7.30781519883420       -2.80452253795863       -0.01009867729496
C            8.59836350320484       -3.32836546585630       -0.43072275087511
C            9.43365212324512       -2.27234913971176       -0.50619270347926
N            7.38669633047786       -1.49511565955493        0.24343610066521
C            8.67887483258159       -1.10723625182354       -0.07095115267715
C            9.09120307424762        0.16451931587697        0.05733398472683
C            8.58654298639717        1.40970166500143        0.20321988401629
C            9.18497481831229        2.64610537197264        0.60304712038894
C            8.23904112017591        3.62540490045973        0.51369749210390
C            7.01253687377105        3.02144991891671        0.10078819671218
N            7.28110033435367        1.71240213409943       -0.14575679996407
C            5.73209305262871        3.56179608234763        0.03279613795153
C            4.56509822868538        2.81445274979773       -0.09117653685238
C            3.22959278718174        3.39087129142007       -0.13198948397639
C            2.36831405581434        2.35493296236883       -0.15196412523537
C            3.17638642359532        1.14222885204069       -0.11149198159664
N            4.49008503084501        1.45837505643995       -0.09799604333437
H            1.52964484382027       -0.17475117432752       -0.08105555785958
H            1.54309110296515       -2.78883660414078        0.00985651468860
H            3.44739430064574       -4.67115321093816        0.08524519345069
H            5.31530146356800       -0.88595725179406        0.10493736968875
H            6.14920587217340       -4.60247168797103       -0.05977775662087
H            8.79789292952652       -4.36111964939216       -0.67048054667008
H           10.47216938802171       -2.24555805914072       -0.79451552030031
H           10.21583326765275        2.74930718561338        0.90111398409793
H            8.35690555790321        4.67195822158890        0.74591740573945
H            6.55697132019723        1.02015369740246       -0.30913416310377
H            5.63824905135899        4.63518967539448        0.15242500311097
H            3.01775599675475        4.44854088467226       -0.14295635313869
H            1.28986581602015        2.37251792490314       -0.17790174125022
C           55.11814051179269        0.14673454767546       -0.05342605304587
C           54.46429489775415        1.35325447485109       -0.26876075786561
C           55.04652304017552        2.63076291946685       -0.51035865203177
C           54.03155818428351        3.53193697969690       -0.66886137039068
C           52.79766799048586        2.83395552046383       -0.52760275561523
N           53.10955440692930        1.52700613020237       -0.28912334920032
C           51.51529424966017        3.36468061530483       -0.60873282887837
C           50.31236528360068        2.68879722455257       -0.46635974903298
C           49.01808584398229        3.34052507439227       -0.56219020730536
C           48.09179615937539        2.37837418096551       -0.37209971855069
N           50.15114136131464        1.35918877966806       -0.22305190634506
C           48.82397416941135        1.14211205277091       -0.16234242597087
C           48.19801989356820       -0.10232459350889        0.06467338410808
C           48.87779602711210       -1.31930311516800        0.26354533525665
C           48.30098570055233       -2.59844902546302        0.48805160372294
C           49.31970530400702       -3.50067157252957        0.62503670217313
C           50.54924953330069       -2.79729729588603        0.48916525072748
N           50.22956521293251       -1.48401164444592        0.27210456201381
C           51.83009641947378       -3.32966760651749        0.56514707302190
C           53.03478437683498       -2.64833659328309        0.44176366426766
C           54.33545817068224       -3.29153644726339        0.54674689109811
C           55.25569277025271       -2.32075238439431        0.37862123232695
C           54.51632030887203       -1.08626963180736        0.16824304234762
N           53.18339066566690       -1.32218803999869        0.21438532083625
H           56.20246645511021        0.17825523679071       -0.06472908543173
H           56.10726109448624        2.82007434726981       -0.55528643711137
H           54.11577844591660        4.58884040099707       -0.86630821265423
H           52.43451753992651        0.78346454063570       -0.14554758310292
H           51.45778807647898        4.43077262908099       -0.80389131634955
H           48.87203246929788        4.39268223375332       -0.74984018945182
H           47.01698905040930        2.46611716395381       -0.36925946208074
H           47.24119453108461       -2.79092268901665        0.53640142183691
H           49.23856455777929       -4.56079729344904        0.80484709713889
H           50.90256638292798       -0.73698300361418        0.13556020014372
H           51.88571588683751       -4.39861822350122        0.74430737258347
H           54.48742920467121       -4.34449256793945        0.72615410850046
H           56.33173960565181       -2.39800472442089        0.38906155788211
C           14.00154363657337       -0.01061324609171       -0.13989285144421
C           15.21314539291813        0.00403524560104        0.07250365974014
C           16.55509040821416        0.01353491118936        0.05324981651485
C           17.79259656944566        0.02613553900391        0.00596696644945
C           19.11957711565530        0.03564069736940        0.00639759145436
C           20.35961096871989        0.04312082862881        0.00723055988771
C           21.68707030460276        0.04962259442630        0.00196416912704
C           22.92454235023423        0.05257923024543       -0.00297710109512
C           24.25969825602666        0.05227782521271       -0.00686261177295
C           25.48889002335545        0.04717323695521       -0.00932057690772
C           35.29603147168001       -0.06862026717576       -0.00342741645929
C           36.52207088200986       -0.09113050993714        0.01192509663355
C           37.86188862675863       -0.10819410962803        0.03169440762008
C           39.09451653034284       -0.13149941146272        0.04958834799682
C           40.42843404933941       -0.15177517135207        0.07039348735392
C           41.66258036853333       -0.16881876161948        0.08723547361595
C           42.99694777596884       -0.17489743030994        0.10320300978326
C           44.22950906679992       -0.17736185086937        0.10639133358994
C           45.57030002861345       -0.16288573859220        0.10295729286032
C           46.79568374144232       -0.14165559214670        0.08767254680598
C           26.88620096989776        0.03662089748575       -0.01239427813489
C           27.54504881033450        1.28520159954938       -0.02906436033821
C           26.94885083982959        2.57199597181007       -0.04471648487394
C           27.95595206378566        3.50023602660580       -0.05865913599384
C           29.19354046538252        2.80241326879193       -0.05177229670452
N           28.89446313446686        1.46797260925146       -0.03386904082020
C           30.46736358483085        3.36506219508885       -0.06077517736342
C           31.69099573775650        2.71621636072977       -0.05302790537888
C           32.96290555324791        3.41664824731261       -0.06151460194987
C           33.92195389305331        2.46758279078758       -0.04759246630156
N           31.89841663345382        1.36943109658957       -0.03490199194579
C           33.23201835389670        1.19108703733890       -0.03104127800024
C           33.89529559536504       -0.05528703914915       -0.01143523950559
C           33.23979004866855       -1.30337299054936        0.00311185851044
C           33.83659281601326       -2.59094624301130        0.02098376960399
C           32.82996324509930       -3.51889461946174        0.03078193664993
C           31.59158026363263       -2.82152149586311        0.01947740668565
N           31.89050320000735       -1.48662227656455        0.00252769659052
C           30.31856649269767       -3.38364083670523        0.02526634337964
C           29.09441862047959       -2.73478630621761        0.01704845625917
C           27.82368043525815       -3.43561035971923        0.02548439580094
C           26.86405874498339       -2.48660157130168        0.01543241401334
C           27.55297409513458       -1.21020393924699        0.00077936973097
N           28.88635075033225       -1.38752292617991        0.00168950306663
H           25.88626415513822        2.75435481929018       -0.04519236006490
H           27.85909368807918        4.57406344888877       -0.07252864005409
H           29.57350712777001        0.71385757447041       -0.02519836273229
H           30.49349083970374        4.45034117750691       -0.07477449928682
H           33.07333039105193        4.48958416335162       -0.07578034233411
H           34.99361499995112        2.58823318537067       -0.04828994521456
H           34.89922434410115       -2.77320609866623        0.02530394869274
H           32.92714493129760       -4.59271193213605        0.04495089822261
H           31.21109705815551       -0.73289359330637       -0.00817664481006
H           30.29205234708222       -4.46893275823910        0.03876634559356
H           27.71391675177286       -4.50860184159110        0.03749660827393
H           25.79259945152919       -2.60813059638766        0.01729702760432

          :  Hamiltonian                  GFN1-xTB          :
         :: total energy            -227.034682176871 Eh    ::
         :: gradient norm              0.000948414389 Eh/a0 ::
         :: HOMO-LUMO gap              0.019501076618 eV    ::
         :: SCC energy              -231.239348388510 Eh    ::
         :: repulsion energy           4.301310601164 Eh    ::

    * Orbital Energies and Occupations

         #    Occupation            Energy/Eh            Energy/eV
      -------------------------------------------------------------
         1        2.0000           -0.8117617             -22.0892
       ...           ...                  ...                  ...
       197        2.0000           -0.4193033             -11.4098
       198        2.0000           -0.4188845             -11.3984
       199        2.0000           -0.4141977             -11.2709
       200        2.0000           -0.4127344             -11.2311
       201        2.0000           -0.4058463             -11.0436
       202        2.0000           -0.4030174             -10.9667
       203        2.0000           -0.4018129             -10.9339
       204        2.0000           -0.3956895             -10.7673
       205        2.0000           -0.3944195             -10.7327
       206        2.0000           -0.3868586             -10.5270
       207        1.9998           -0.3830363             -10.4229
       208        1.9892           -0.3794479             -10.3253
       209        1.1919           -0.3748595             -10.2004 (HOMO)
       210        0.8191           -0.3741428             -10.1809 (LUMO)
       211                         -0.3461041              -9.4180
       212                         -0.3384338              -9.2093
       213                         -0.3379245              -9.1954
       214                         -0.3371041              -9.1731
       215                         -0.3341087              -9.0916
       216                         -0.3335987              -9.0777
       217                         -0.3137890              -8.5386
       218                         -0.3128624              -8.5134
       219                         -0.3014492              -8.2029
       220                         -0.2988334              -8.1317
       ...                                ...                  ...
       444                          1.6144014              43.9301
      -------------------------------------------------------------
                  HL-Gap            0.0007167 Eh            0.0195 eV

Wiberg/Mayer (AO) data.
largest (>0.10) Wiberg bond orders for each atom

     #   Z sym  total        # sym  WBO       # sym  WBO       # sym  WBO
 ---------------------------------------------------------------------------
     1   6 C    3.949 --     2 C    1.362    23 C    1.352    25 H    0.970
     2   6 C    3.889 --     1 C    1.362     3 C    1.204     6 N    1.177
     3   6 C    3.961 --     4 C    1.630     2 C    1.204    26 H    0.976
     4   6 C    3.951 --     3 C    1.630     5 C    1.201    27 H    0.976
     5   6 C    3.920 --     7 C    1.397     4 C    1.201     6 N    1.157
     6   7 N    3.463 --     2 C    1.177     5 C    1.157    28 H    0.872
     7   6 C    3.903 --     5 C    1.397     8 C    1.294    29 H    0.971
     8   6 C    3.932 --    11 N    1.386     7 C    1.294     9 C    1.107
     9   6 C    3.970 --    10 C    1.737     8 C    1.107    30 H    0.975
    10   6 C    3.954 --     9 C    1.737    12 C    1.093    31 H    0.975
    11   7 N    2.919 --     8 C    1.386    12 C    1.156
    12   6 C    3.924 --    13 C    1.545    11 N    1.156    10 C    1.093
    13   6 C    3.378 --    12 C    1.545    14 C    1.476
    14   6 C    3.903 --    13 C    1.476    15 C    1.189    18 N    1.095
    15   6 C    3.939 --    16 C    1.628    14 C    1.189    32 H    0.975
    16   6 C    3.963 --    15 C    1.628    17 C    1.208    33 H    0.976
    17   6 C    3.886 --    19 C    1.338    16 C    1.208    18 N    1.189
    18   7 N    3.402 --    17 C    1.189    14 C    1.095    34 H    0.871
    19   6 C    3.920 --    20 C    1.371    17 C    1.338    35 H    0.971
    20   6 C    3.920 --    19 C    1.371    24 N    1.297    21 C    1.108
    21   6 C    3.963 --    22 C    1.736    20 C    1.108    36 H    0.976
    22   6 C    3.962 --    21 C    1.736    23 C    1.104    37 H    0.976
    23   6 C    3.913 --     1 C    1.352    24 N    1.319    22 C    1.104
    24   7 N    3.032 --    23 C    1.319    20 C    1.297
    25   1 H    1.002 --     1 C    0.970
    26   1 H    0.997 --     3 C    0.976
    27   1 H    0.997 --     4 C    0.976
    28   1 H    0.983 --     6 N    0.872
    29   1 H    0.999 --     7 C    0.971
    30   1 H    0.997 --     9 C    0.975
    31   1 H    0.997 --    10 C    0.975
    32   1 H    0.997 --    15 C    0.975
    33   1 H    0.997 --    16 C    0.976
    34   1 H    0.978 --    18 N    0.871
    35   1 H    0.999 --    19 C    0.971
    36   1 H    0.998 --    21 C    0.976
    37   1 H    0.998 --    22 C    0.976
    38   6 C    3.928 --    60 C    1.364    39 C    1.349    62 H    0.972
    39   6 C    3.903 --    38 C    1.349    40 C    1.225    43 N    1.172
    40   6 C    3.954 --    41 C    1.602    39 C    1.225    63 H    0.977
    41   6 C    3.958 --    40 C    1.602    42 C    1.227    64 H    0.977
    42   6 C    3.896 --    44 C    1.341    41 C    1.227    43 N    1.175
    43   7 N    3.472 --    42 C    1.175    39 C    1.172    65 H    0.873
    44   6 C    3.944 --    45 C    1.381    42 C    1.341    66 H    0.971
    45   6 C    3.915 --    44 C    1.381    48 N    1.275    46 C    1.118
    46   6 C    3.965 --    47 C    1.718    45 C    1.118    67 H    0.976
    47   6 C    3.963 --    46 C    1.718    49 C    1.123    68 H    0.974
    48   7 N    3.025 --    49 C    1.355    45 C    1.275
    49   6 C    3.907 --    48 N    1.355    50 C    1.248    47 C    1.123
    50   6 C    3.941 --    51 C    1.251    49 C    1.248    94 C    1.199
    51   6 C    3.883 --    50 C    1.251    52 C    1.245    55 N    1.194
    52   6 C    3.959 --    53 C    1.589    51 C    1.245    69 H    0.975
    53   6 C    3.953 --    52 C    1.589    54 C    1.232    70 H    0.977
    54   6 C    3.898 --    56 C    1.351    53 C    1.232    55 N    1.161
    55   7 N    3.475 --    51 C    1.194    54 C    1.161    71 H    0.873
    56   6 C    3.928 --    57 C    1.363    54 C    1.351    72 H    0.971
    57   6 C    3.930 --    56 C    1.363    61 N    1.309    58 C    1.112
    58   6 C    3.967 --    59 C    1.730    57 C    1.112    73 H    0.976
    59   6 C    3.966 --    58 C    1.730    60 C    1.113    74 H    0.976
    60   6 C    3.929 --    38 C    1.364    61 N    1.307    59 C    1.113
    61   7 N    3.014 --    57 C    1.309    60 C    1.307
    62   1 H    1.001 --    38 C    0.972
    63   1 H    0.998 --    40 C    0.977
    64   1 H    0.998 --    41 C    0.977
    65   1 H    0.986 --    43 N    0.873
    66   1 H    1.002 --    44 C    0.971
    67   1 H    0.998 --    46 C    0.976
    68   1 H    1.002 --    47 C    0.974
    69   1 H    1.001 --    52 C    0.975
    70   1 H    0.998 --    53 C    0.977
    71   1 H    0.987 --    55 N    0.873
    72   1 H    1.002 --    56 C    0.971
    73   1 H    0.998 --    58 C    0.976
    74   1 H    0.998 --    59 C    0.976
    75   6 C    2.751 --    76 C    2.483    78 C    0.196
    76   6 C    3.900 --    75 C    2.483    77 C    1.369
    77   6 C    3.835 --    78 C    2.238    76 C    1.369    80 C    0.166
    78   6 C    3.929 --    77 C    2.238    79 C    1.441    75 C    0.196
    79   6 C    3.888 --    80 C    2.215    78 C    1.441    82 C    0.166
    80   6 C    3.864 --    79 C    2.215    81 C    1.434    77 C    0.166
    81   6 C    3.909 --    82 C    2.251    80 C    1.434    84 C    0.175
    82   6 C    3.850 --    81 C    2.251    83 C    1.389    79 C    0.166
    83   6 C    3.919 --    84 C    2.379    82 C    1.389
    84   6 C    3.850 --    83 C    2.379    95 C    1.227    81 C    0.175
    85   6 C    3.869 --    86 C    2.416   107 C    1.208    88 C    0.183
    86   6 C    3.924 --    85 C    2.416    87 C    1.359
    87   6 C    3.877 --    88 C    2.308    86 C    1.359    90 C    0.177
    88   6 C    3.918 --    87 C    2.308    89 C    1.391    85 C    0.183
    89   6 C    3.890 --    90 C    2.288    88 C    1.391    92 C    0.177
    90   6 C    3.888 --    89 C    2.288    91 C    1.389    87 C    0.177
    91   6 C    3.923 --    92 C    2.313    90 C    1.389    94 C    0.184
    92   6 C    3.876 --    91 C    2.313    93 C    1.354    89 C    0.177
    93   6 C    3.932 --    94 C    2.426    92 C    1.354
    94   6 C    3.869 --    93 C    2.426    50 C    1.199    91 C    0.184
    95   6 C    3.915 --   117 C    1.235    96 C    1.234    84 C    1.227
    96   6 C    3.880 --    97 C    1.257    95 C    1.234   100 N    1.196
    97   6 C    3.955 --    98 C    1.575    96 C    1.257   119 H    0.975
    98   6 C    3.951 --    97 C    1.575    99 C    1.244   120 H    0.977
    99   6 C    3.893 --   101 C    1.330    98 C    1.244   100 N    1.165
   100   7 N    3.470 --    96 C    1.196    99 C    1.165   121 H    0.872
   101   6 C    3.921 --   102 C    1.390    99 C    1.330   122 H    0.970
   102   6 C    3.918 --   101 C    1.390   105 N    1.266   103 C    1.120
   103   6 C    3.966 --   104 C    1.716   102 C    1.120   123 H    0.976
   104   6 C    3.963 --   103 C    1.716   106 C    1.126   124 H    0.975
   105   7 N    2.997 --   106 C    1.359   102 C    1.266
   106   6 C    3.908 --   105 N    1.359   107 C    1.243   104 C    1.126
   107   6 C    3.914 --   106 C    1.243   108 C    1.242    85 C    1.208
   108   6 C    3.884 --   109 C    1.252   107 C    1.242   112 N    1.195
   109   6 C    3.953 --   110 C    1.579   108 C    1.252   125 H    0.975
   110   6 C    3.953 --   109 C    1.579   111 C    1.242   126 H    0.977
   111   6 C    3.892 --   113 C    1.334   110 C    1.242   112 N    1.163
   112   7 N    3.468 --   108 C    1.195   111 C    1.163   127 H    0.872
   113   6 C    3.925 --   114 C    1.388   111 C    1.334   128 H    0.970
   114   6 C    3.916 --   113 C    1.388   118 N    1.264   115 C    1.122
   115   6 C    3.965 --   116 C    1.712   114 C    1.122   129 H    0.976
   116   6 C    3.962 --   115 C    1.712   117 C    1.128   130 H    0.974
   117   6 C    3.904 --   118 N    1.364    95 C    1.235   116 C    1.128
   118   7 N    3.001 --   117 C    1.364   114 C    1.264
   119   1 H    1.001 --    97 C    0.975
   120   1 H    0.997 --    98 C    0.977
   121   1 H    0.986 --   100 N    0.872
   122   1 H    1.002 --   101 C    0.970
   123   1 H    0.998 --   103 C    0.976
   124   1 H    1.002 --   104 C    0.975
   125   1 H    1.001 --   109 C    0.975
   126   1 H    0.997 --   110 C    0.977
   127   1 H    0.986 --   112 N    0.872
   128   1 H    1.002 --   113 C    0.970
   129   1 H    0.998 --   115 C    0.976
   130   1 H    1.002 --   116 C    0.974
 ---------------------------------------------------------------------------

           -------------------------------------------------
          | TOTAL ENERGY             -227.034682176871 Eh   |
          | GRADIENT NORM               0.000948414389 Eh/α |
          | HOMO-LUMO GAP               0.019501076618 eV   |
           -------------------------------------------------

 * finished run on 2022/07/26 at 18:26:33.742
