   * xtb version 6.5.1 (b24c23e) compiled by 'conda@728c89f4b128' on 2022-07-12
          program call               : xtb Co_NMA_C2_2.xyz --gfn 1 --opt -T 48

   ID    Z sym.   atoms
    1   27 Co     1, 67
    2    6 C      2-6, 8-12, 14-19, 21-26, 28-32, 34-40, 68-72, 74-78, 80-85,
                  87-92, 94-98, 100-106, 133, 134
    3    7 N      7, 13, 20, 27, 33, 41, 73, 79, 86, 93, 99, 107
    4    1 H      42-66, 108-132

          :  Hamiltonian                  GFN1-xTB          :
 * total energy  :  -206.1650674 Eh     change       -0.1075620E-08 Eh
 * total energy  :  -217.3240377 Eh     change       -0.1115897E+02 Eh
 * total energy  :  -218.2091070 Eh     change       -0.8850693E+00 Eh
 * total energy  :  -218.8470985 Eh     change       -0.6379914E+00 Eh
 * total energy  :  -219.1524374 Eh     change       -0.3053389E+00 Eh
 * total energy  :  -219.3280498 Eh     change       -0.1756124E+00 Eh
 * total energy  :  -219.4440742 Eh     change       -0.1160244E+00 Eh
 * total energy  :  -219.5323900 Eh     change       -0.8831583E-01 Eh
 * total energy  :  -219.6086973 Eh     change       -0.7630730E-01 Eh
 * total energy  :  -219.6800229 Eh     change       -0.7132557E-01 Eh
 * total energy  :  -220.2610758 Eh     change       -0.3969973E-04 Eh
 * total energy  :  -220.2611264 Eh     change       -0.5061702E-04 Eh
 * total energy  :  -220.2611563 Eh     change       -0.2993111E-04 Eh
 * total energy  :  -220.2611826 Eh     change       -0.2630197E-04 Eh
 * total energy  :  -220.2612085 Eh     change       -0.2589122E-04 Eh
 * total energy  :  -220.2612153 Eh     change       -0.6734353E-05 Eh
 * total energy  :  -220.2612250 Eh     change       -0.9728962E-05 Eh
 * total energy  :  -220.2612291 Eh     change       -0.4137243E-05 Eh
 * total energy  :  -220.2612338 Eh     change       -0.4676853E-05 Eh
   *** GEOMETRY OPTIMIZATION CONVERGED AFTER 63 ITERATIONS ***

 final structure:
================
134
 xtb: 6.5.1 (b24c23e)
Co          18.92291958104737        0.06090045562299       -0.01716372400080
C           15.55488160417356        0.14372764675426       -0.10190661627283
C           16.20120906167073        0.83146281501705        0.90334446777317
C           15.53157519756243        1.56155288871335        1.93540755087094
C           16.48496201237151        2.25899938119313        2.59849457701122
C           17.73389371908220        1.96574209742057        1.95907440507526
N           17.55807279774501        1.03039618173778        0.97184333825916
C           18.92489482575192        2.63383877877497        2.22176679663942
C           18.92324297304575        3.76805813236139        3.16847420582272
C           18.07447478817168        4.86165954359871        2.97067147881076
C           18.07806365569564        5.92782272122592        3.84920675581220
C           18.92358778721664        5.92724049036815        4.96579143706642
N           18.92486996536451        7.04007430939065        5.79248886847749
C           19.39702872469891        6.92126129537430        7.16521117250841
C           19.77786487656539        4.83866114236618        5.16631994366104
C           19.77444109952498        3.77912100533820        4.27576874082280
C           20.11309854149254        2.27015666567137        1.60197345591390
C           21.35483318139366        2.96401450458213        1.76530170741440
C           22.30611112815891        2.21211094598996        1.15904236332881
N           20.29499685658701        1.13821958256874        0.84178153660020
C           21.64205856404935        1.06826022384768        0.62063112288027
C           22.30878650331760       -0.02839709891299        0.06946014532428
C           21.61834854250359       -1.10740343641681       -0.48768575570696
C           22.25441069820089       -2.28737773272897       -0.98011196733765
C           21.29294430828267       -3.01995056870666       -1.59351423769014
C           20.07560690346661       -2.27286565917487       -1.49051732133041
N           20.27541987704283       -1.13622172611724       -0.74011644428458
C           18.90482198701955       -2.58799796563590       -2.16671462650655
C           18.89510733825117       -3.73158521098325       -3.10168850185378
C           19.80881190207642       -3.80215482983856       -4.15577433918853
C           19.80258974654509       -4.86702331257838       -5.03965451273309
C           18.87382375705239       -5.90084481953724       -4.88669241369304
N           18.85781308958102       -7.01724342992784       -5.70818395295183
C           19.41341956156169       -6.93440561779134       -7.05203884711478
C           17.96399015355440       -5.84197051039831       -3.82346304806468
C           17.97143796546412       -4.77056900876869       -2.95127235902694
C           17.74172777603265       -1.84554211843861       -1.99026361471774
C           16.52311809612779       -2.06555474130683       -2.71185154110525
C           15.57596733567983       -1.29278499027668       -2.12742886137958
C           16.22039200487336       -0.59342875476893       -1.05861067058319
N           17.55988646794509       -0.89134758154196       -1.02353214490970
H           14.47241348249976        0.18079540876844       -0.13941995471464
H           14.46768306606914        1.53603515325220        2.11049258936970
H           16.36554315907892        2.91612363484125        3.44473591192429
H           17.42341421899656        4.88285931897513        2.10356006945294
H           17.42399220294845        6.77592648685137        3.67594262827041
H           18.07276970747940        7.58257800972481        5.72148641690812
H           20.47437294832608        6.75123939042919        7.17641879359468
H           18.89693469730782        6.10182762080261        7.69395128808886
H           19.18697840998454        7.86095446031241        7.67602522287904
H           20.44817291438403        4.81256925058962        6.01669693919983
H           20.42801464425374        2.93196750588035        4.45358097820234
H           21.47244333362229        3.90703201374400        2.27390019421202
H           23.36458062395181        2.40111205137418        1.07915494694036
H           23.30197373724464       -2.51370387776861       -0.86261288864582
H           21.38996599637737       -3.97974034430323       -2.07422284996084
H           20.52041971297037       -2.99616110399020       -4.29829720048739
H           20.52309309257485       -4.88757700998399       -5.84799858726328
H           17.97330440234451       -7.50995615933129       -5.68419612652310
H           18.99054425710575       -6.09218481713066       -7.61162763530240
H           19.18102900430975       -7.86466121214776       -7.57051334065178
H           20.49750370705362       -6.82418460980475       -7.00226685917475
H           17.25043356941237       -6.64781224356139       -3.68739527164679
H           17.26827820933385       -4.74529864582977       -2.12599066654705
H           16.41811300993187       -2.72755865057601       -3.55625751863873
H           14.53161668958520       -1.19668780441802       -2.37908420484959
Co          29.72242873920904        0.00334337572699       -0.06302026012709
C           33.09045825169385        0.06821026878242       -0.16274348721776
C           32.44417597955385       -1.06292174509195       -0.61451724096315
C           33.11382054725037       -2.22939809610174       -1.10185796002512
C           32.16041523644095       -3.02876142258139       -1.63767564781200
C           30.91147116541422       -2.34080332953969       -1.49092031612916
N           31.08730167834026       -1.17324229561307       -0.79357841168110
C           29.72046395127452       -2.74294232055536       -2.08557564160772
C           29.72212243073278       -3.91432363009615       -2.98589387751758
C           30.57078440522713       -3.95988279476079       -4.09637570456630
C           30.56717399973828       -5.04990929464189       -4.94512392751927
C           29.72183749379094       -6.13955567345681       -4.70074946455476
N           29.72027886744868       -7.18905498729571       -5.60640843970878
C           29.24838109662544       -8.50287237580495       -5.19105955724418
C           28.86773892510533       -6.09779091910490       -3.59451949974032
C           28.87108451858272       -4.99743614249880       -2.75492472198505
C           28.53226508802400       -2.05874885644369       -1.86582708495521
C           27.29050525720731       -2.36958150687471       -2.50725873494004
C           26.33922091532211       -1.61398022344404       -1.90562666811917
N           28.35037511146233       -1.06993765663999       -0.92697699641157
C           27.00329600052086       -0.83895698271769       -0.90682985318757
C           26.33655540602558       -0.06177793596326        0.04313817188645
C           27.02696637176171        0.71742215471899        0.97455288581904
C           26.39090839638308        1.45549729641262        2.01861351970899
C           27.35236426946851        2.21406457904137        2.59959130935441
C           28.56969418744434        1.95051794159986        1.89298054744955
N           28.36988440340493        0.97012925479346        0.94752124149448
C           29.74051820309500        2.67912573366089        2.05300047188273
C           29.75024732561083        3.84112696995110        2.96498749005697
C           28.83657248147445        4.88523026224839        2.80380961043840
C           28.84281388981333        5.98019328340325        3.65012115542373
C           29.77157224166190        6.05651696330418        4.69241203318554
N           29.78757234039949        7.10183904852424        5.60262927754110
C           29.23197131057830        8.39522722592709        5.22851438647242
C           30.68138896790805        5.00605460225393        4.86698850425471
C           30.67391396482561        3.92106717981277        4.01175841269334
C           30.90362449816613        2.34487823975631        1.36697837316362
C           32.12223583549834        3.09708949977912        1.42426454479834
C           33.06935155599264        2.35823126167491        0.79747083691927
C           32.42491960284838        1.16260687637027        0.34808405243871
N           31.08544509537229        1.19331641738401        0.64657866226175
H           34.17291743666921        0.09683873512146       -0.20725465196204
H           34.17772648252870       -2.39464958844173       -1.03884929853758
H           32.27981906672376       -3.99801812854793       -2.09427091459897
H           31.22178002509226       -3.11826297195020       -4.30635426807182
H           31.22111596068961       -5.06584544989180       -5.81068119409941
H           30.57192957721165       -7.23791908123322       -6.15191475445689
H           28.17147739995430       -8.47688315901725       -5.02181573161929
H           29.74902375453216       -8.84035561926315       -4.27675971877800
H           29.45768363929482       -9.20617928049009       -5.99675719882413
H           28.19742174326878       -6.92199328839613       -3.38345412091375
H           28.21753165817358       -4.98608597671831       -1.88935484085916
H           27.17289907687813       -3.07163738882296       -3.31662299926214
H           25.28072785646100       -1.57732753841215       -2.10740048314263
H           25.34335916427625        1.39018041558105        2.26518135806757
H           27.25532288923587        2.89268591539163        3.43130610079777
H           28.12497378086792        4.84844906348741        1.98613129678542
H           28.12232899035322        6.77355434845983        3.49377336341248
H           30.67205636642948        7.18594984271877        6.08873533067910
H           29.65483418600799        8.75751486846069        4.28446528847556
H           29.46437749054523        9.10422337474260        6.02318831680603
H           28.14788740679372        8.32261020214308        5.13182666528394
H           31.39495349361837        5.04911823720854        5.68309256037402
H           31.37705169598521        3.11014523849390        4.16720476856402
H           32.22726849828921        4.06553631482491        1.88619418238579
H           34.11368794197806        2.58288919426050        0.64873501062908
C           23.71427884862293       -0.04691971706631        0.07324488087323
C           24.93106181115364       -0.06153432964367        0.06195461874832

          :  Hamiltonian                  GFN1-xTB          :
         :: total energy            -220.261233800855 Eh    ::
         :: gradient norm              0.000806227269 Eh/a0 ::
         :: HOMO-LUMO gap              0.013552178566 eV    ::
         :: SCC energy              -223.639138186121 Eh    ::
         :: repulsion energy           3.494143326348 Eh    ::

    * Orbital Energies and Occupations

         #    Occupation            Energy/Eh            Energy/eV
      -------------------------------------------------------------
         1        2.0000           -0.7787097             -21.1898
       ...           ...                  ...                  ...
       192        2.0000           -0.3906840             -10.6311
       193        2.0000           -0.3906755             -10.6308
       194        2.0000           -0.3854457             -10.4885
       195        2.0000           -0.3854280             -10.4880
       196        2.0000           -0.3820385             -10.3958
       197        2.0000           -0.3818897             -10.3917
       198        2.0000           -0.3815423             -10.3823
       199        1.9999           -0.3788512             -10.3091
       200        1.9999           -0.3788466             -10.3089
       201        1.9999           -0.3787515             -10.3064
       202        1.9999           -0.3787480             -10.3063
       203        1.8857           -0.3722800             -10.1303
       204        1.1873           -0.3699774             -10.0676 (HOMO)
       205        0.9276           -0.3694794             -10.0540 (LUMO)
       206                         -0.3270202              -8.8987
       207                         -0.3159139              -8.5965
       208                         -0.3158940              -8.5959
       209                         -0.3111338              -8.4664
       210                         -0.2864025              -7.7934
       211                         -0.2800566              -7.6207
       212                         -0.2800275              -7.6199
       213                         -0.2778791              -7.5615
       214                         -0.2553989              -6.9498
       215                         -0.2553936              -6.9496
       ...                                ...                  ...
       446                          1.3535793              36.8328
      -------------------------------------------------------------
                  HL-Gap            0.0004980 Eh            0.0136 eV

Wiberg/Mayer (AO) data.
largest (>0.10) Wiberg bond orders for each atom

     #   Z sym  total        # sym  WBO       # sym  WBO       # sym  WBO
 ---------------------------------------------------------------------------
     1  27 Co   3.058 --     7 N    0.639    27 N    0.634    41 N    0.633
                            20 N    0.630
     2   6 C    3.926 --     3 C    1.364    40 C    1.363    42 H    0.970
     3   6 C    3.926 --     2 C    1.364     7 N    1.200     4 C    1.178
     4   6 C    3.958 --     5 C    1.644     3 C    1.178    43 H    0.975
     5   6 C    3.963 --     4 C    1.644     6 C    1.179    44 H    0.973
     6   6 C    3.919 --     8 C    1.312     7 N    1.216     5 C    1.179
     7   7 N    3.341 --     6 C    1.216     3 C    1.200     1 Co   0.639
     8   6 C    3.930 --    17 C    1.325     6 C    1.312     9 C    1.041
     9   6 C    3.985 --    16 C    1.380    10 C    1.370     8 C    1.041
    10   6 C    3.985 --    11 C    1.479     9 C    1.370    45 H    0.972
    11   6 C    3.988 --    10 C    1.479    12 C    1.343    46 H    0.971
    12   6 C    3.950 --    15 C    1.351    11 C    1.343    13 N    1.111
    13   7 N    3.179 --    12 C    1.111    14 C    0.971    47 H    0.931
    14   6 C    3.967 --    50 H    0.990    48 H    0.986    49 H    0.984
                            13 N    0.971
    15   6 C    3.988 --    16 C    1.467    12 C    1.351    51 H    0.970
    16   6 C    3.985 --    15 C    1.467     9 C    1.380    52 H    0.972
    17   6 C    3.917 --     8 C    1.325    20 N    1.197    18 C    1.185
    18   6 C    3.959 --    19 C    1.632    17 C    1.185    53 H    0.973
    19   6 C    3.960 --    18 C    1.632    21 C    1.193    54 H    0.972
    20   7 N    3.344 --    21 C    1.229    17 C    1.197     1 Co   0.630
    21   6 C    3.911 --    22 C    1.262    20 N    1.229    19 C    1.193
    22   6 C    3.930 --    21 C    1.262    23 C    1.261   133 C    1.181
    23   6 C    3.911 --    22 C    1.261    27 N    1.231    24 C    1.192
    24   6 C    3.961 --    25 C    1.633    23 C    1.192    55 H    0.972
    25   6 C    3.960 --    24 C    1.633    26 C    1.184    56 H    0.973
    26   6 C    3.917 --    28 C    1.328    27 N    1.195    25 C    1.184
    27   7 N    3.343 --    23 C    1.231    26 C    1.195     1 Co   0.634
    28   6 C    3.930 --    26 C    1.328    37 C    1.309    29 C    1.042
    29   6 C    3.985 --    30 C    1.380    36 C    1.370    28 C    1.042
    30   6 C    3.985 --    31 C    1.467    29 C    1.380    57 H    0.972
    31   6 C    3.988 --    30 C    1.467    32 C    1.351    58 H    0.970
    32   6 C    3.950 --    31 C    1.351    35 C    1.343    33 N    1.112
    33   7 N    3.179 --    32 C    1.112    34 C    0.971    59 H    0.931
    34   6 C    3.967 --    61 H    0.990    62 H    0.986    60 H    0.984
                            33 N    0.971
    35   6 C    3.988 --    36 C    1.479    32 C    1.343    63 H    0.971
    36   6 C    3.985 --    35 C    1.479    29 C    1.370    64 H    0.972
    37   6 C    3.919 --    28 C    1.309    41 N    1.217    38 C    1.181
    38   6 C    3.963 --    39 C    1.642    37 C    1.181    65 H    0.973
    39   6 C    3.958 --    38 C    1.642    40 C    1.178    66 H    0.975
    40   6 C    3.926 --     2 C    1.363    41 N    1.200    39 C    1.178
    41   7 N    3.342 --    37 C    1.217    40 C    1.200     1 Co   0.633
    42   1 H    1.000 --     2 C    0.970
    43   1 H    0.998 --     4 C    0.975
    44   1 H    1.005 --     5 C    0.973
    45   1 H    1.006 --    10 C    0.972
    46   1 H    0.999 --    11 C    0.971
    47   1 H    0.965 --    13 N    0.931
    48   1 H    1.012 --    14 C    0.986
    49   1 H    1.003 --    14 C    0.984
    50   1 H    1.007 --    14 C    0.990
    51   1 H    1.001 --    15 C    0.970
    52   1 H    1.006 --    16 C    0.972
    53   1 H    1.005 --    18 C    0.973
    54   1 H    1.004 --    19 C    0.972
    55   1 H    1.003 --    24 C    0.972
    56   1 H    1.005 --    25 C    0.973
    57   1 H    1.006 --    30 C    0.972
    58   1 H    1.001 --    31 C    0.970
    59   1 H    0.965 --    33 N    0.931
    60   1 H    1.003 --    34 C    0.984
    61   1 H    1.007 --    34 C    0.990
    62   1 H    1.012 --    34 C    0.986
    63   1 H    0.999 --    35 C    0.971
    64   1 H    1.005 --    36 C    0.972
    65   1 H    1.005 --    38 C    0.973
    66   1 H    0.998 --    39 C    0.975
    67  27 Co   3.058 --    73 N    0.639    93 N    0.634   107 N    0.633
                            86 N    0.630
    68   6 C    3.926 --    69 C    1.364   106 C    1.363   108 H    0.970
    69   6 C    3.926 --    68 C    1.364    73 N    1.200    70 C    1.178
    70   6 C    3.958 --    71 C    1.644    69 C    1.178   109 H    0.975
    71   6 C    3.963 --    70 C    1.644    72 C    1.179   110 H    0.973
    72   6 C    3.919 --    74 C    1.312    73 N    1.216    71 C    1.179
    73   7 N    3.341 --    72 C    1.216    69 C    1.200    67 Co   0.639
    74   6 C    3.930 --    83 C    1.325    72 C    1.312    75 C    1.041
    75   6 C    3.985 --    82 C    1.380    76 C    1.370    74 C    1.041
    76   6 C    3.985 --    77 C    1.479    75 C    1.370   111 H    0.972
    77   6 C    3.988 --    76 C    1.479    78 C    1.343   112 H    0.971
    78   6 C    3.950 --    81 C    1.351    77 C    1.343    79 N    1.111
    79   7 N    3.179 --    78 C    1.111    80 C    0.971   113 H    0.931
    80   6 C    3.967 --   116 H    0.990   114 H    0.986   115 H    0.984
                            79 N    0.971
    81   6 C    3.988 --    82 C    1.467    78 C    1.351   117 H    0.970
    82   6 C    3.985 --    81 C    1.467    75 C    1.380   118 H    0.972
    83   6 C    3.917 --    74 C    1.325    86 N    1.197    84 C    1.185
    84   6 C    3.959 --    85 C    1.632    83 C    1.185   119 H    0.973
    85   6 C    3.960 --    84 C    1.632    87 C    1.193   120 H    0.972
    86   7 N    3.344 --    87 C    1.229    83 C    1.197    67 Co   0.630
    87   6 C    3.911 --    88 C    1.262    86 N    1.229    85 C    1.193
    88   6 C    3.930 --    87 C    1.262    89 C    1.261   134 C    1.181
    89   6 C    3.911 --    88 C    1.261    93 N    1.231    90 C    1.192
    90   6 C    3.961 --    91 C    1.633    89 C    1.192   121 H    0.972
    91   6 C    3.960 --    90 C    1.633    92 C    1.184   122 H    0.973
    92   6 C    3.917 --    94 C    1.328    93 N    1.195    91 C    1.184
    93   7 N    3.343 --    89 C    1.231    92 C    1.195    67 Co   0.634
    94   6 C    3.930 --    92 C    1.328   103 C    1.309    95 C    1.042
    95   6 C    3.985 --    96 C    1.380   102 C    1.370    94 C    1.042
    96   6 C    3.985 --    97 C    1.467    95 C    1.380   123 H    0.972
    97   6 C    3.988 --    96 C    1.467    98 C    1.351   124 H    0.970
    98   6 C    3.950 --    97 C    1.351   101 C    1.343    99 N    1.112
    99   7 N    3.179 --    98 C    1.112   100 C    0.971   125 H    0.931
   100   6 C    3.967 --   127 H    0.990   128 H    0.986   126 H    0.984
                            99 N    0.971
   101   6 C    3.988 --   102 C    1.479    98 C    1.343   129 H    0.971
   102   6 C    3.985 --   101 C    1.479    95 C    1.370   130 H    0.972
   103   6 C    3.919 --    94 C    1.309   107 N    1.217   104 C    1.181
   104   6 C    3.963 --   105 C    1.643   103 C    1.181   131 H    0.973
   105   6 C    3.958 --   104 C    1.643   106 C    1.178   132 H    0.975
   106   6 C    3.926 --    68 C    1.363   107 N    1.200   105 C    1.178
   107   7 N    3.342 --   103 C    1.217   106 C    1.200    67 Co   0.633
   108   1 H    1.000 --    68 C    0.970
   109   1 H    0.998 --    70 C    0.975
   110   1 H    1.005 --    71 C    0.973
   111   1 H    1.006 --    76 C    0.972
   112   1 H    0.999 --    77 C    0.971
   113   1 H    0.965 --    79 N    0.931
   114   1 H    1.012 --    80 C    0.986
   115   1 H    1.003 --    80 C    0.984
   116   1 H    1.007 --    80 C    0.990
   117   1 H    1.001 --    81 C    0.970
   118   1 H    1.006 --    82 C    0.972
   119   1 H    1.005 --    84 C    0.973
   120   1 H    1.004 --    85 C    0.972
   121   1 H    1.003 --    90 C    0.972
   122   1 H    1.005 --    91 C    0.973
   123   1 H    1.006 --    96 C    0.972
   124   1 H    1.001 --    97 C    0.970
   125   1 H    0.965 --    99 N    0.931
   126   1 H    1.003 --   100 C    0.984
   127   1 H    1.007 --   100 C    0.990
   128   1 H    1.012 --   100 C    0.986
   129   1 H    0.999 --   101 C    0.971
   130   1 H    1.005 --   102 C    0.972
   131   1 H    1.005 --   104 C    0.973
   132   1 H    0.998 --   105 C    0.975
   133   6 C    3.929 --   134 C    2.568    22 C    1.181
   134   6 C    3.929 --   133 C    2.568    88 C    1.181
 ---------------------------------------------------------------------------

           -------------------------------------------------
          | TOTAL ENERGY             -220.261233800855 Eh   |
          | GRADIENT NORM               0.000806227269 Eh/α |
          | HOMO-LUMO GAP               0.013552178566 eV   |
           -------------------------------------------------

 * finished run on 2022/07/29 at 21:52:07.699
