   * xtb version 6.5.1 (b24c23e) compiled by 'conda@728c89f4b128' on 2022-07-12
          program call               : xtb Fe_Py_C4_3.xyz --gfn 1 --opt -T 48

   ID    Z sym.   atoms
    1   26 Fe     1, 55, 117
    2    6 C      2-6, 8-11, 13-17, 19-24, 26-29, 31-36, 56-60, 62-65, 67-71,
                  73-78, 80-83, 85-90, 109-116, 118-122, 124-127, 129-133,
                  135-140, 142-145, 147-152
    3    7 N      7, 12, 18, 25, 30, 37, 61, 66, 72, 79, 84, 91, 123, 128,
                  134, 141, 146, 153
    4    1 H      38-54, 92-108, 154-169

          :  Hamiltonian                  GFN1-xTB          :
 * total energy  :  -299.4859729 Eh     change       -0.7470589E-08 Eh
 * total energy  :  -299.7887431 Eh     change       -0.3027701E+00 Eh
 * total energy  :  -299.8980619 Eh     change       -0.1093189E+00 Eh
 * total energy  :  -299.9641426 Eh     change       -0.6608064E-01 Eh
 * total energy  :  -300.0235652 Eh     change       -0.5942267E-01 Eh
 * total energy  :  -300.0834067 Eh     change       -0.5984148E-01 Eh
 * total energy  :  -300.1177853 Eh     change       -0.3437862E-01 Eh
 * total energy  :  -300.1399764 Eh     change       -0.2219110E-01 Eh
 * total energy  :  -300.1523721 Eh     change       -0.1239566E-01 Eh
 * total energy  :  -300.1708762 Eh     change       -0.1850411E-01 Eh
 * total energy  :  -300.2940624 Eh     change       -0.1341140E-04 Eh
 * total energy  :  -300.2940788 Eh     change       -0.1637325E-04 Eh
 * total energy  :  -300.2940960 Eh     change       -0.1724825E-04 Eh
 * total energy  :  -300.2941118 Eh     change       -0.1574440E-04 Eh
 * total energy  :  -300.2941259 Eh     change       -0.1417936E-04 Eh
 * total energy  :  -300.2941406 Eh     change       -0.1464992E-04 Eh
 * total energy  :  -300.2941573 Eh     change       -0.1671824E-04 Eh
 * total energy  :  -300.2941750 Eh     change       -0.1771930E-04 Eh
 * total energy  :  -300.2941785 Eh     change       -0.3465395E-05 Eh
   *** GEOMETRY OPTIMIZATION CONVERGED AFTER 94 ITERATIONS ***

 final structure:
================
169
 xtb: 6.5.1 (b24c23e)
Fe          24.76333223028948       -0.00848251942978       -0.00684146986443
C           21.37453920735058       -0.02134149573899       -0.02070829850034
C           22.02302705735437       -1.23661880271617        0.05764647049449
C           21.34325463141543       -2.49454199422673        0.13479808448810
C           22.29631445105256       -3.44065252059892        0.30468246209418
C           23.55852070537577       -2.75899859787408        0.32670778153482
N           23.37833889002976       -1.41339204171970        0.15395161274068
C           24.77111299979939       -3.38139060733183        0.60260075779822
C           24.77309221878294       -4.84213202092534        0.85396492391502
C           25.10337712070288       -5.36267998195406        2.10399551761910
C           25.09020052732218       -6.73661821361309        2.28711938718658
N           24.78014089664250       -7.59329055050033        1.31950709890341
C           24.46598509294388       -7.10435053453938        0.12426728785984
C           24.44552938883205       -5.74680789038358       -0.15467291378100
C           25.97772883514128       -2.69895476724152        0.65297710630975
C           27.23902053661644       -3.32184607552410        0.92637006470208
C           28.18839764961138       -2.36902564940950        0.76685188082133
N           26.15899137979439       -1.37118318841844        0.34577797504044
C           27.50641237899153       -1.17107198503730        0.38756462354705
C           28.17174953616076        0.00171552568309        0.00958313041601
C           27.50051166116378        1.17156911166189       -0.36585657991134
C           28.17466266179531        2.36578151569204       -0.76990449706325
C           27.22041207475593        3.31330367394357       -0.93384580194554
C           25.96606480997758        2.69434834086749       -0.62297909064142
N           26.15265369043220        1.36829695059763       -0.31338587662737
C           24.75273500746814        3.36713257660024       -0.60424294150892
C           24.74915233011867        4.82640225804609       -0.85666412296192
C           24.08104143846518        5.37182731169931       -1.95211736009727
C           24.10935997649324        6.74404541081987       -2.14508453619539
N           24.74242072767291        7.57779461370931       -1.32616509432555
C           25.37923765135537        7.06596016076314       -0.27781845198295
C           25.41434403003828        5.70757360405726       -0.00508111141710
C           23.53989429279275        2.73132284976258       -0.36103916656668
C           22.27632344617260        3.40800311322279       -0.30260902637502
C           21.32874071525339        2.45400739812936       -0.14540578263539
C           22.01504441204166        1.19827674972830       -0.09527978644214
N           23.36919595161529        1.38395924335917       -0.19345316713981
H           20.29035436431365       -0.02482537817767       -0.02001540499029
H           20.27329957960982       -2.61615905100848        0.07674502539875
H           22.16826577788159       -4.50440120990282        0.42231737115431
H           25.35291457772950       -4.70070347862368        2.92455123657404
H           25.34051697484376       -7.16690126185257        3.25238101008957
H           24.21879093857106       -7.82950564505915       -0.64554605982088
H           24.19276580785621       -5.39286268628881       -1.14698652122902
H           27.37228555530957       -4.35821234921258        1.19029752598771
H           29.25704828034585       -2.45795525733349        0.87792434081096
H           29.24092950429803        2.45297596684872       -0.90327518015585
H           27.34334293213332        4.33877094731716       -1.24191146648865
H           23.56044483217578        4.72896149211336       -2.65181352734281
H           23.60135104610696        7.19235646080930       -2.99391199009243
H           25.88467069001451        7.77276816378246        0.37373509014556
H           25.93805178004003        5.33509852230564        0.86722264892069
H           22.14504618950155        4.47564894767908       -0.37140197385716
H           20.25939219993145        2.57001723117979       -0.06793275973918
Fe          51.59846718153528        0.05245813844089        0.00342155034663
C           54.98910587984567        0.07842024277090        0.00802132803583
C           54.33675258553848        1.28214446839781       -0.16096841570892
C           55.01196810885474        2.53628547696136       -0.30806128833009
C           54.05524766889133        3.46784872932896       -0.53047367550514
C           52.79738294337655        2.77832198955140       -0.52825083651334
N           52.98070907256677        1.44764236881258       -0.26785629696354
C           51.57603761871294        3.39042153683216       -0.78877165241510
C           51.56429161859486        4.83236259890385       -1.12756475148803
C           50.92225571444371        5.75980615973479       -0.30812383651406
C           50.93848162103588        7.09938196474857       -0.66309732193247
N           51.53566413918229        7.54999147436817       -1.76162418580363
C           52.14684165852074        6.67159260353591       -2.54981674854362
C           52.19169435452845        5.31366414734934       -2.27562276002889
C           50.36662274647045        2.71278421875119       -0.74308410804665
C           49.10334209270739        3.31112034859789       -1.05811310541520
C           48.15771894619836        2.36802002018057       -0.83174164020879
N           50.19314227842874        1.40248074056187       -0.36520735026042
C           48.84650973845682        1.19658660595233       -0.38786450272615
C           48.18734846720981        0.03073940012804        0.02226750256997
C           48.86398830874762       -1.12700996227390        0.42622930158671
C           48.19122509817719       -2.32055865137214        0.83450018333203
C           49.15037878345090       -3.25326389765486        1.04545111446339
C           50.40772253921594       -2.62183566894833        0.77352707345309
N           50.21411352963081       -1.30980761039661        0.41078104130650
C           51.62507695960644       -3.28616920274487        0.78628148830550
C           51.63701284162389       -4.73276126204011        1.10979165677348
C           51.99436029954738       -5.68075093607877        0.15236063447688
C           51.98226009928965       -7.02356072659546        0.49549719223214
N           51.64951983646054       -7.45834123099871        1.70654911544954
C           51.31215677926076       -6.55999220985148        2.62595854129049
C           51.28809167223631       -5.19652246644959        2.37693112894549
C           52.83484050801373       -2.65995075905047        0.50691758620470
C           54.10604069050326       -3.32348187398950        0.54953261968789
C           55.04914223080370       -2.37615652623675        0.33671090013980
C           54.35380885552034       -1.13570063898296        0.16842002655822
N           52.99957953583050       -1.32457288086972        0.25674266167016
H           56.07326062779384        0.08688182542075        0.01545345451341
H           56.08062717472802        2.66676087737315       -0.24560785034428
H           54.17635984342007        4.52838407474614       -0.68027220317884
H           50.43032953358646        5.43763779347439        0.60186040691113
H           50.45027253135669        7.84164664828479       -0.03844725918091
H           52.62224700762969        7.07040094205881       -3.44112236122367
H           52.69326366517168        4.63224169429007       -2.95230497343654
H           48.96884880006171        4.32025775698300       -1.41175309126788
H           47.08887634781725        2.44367380670460       -0.95032316840710
H           47.12197474812590       -2.42027234095471        0.92947277386797
H           49.02703753590387       -4.28123738927396        1.34463411188988
H           52.26299444887572       -5.37149728827335       -0.85063199614823
H           52.25095777958739       -7.78186929835885       -0.23408673699884
H           51.04785767983817       -6.94649019840721        3.60589782514920
H           51.01510645381167       -4.49914011689130        3.15984168561895
H           54.24571192919549       -4.37608515878139        0.73483590353358
H           56.12144835786897       -2.48555723738980        0.30282272846637
C           30.79670208667102       -0.00619535240030       -0.00408496444171
C           29.57288775658289        0.00289938995973        0.00478557548868
C           32.14283884208545       -0.01068781084664       -0.01544477230208
C           33.36689928312954       -0.01881606043493       -0.02162411061530
C           44.21801555670047        0.01594120028064        0.00440557326319
C           42.99360501751701        0.01069557114231       -0.00910674378660
C           45.56314205955553        0.02200250861335        0.01544447002299
C           46.78742095984823        0.02123215509944        0.02000196157731
Fe          38.18118113266535       -0.01985799596044       -0.03606409775963
C           34.76697019972311       -0.02355142928731       -0.02981634131388
C           35.43945961213443       -0.90180975115917        0.82998801607045
C           34.76800774165115       -1.76991589461432        1.74496164312314
C           35.72511063991467       -2.53047196666048        2.33033942547723
C           36.97576007009668       -2.12862619913318        1.76030857315434
N           36.78700104354035       -1.10045323885018        0.86958475559919
C           38.19004444954211       -2.74433138874023        2.03799860997974
C           38.19710704687562       -3.91437287676574        2.94549199994076
C           37.50880768079750       -5.08420417809781        2.62692970618568
C           37.54885383611698       -6.15212384284964        3.50959550827130
N           38.21182884367243       -6.11568249071041        4.66085906632843
C           38.86775327792195       -5.00289664712959        4.97344278916007
C           38.89323807593320       -3.88591466855154        4.15331779575440
C           39.39978354557714       -2.31166158357336        1.50962253486440
C           40.65374675036875       -2.96352962488927        1.74027175898662
C           41.60594321563860       -2.19235268451583        1.16068134992474
N           39.58165522924433       -1.17884830046507        0.75445886859040
C           40.92813969238258       -1.08040304643854        0.57274809742289
C           41.59483650037537        0.00051920291639       -0.02039321109096
C           40.92010173887277        1.06844209702633       -0.62721689668519
C           41.58951021431110        2.18435450269436       -1.21724969876119
C           40.63407351422509        2.93593861982040       -1.81692531719581
C           39.38630818179443        2.26953872543978       -1.59431416446621
N           39.57451596715563        1.14623644246577       -0.82682341147020
C           38.17571056245041        2.68573897843401       -2.13432843757199
C           38.17663708011877        3.84946040964285       -3.04981897365054
C           38.88230671486190        3.82095390726725       -4.25211991728305
C           38.85030151772104        4.93200106134079       -5.08003722615679
N           38.17941747199361        6.03936347551903       -4.78005907349386
C           37.50773255976022        6.07615918274446       -3.63389664536827
C           37.47319773426072        5.01384183624437       -2.74426223747113
C           36.96491651087970        2.06492288519113       -1.85304778091459
C           35.71119937321021        2.45830040006199       -2.42234579510156
C           34.75738303382030        1.70612537826785       -1.82098954786052
C           35.43420499679220        0.84867945145114       -0.89996397387819
N           36.78142302363899        1.04613437582935       -0.95025007060228
H           33.70241853378607       -1.78493024046441        1.90755046043147
H           35.60450803908078       -3.29302652197034        3.08224359963958
H           36.96406270827468       -5.16223606625091        1.69368685951771
H           37.02592590684961       -7.07619951425421        3.28143712528232
H           39.39728035126559       -5.00325541354365        5.92162709634506
H           39.43293773229829       -2.99566897126510        4.45338989887634
H           40.77963557918754       -3.89137817909799        2.27384176150807
H           42.67212542424185       -2.34849825138140        1.12869630541577
H           42.65305533129056        2.35523430316664       -1.17417739418716
H           40.75359226674790        3.86011330010771       -2.35828185356894
H           39.43456048851476        2.93502170215371       -4.54189108739313
H           39.38745569209900        4.93224447490155       -6.02391030560414
H           36.97183759263550        6.99534950115022       -3.41634228004273
H           36.92081428379294        5.09241229964319       -1.81555254987917
H           35.58603790048317        3.21047167449557       -3.18390902813101
H           33.69093671717420        1.71883067082455       -1.97805715329308

          :  Hamiltonian                  GFN1-xTB          :
         :: total energy            -300.294178483232 Eh    ::
         :: gradient norm              0.000716361253 Eh/a0 ::
         :: HOMO-LUMO gap              0.051254602536 eV    ::
         :: SCC energy              -305.084886732581 Eh    ::
         :: repulsion energy           4.947464246493 Eh    ::

    * Orbital Energies and Occupations

         #    Occupation            Energy/Eh            Energy/eV
      -------------------------------------------------------------
         1        2.0000           -0.7792839             -21.2054
       ...           ...                  ...                  ...
       266        2.0000           -0.4037895             -10.9877
       267        2.0000           -0.4033248             -10.9750
       268        1.9996           -0.3983208             -10.8389
       269        1.9924           -0.3955727             -10.7641
       270        1.9921           -0.3955318             -10.7630
       271        1.9918           -0.3954999             -10.7621
       272        1.9678           -0.3941860             -10.7263
       273        1.9603           -0.3939846             -10.7209
       274        1.9531           -0.3938215             -10.7164
       275        1.9497           -0.3937535             -10.7146
       276        1.9494           -0.3937485             -10.7144
       277        1.9456           -0.3936776             -10.7125
       278        1.2487           -0.3907622             -10.6332 (HOMO)
       279        0.3725           -0.3888786             -10.5819 (LUMO)
       280        0.3401           -0.3887733             -10.5791
       281        0.3370           -0.3887629             -10.5788
       282                         -0.3514825              -9.5643
       283                         -0.3400094              -9.2521
       284                         -0.3384546              -9.2098
       285                         -0.3352825              -9.1235
       286                         -0.3349252              -9.1138
       287                         -0.3320063              -9.0344
       288                         -0.3126698              -8.5082
       289                         -0.3091007              -8.4111
       ...                                ...                  ...
       591                          1.5024684              40.8842
      -------------------------------------------------------------
                  HL-Gap            0.0018836 Eh            0.0513 eV

Wiberg/Mayer (AO) data.
largest (>0.10) Wiberg bond orders for each atom

     #   Z sym  total        # sym  WBO       # sym  WBO       # sym  WBO
 ---------------------------------------------------------------------------
     1  26 Fe   3.100 --    37 N    0.666     7 N    0.665    25 N    0.658
                            18 N    0.657
     2   6 C    3.918 --    36 C    1.363     3 C    1.363    38 H    0.970
     3   6 C    3.924 --     2 C    1.363     7 N    1.209     4 C    1.172
     4   6 C    3.959 --     5 C    1.651     3 C    1.172    39 H    0.975
     5   6 C    3.961 --     4 C    1.651     6 C    1.174    40 H    0.973
     6   6 C    3.920 --     8 C    1.314     7 N    1.225     5 C    1.174
     7   7 N    3.379 --     6 C    1.225     3 C    1.209     1 Fe   0.665
     8   6 C    3.921 --    15 C    1.336     6 C    1.314     9 C    1.023
     9   6 C    3.986 --    10 C    1.395    14 C    1.394     8 C    1.023
                            12 N    0.107
    10   6 C    3.987 --    11 C    1.441     9 C    1.395    41 H    0.973
                            13 C    0.109
    11   6 C    3.972 --    10 C    1.441    12 N    1.416    42 H    0.972
                            14 C    0.109
    12   7 N    3.031 --    11 C    1.416    13 C    1.416     9 C    0.107
    13   6 C    3.972 --    14 C    1.441    12 N    1.416    43 H    0.972
                            10 C    0.109
    14   6 C    3.987 --    13 C    1.441     9 C    1.394    44 H    0.973
                            11 C    0.109
    15   6 C    3.918 --     8 C    1.336    18 N    1.199    16 C    1.178
    16   6 C    3.956 --    17 C    1.640    15 C    1.178    45 H    0.973
    17   6 C    3.960 --    16 C    1.640    19 C    1.187    46 H    0.973
    18   7 N    3.377 --    19 C    1.247    15 C    1.199     1 Fe   0.657
    19   6 C    3.904 --    20 C    1.251    18 N    1.247    17 C    1.187
    20   6 C    3.917 --    21 C    1.251    19 C    1.251   110 C    1.202
    21   6 C    3.904 --    20 C    1.251    25 N    1.245    22 C    1.187
    22   6 C    3.960 --    23 C    1.639    21 C    1.187    47 H    0.973
    23   6 C    3.956 --    22 C    1.639    24 C    1.179    48 H    0.973
    24   6 C    3.918 --    26 C    1.334    25 N    1.200    23 C    1.179
    25   7 N    3.377 --    21 C    1.245    24 C    1.200     1 Fe   0.658
    26   6 C    3.921 --    24 C    1.334    33 C    1.312    27 C    1.028
    27   6 C    3.986 --    28 C    1.393    32 C    1.392    26 C    1.028
                            30 N    0.107
    28   6 C    3.987 --    29 C    1.442    27 C    1.393    49 H    0.973
                            31 C    0.109
    29   6 C    3.972 --    28 C    1.442    30 N    1.416    50 H    0.972
                            32 C    0.109
    30   7 N    3.030 --    29 C    1.416    31 C    1.416    27 C    0.107
    31   6 C    3.972 --    32 C    1.442    30 N    1.416    51 H    0.972
                            28 C    0.109
    32   6 C    3.987 --    31 C    1.442    27 C    1.392    52 H    0.973
                            29 C    0.109
    33   6 C    3.921 --    26 C    1.312    37 N    1.225    34 C    1.175
    34   6 C    3.961 --    35 C    1.650    33 C    1.175    53 H    0.973
    35   6 C    3.959 --    34 C    1.650    36 C    1.173    54 H    0.975
    36   6 C    3.924 --     2 C    1.363    37 N    1.208    35 C    1.173
    37   7 N    3.379 --    33 C    1.225    36 C    1.208     1 Fe   0.666
    38   1 H    1.000 --     2 C    0.970
    39   1 H    0.997 --     4 C    0.975
    40   1 H    1.004 --     5 C    0.973
    41   1 H    1.003 --    10 C    0.973
    42   1 H    1.013 --    11 C    0.972
    43   1 H    1.013 --    13 C    0.972
    44   1 H    1.003 --    14 C    0.973
    45   1 H    1.004 --    16 C    0.973
    46   1 H    1.002 --    17 C    0.973
    47   1 H    1.002 --    22 C    0.973
    48   1 H    1.004 --    23 C    0.973
    49   1 H    1.003 --    28 C    0.973
    50   1 H    1.013 --    29 C    0.972
    51   1 H    1.013 --    31 C    0.972
    52   1 H    1.003 --    32 C    0.973
    53   1 H    1.004 --    34 C    0.973
    54   1 H    0.997 --    35 C    0.975
    55  26 Fe   3.090 --    91 N    0.663    61 N    0.663    79 N    0.655
                            72 N    0.655
    56   6 C    3.916 --    57 C    1.363    90 C    1.363    92 H    0.970
    57   6 C    3.924 --    56 C    1.363    61 N    1.209    58 C    1.173
    58   6 C    3.959 --    59 C    1.650    57 C    1.173    93 H    0.975
    59   6 C    3.962 --    58 C    1.650    60 C    1.175    94 H    0.973
    60   6 C    3.921 --    62 C    1.312    61 N    1.226    59 C    1.175
    61   7 N    3.377 --    60 C    1.226    57 C    1.209    55 Fe   0.663
    62   6 C    3.920 --    69 C    1.335    60 C    1.312    63 C    1.027
    63   6 C    3.986 --    68 C    1.393    64 C    1.393    62 C    1.027
                            66 N    0.107
    64   6 C    3.987 --    65 C    1.442    63 C    1.393    95 H    0.973
                            67 C    0.109
    65   6 C    3.972 --    64 C    1.442    66 N    1.416    96 H    0.972
                            68 C    0.109
    66   7 N    3.031 --    67 C    1.416    65 C    1.416    63 C    0.107
    67   6 C    3.972 --    68 C    1.441    66 N    1.416    97 H    0.972
                            64 C    0.109
    68   6 C    3.987 --    67 C    1.441    63 C    1.393    98 H    0.973
                            65 C    0.109
    69   6 C    3.918 --    62 C    1.335    72 N    1.199    70 C    1.179
    70   6 C    3.956 --    71 C    1.639    69 C    1.179    99 H    0.973
    71   6 C    3.960 --    70 C    1.639    73 C    1.188   100 H    0.973
    72   7 N    3.376 --    73 C    1.249    69 C    1.199    55 Fe   0.655
    73   6 C    3.903 --    72 N    1.249    74 C    1.248    71 C    1.188
    74   6 C    3.915 --    75 C    1.248    73 C    1.248   116 C    1.207
    75   6 C    3.903 --    79 N    1.249    74 C    1.248    76 C    1.187
    76   6 C    3.960 --    77 C    1.640    75 C    1.187   101 H    0.973
    77   6 C    3.956 --    76 C    1.640    78 C    1.178   102 H    0.973
    78   6 C    3.918 --    80 C    1.337    79 N    1.199    77 C    1.178
    79   7 N    3.376 --    75 C    1.249    78 C    1.199    55 Fe   0.655
    80   6 C    3.919 --    78 C    1.337    87 C    1.313    81 C    1.023
    81   6 C    3.986 --    86 C    1.395    82 C    1.394    80 C    1.023
                            84 N    0.107
    82   6 C    3.987 --    83 C    1.441    81 C    1.394   103 H    0.973
                            85 C    0.109
    83   6 C    3.972 --    82 C    1.441    84 N    1.416   104 H    0.972
                            86 C    0.109
    84   7 N    3.031 --    85 C    1.417    83 C    1.416    81 C    0.107
    85   6 C    3.972 --    86 C    1.441    84 N    1.417   105 H    0.972
                            82 C    0.109
    86   6 C    3.987 --    85 C    1.441    81 C    1.395   106 H    0.973
                            83 C    0.109
    87   6 C    3.920 --    80 C    1.313    91 N    1.225    88 C    1.174
    88   6 C    3.962 --    89 C    1.651    87 C    1.174   107 H    0.973
    89   6 C    3.959 --    88 C    1.651    90 C    1.172   108 H    0.975
    90   6 C    3.924 --    56 C    1.363    91 N    1.210    89 C    1.172
    91   7 N    3.377 --    87 C    1.225    90 C    1.210    55 Fe   0.663
    92   1 H    1.000 --    56 C    0.970
    93   1 H    0.997 --    58 C    0.975
    94   1 H    1.004 --    59 C    0.973
    95   1 H    1.003 --    64 C    0.973
    96   1 H    1.013 --    65 C    0.972
    97   1 H    1.013 --    67 C    0.972
    98   1 H    1.003 --    68 C    0.973
    99   1 H    1.004 --    70 C    0.973
   100   1 H    1.002 --    71 C    0.973
   101   1 H    1.002 --    76 C    0.973
   102   1 H    1.004 --    77 C    0.973
   103   1 H    1.003 --    82 C    0.973
   104   1 H    1.013 --    83 C    0.972
   105   1 H    1.013 --    85 C    0.972
   106   1 H    1.003 --    86 C    0.973
   107   1 H    1.004 --    88 C    0.973
   108   1 H    0.997 --    89 C    0.975
   109   6 C    3.923 --   110 C    2.447   111 C    1.326
   110   6 C    3.909 --   109 C    2.447    20 C    1.202   112 C    0.195
   111   6 C    3.917 --   112 C    2.444   109 C    1.326
   112   6 C    3.912 --   111 C    2.444   118 C    1.207   110 C    0.195
   113   6 C    3.918 --   114 C    2.439   115 C    1.332
   114   6 C    3.913 --   113 C    2.439   136 C    1.212   116 C    0.195
   115   6 C    3.922 --   116 C    2.441   113 C    1.332
   116   6 C    3.910 --   115 C    2.441    74 C    1.207   114 C    0.195
   117  26 Fe   3.049 --   153 N    0.647   141 N    0.647   134 N    0.646
                           123 N    0.646
   118   6 C    3.901 --   119 C    1.247   152 C    1.246   112 C    1.207
   119   6 C    3.905 --   123 N    1.248   118 C    1.247   120 C    1.191
   120   6 C    3.959 --   121 C    1.634   119 C    1.191   154 H    0.973
   121   6 C    3.958 --   120 C    1.634   122 C    1.183   155 H    0.973
   122   6 C    3.916 --   124 C    1.321   123 N    1.206   121 C    1.183
   123   7 N    3.365 --   119 C    1.248   122 C    1.206   117 Fe   0.646
   124   6 C    3.911 --   131 C    1.322   122 C    1.321   125 C    1.029
   125   6 C    3.986 --   126 C    1.392   130 C    1.392   124 C    1.029
                           128 N    0.106
   126   6 C    3.986 --   127 C    1.441   125 C    1.392   156 H    0.973
                           129 C    0.109
   127   6 C    3.972 --   126 C    1.441   128 N    1.416   157 H    0.972
                           130 C    0.109
   128   7 N    3.030 --   127 C    1.416   129 C    1.416   125 C    0.106
   129   6 C    3.972 --   130 C    1.441   128 N    1.416   158 H    0.972
                           126 C    0.109
   130   6 C    3.986 --   129 C    1.441   125 C    1.392   159 H    0.973
                           127 C    0.109
   131   6 C    3.916 --   124 C    1.322   134 N    1.204   132 C    1.183
   132   6 C    3.958 --   133 C    1.634   131 C    1.183   160 H    0.973
   133   6 C    3.959 --   132 C    1.634   135 C    1.191   161 H    0.973
   134   7 N    3.365 --   135 C    1.250   131 C    1.204   117 Fe   0.646
   135   6 C    3.904 --   134 N    1.250   136 C    1.244   133 C    1.191
   136   6 C    3.901 --   137 C    1.245   135 C    1.244   114 C    1.212
   137   6 C    3.904 --   141 N    1.249   136 C    1.245   138 C    1.191
   138   6 C    3.959 --   139 C    1.633   137 C    1.191   162 H    0.973
   139   6 C    3.958 --   138 C    1.633   140 C    1.183   163 H    0.973
   140   6 C    3.916 --   142 C    1.322   141 N    1.205   139 C    1.183
   141   7 N    3.365 --   137 C    1.249   140 C    1.205   117 Fe   0.647
   142   6 C    3.911 --   140 C    1.322   149 C    1.322   143 C    1.029
   143   6 C    3.986 --   148 C    1.392   144 C    1.392   142 C    1.029
                           146 N    0.106
   144   6 C    3.986 --   145 C    1.441   143 C    1.392   164 H    0.973
                           147 C    0.109
   145   6 C    3.972 --   144 C    1.441   146 N    1.416   165 H    0.972
                           148 C    0.109
   146   7 N    3.030 --   147 C    1.416   145 C    1.416   143 C    0.106
   147   6 C    3.972 --   148 C    1.441   146 N    1.416   166 H    0.972
                           144 C    0.109
   148   6 C    3.986 --   147 C    1.441   143 C    1.392   167 H    0.973
                           145 C    0.109
   149   6 C    3.916 --   142 C    1.322   153 N    1.205   150 C    1.183
   150   6 C    3.958 --   151 C    1.634   149 C    1.183   168 H    0.973
   151   6 C    3.959 --   150 C    1.634   152 C    1.191   169 H    0.973
   152   6 C    3.905 --   153 N    1.249   118 C    1.246   151 C    1.191
   153   7 N    3.365 --   152 C    1.249   149 C    1.205   117 Fe   0.647
   154   1 H    1.001 --   120 C    0.973
   155   1 H    1.004 --   121 C    0.973
   156   1 H    1.003 --   126 C    0.973
   157   1 H    1.013 --   127 C    0.972
   158   1 H    1.013 --   129 C    0.972
   159   1 H    1.003 --   130 C    0.973
   160   1 H    1.004 --   132 C    0.973
   161   1 H    1.002 --   133 C    0.973
   162   1 H    1.001 --   138 C    0.973
   163   1 H    1.004 --   139 C    0.973
   164   1 H    1.003 --   144 C    0.973
   165   1 H    1.013 --   145 C    0.972
   166   1 H    1.013 --   147 C    0.972
   167   1 H    1.004 --   148 C    0.973
   168   1 H    1.004 --   150 C    0.973
   169   1 H    1.001 --   151 C    0.973
 ---------------------------------------------------------------------------

           -------------------------------------------------
          | TOTAL ENERGY             -300.294178483232 Eh   |
          | GRADIENT NORM               0.000716361253 Eh/α |
          | HOMO-LUMO GAP               0.051254602536 eV   |
           -------------------------------------------------

 * finished run on 2022/07/29 at 16:50:17.846
