   * xtb version 6.5.1 (b24c23e) compiled by 'conda@728c89f4b128' on 2022-07-12
          program call               : xtb Cu_PhNO2_C8_3.xyz --gfn 1 --opt -T 48

   ID    Z sym.   atoms
    1   29 Cu     1, 61, 137
    2    6 C      2-6, 8-12, 16-20, 22-27, 29-33, 37-42, 62-66, 68-72, 76-80,
                  82-87, 89-93, 97-102, 121-136, 138-142, 144-148, 152-156,
                  158-163, 165-169, 173-178
    3    7 N      7, 13, 21, 28, 34, 43, 67, 73, 81, 88, 94, 103, 143, 149,
                  157, 164, 170, 179
    4    8 O      14, 15, 35, 36, 74, 75, 95, 96, 150, 151, 171, 172
    5    1 H      44-60, 104-120, 180-195

          :  Hamiltonian                  GFN1-xTB          :
 * total energy  :  -388.2539923 Eh     change        0.1429049E-07 Eh
 * total energy  :  -389.2148423 Eh     change       -0.9608500E+00 Eh
 * total energy  :  -389.5108218 Eh     change       -0.2959795E+00 Eh
 * total energy  :  -389.6583133 Eh     change       -0.1474915E+00 Eh
 * total energy  :  -389.7579407 Eh     change       -0.9962732E-01 Eh
 * total energy  :  -389.8469505 Eh     change       -0.8900989E-01 Eh
 * total energy  :  -389.8979039 Eh     change       -0.5095332E-01 Eh
 * total energy  :  -389.9300084 Eh     change       -0.3210456E-01 Eh
 * total energy  :  -389.9525675 Eh     change       -0.2255911E-01 Eh
 * total energy  :  -389.9647676 Eh     change       -0.1220011E-01 Eh
 * total energy  :  -390.0011690 Eh     change       -0.9985925E-04 Eh
 * total energy  :  -390.0011824 Eh     change       -0.1335095E-04 Eh
 * total energy  :  -390.0011875 Eh     change       -0.5176646E-05 Eh
 * total energy  :  -390.0011956 Eh     change       -0.8097207E-05 Eh
 * total energy  :  -390.0012022 Eh     change       -0.6619250E-05 Eh
 * total energy  :  -390.0012123 Eh     change       -0.1003338E-04 Eh
 * total energy  :  -390.0012200 Eh     change       -0.7733083E-05 Eh
 * total energy  :  -390.0012274 Eh     change       -0.7388600E-05 Eh
 * total energy  :  -390.0012308 Eh     change       -0.3424495E-05 Eh
   *** GEOMETRY OPTIMIZATION CONVERGED AFTER 60 ITERATIONS ***

 final structure:
================
195
 xtb: 6.5.1 (b24c23e)
Cu          27.15523854198337       -0.00337020490924       -0.04372506534250
C           23.75013493387073       -0.03588385566696       -0.13343368887485
C           24.39057883204144       -1.25207727011628       -0.31498918729429
C           23.72057882747927       -2.50868823002773       -0.49260605549498
C           24.68318450819335       -3.45271025612697       -0.63376168182117
C           25.95102435143411       -2.77785656093361       -0.55712321563718
N           25.74244240949567       -1.44460411749197       -0.35460451784841
C           27.20004962945123       -3.39720124250386       -0.65014837784317
C           27.22040625900354       -4.85731183268318       -0.90400568464294
C           27.79496864782079       -5.72735022863277        0.02767902593699
C           27.81345294301829       -7.09098090332682       -0.20148968838932
C           27.25742986611237       -7.58943596594206       -1.37631813187029
N           27.27705354791741       -9.01994307715185       -1.62380385013743
O           26.78709882373651       -9.41514220137624       -2.65063864881925
O           27.78202467273763       -9.72397636559985       -0.78717557211582
C           26.68319208515787       -6.74031941444258       -2.31815353420712
C           26.66475004329429       -5.37883951685778       -2.07630682412987
C           28.43144301451406       -2.74964374850379       -0.52422479727939
C           29.71148375684680       -3.37733374793771       -0.69383173707825
C           30.65246718643820       -2.41669055105361       -0.51201672241509
N           28.61239258332244       -1.41941919872530       -0.25469738763503
C           29.95514466278755       -1.19655275932827       -0.23701201522019
C           30.58530397533110        0.03421311686496        0.01888443647420
C           29.91946279378625        1.24837068336344        0.26253072182292
C           30.57942692290735        2.47958456615278        0.57700837325497
C           29.61148692829985        3.41701145038509        0.73752622075792
C           28.35258299631667        2.76511428993213        0.51005485731153
N           28.57236291925213        1.44216022343517        0.23354941939051
C           27.10345265678498        3.38637534249200        0.58588735317869
C           27.07994662458774        4.84291585421147        0.85774464865396
C           26.44403554498637        5.33738233059063        2.00082625326619
C           26.41852985059952        6.69550420120858        2.25993717105422
C           27.03051818905557        7.56895230430671        1.36528313340186
N           27.00398882723637        8.99601832691831        1.63062921442183
O           26.44246630263953        9.36737297875051        2.62940551992055
O           27.54466831002074        9.72150250855686        0.83560746843265
C           27.66702316550438        7.09778097827982        0.22038297946899
C           27.69075403219719        5.73738369422310       -0.02669182222101
C           25.87323062114754        2.74370908779621        0.42271881110478
C           24.59052973489075        3.39451400945560        0.43273874065260
C           23.65516566086650        2.43417731679196        0.23152321003697
C           24.35726447353624        1.19117011417729        0.08529728313250
N           25.70116056239523        1.40842393799125        0.20071121470306
H           22.66558966254325       -0.04568295157562       -0.16376747831576
H           22.65000977169773       -2.63883838238208       -0.49579946360508
H           24.55301457785346       -4.51470871047386       -0.76574105724948
H           28.21424496872190       -5.32765855570398        0.94365492524570
H           28.25055655851407       -7.77335559432341        0.51751772850079
H           26.26105869042530       -7.15301842674405       -3.22652952790480
H           26.23156010493764       -4.70615389152410       -2.80733232439612
H           29.86684777473544       -4.41579497542214       -0.93740642699283
H           31.72483738134055       -2.51497884639905       -0.56388666740365
H           31.64679143893944        2.59942586088122        0.67069012461366
H           29.73544119631883        4.45467258074178        1.00157724966662
H           25.98205165504835        4.64627114682804        2.69617742575636
H           25.93314774493464        7.08707749154655        3.14580560450527
H           28.13232073439715        7.79860835898678       -0.46226312854776
H           28.17163463350093        5.35928702827917       -0.92131763907876
H           24.43306831755539        4.45303433525672        0.56281104867238
H           22.58388071663865        2.54471914141800        0.17506890541236
Cu          64.37707466854943        0.03207605046970       -0.02173291565360
C           67.78134612139746        0.09643787910016       -0.11960092435299
C           67.14293330929591        1.29219761129148        0.17163898643181
C           67.81504706071381        2.52432469693382        0.47104966482252
C           66.85402924371655        3.45320109572603        0.69762372742606
C           65.58493939957093        2.79860933429747        0.52540944711506
N           65.79133334330898        1.48580431997163        0.21554122014743
C           64.33692065098538        3.40825668793403        0.67764724684027
C           64.31823581971572        4.85791284469123        0.98536064950650
C           63.74871317649635        5.31844939968572        2.17651215397470
C           63.73137758464770        6.66927440090169        2.47180717603190
C           64.28378428614295        7.56945553691971        1.56494573723687
N           64.26598382061471        8.98910286798220        1.86858551582602
O           64.75380579353461        9.73832912813156        1.06155720513855
O           63.76416338863523        9.33085164051475        2.90879961032052
C           64.85293646967291        7.13220185055663        0.37218663666157
C           64.87002191994642        5.77860662914592        0.08931374223132
C           63.10480140830182        2.75981372346224        0.56340530133982
C           61.82508257506170        3.40500391219857        0.64901605075253
C           60.88305876912044        2.44454966810934        0.47173627107811
N           62.92250946656215        1.42422519836950        0.32293909873032
C           61.57937050130960        1.20966463560875        0.26969605034838
C           60.94781652723957       -0.02920552706146        0.06047978850563
C           61.61199446498278       -1.24637035023673       -0.17244605212475
C           60.95153281651012       -2.50660143005144       -0.33343811329996
C           61.91792304061259       -3.43445679556292       -0.54957395221998
C           63.17625456905327       -2.74323698268935       -0.53203216159276
N           62.95795759746037       -1.41348003679129       -0.28919688637762
C           64.42389299817164       -3.34618704585638       -0.71054526859552
C           64.44514028654369       -4.79761791470780       -1.00893263016689
C           65.08983796009173       -5.68705122850445       -0.14363357659723
C           65.11409666567685       -7.04227295217105       -0.41766030397418
C           64.49213337150361       -7.51300323036205       -1.57066520351063
N           64.51786724879150       -8.93435840041854       -1.86537407385813
O           65.08713182799480       -9.65537268514346       -1.08640008190108
O           63.96879946291777       -9.30563198919084       -2.87106972061354
C           63.84649625492949       -6.64446477692532       -2.44627430154082
C           63.82384823716399       -5.29171438262514       -2.16009660085264
C           65.65457329763953       -2.68866070056187       -0.63262053252112
C           66.93533681437806       -3.29490034875094       -0.87975861118300
C           67.87196624111438       -2.32941002308931       -0.71182083205710
C           67.17241098945864       -1.12298982738178       -0.37331679864435
N           65.82884916653299       -1.36796429078377       -0.33702708484572
H           68.86569425838545        0.11689074180457       -0.15167083532631
H           68.88590673353511        2.64607120015071        0.50983310119136
H           66.98611592549207        4.48791755266249        0.96985555294195
H           63.33251917005467        4.60633355896619        2.87952971895124
H           63.29804080164248        7.03471680818095        3.39502446789236
H           65.27222779032351        7.85355015084620       -0.31884316730029
H           65.29907240888285        5.42677115744145       -0.84164658726707
H           61.67035164345378        4.45987778822238        0.80759144499343
H           59.81055636310634        2.55435660277840        0.46954318262664
H           59.88498889589855       -2.65420138775553       -0.27766242687917
H           61.79364653246571       -4.49552252998650       -0.69294204468050
H           65.55985062773134       -5.30975937081964        0.75709011209386
H           65.60629592205402       -7.73936170586077        0.24979211040956
H           63.37347898859445       -7.03547113156338       -3.33904227703952
H           63.33567435583311       -4.60383871046626       -2.84059659860854
H           67.09064799556221       -4.32435164180680       -1.15956770205798
H           68.94244658479421       -2.41035646139831       -0.81468562088264
C           31.99098202651654        0.05057929325679        0.02998637080085
C           33.21542667716122        0.05645346567883        0.02759105860837
C           34.55832286864304        0.06061320161675        0.02531491550221
C           35.78896263819080        0.06093806085316        0.02005646976245
C           37.12690608766776        0.05634922732836        0.01105630656603
C           38.35762356055751        0.05007800487573        0.00388662554996
C           39.70023162138106        0.04289782166181       -0.00602243831567
C           40.92485005281001        0.03443738789692       -0.01757115366121
C           50.60885858674660        0.00020083321715        0.07674840148754
C           51.83340422799942       -0.01119938991588        0.09365376524446
C           53.17595106318002       -0.02238083897144        0.10382637090239
C           54.40663225910448       -0.03460624895845        0.11124850846291
C           55.74454251066611       -0.04552590371837        0.10988686820744
C           56.97516905969441       -0.05604978157045        0.10630856035922
C           58.31799117578539       -0.05482819355471        0.09599262378954
C           59.54238796672562       -0.04913052527580        0.08332212860726
Cu          45.76704402446975        0.01629369336634       -0.00129489411504
C           42.32988632673000        0.02776585707540       -0.02185723312448
C           42.97408458415784       -1.22027055837041        0.05649876678474
C           42.29199878702039       -2.47399192087540        0.17350444618274
C           43.24439725471402       -3.44050718764652        0.20150118462878
C           44.51513736491621       -2.78111508022532        0.09508827683263
N           44.31799900583315       -1.42880581426044        0.01733749868700
C           45.75499410550474       -3.42483165799598        0.09839671030055
C           45.74988018673444       -4.90678696270087        0.13543159329536
C           46.33301192392783       -5.58851642691604        1.20785966516143
C           46.32958803196285       -6.97082899536674        1.24767278824539
C           45.74288921092196       -7.67856415280250        0.20234622128578
N           45.73962747623041       -9.13006978686168        0.23727701116675
O           45.21964548600991       -9.70905155566405       -0.68195776879674
O           46.25699415633913       -9.66640423377435        1.18349704869693
C           45.15921671476725       -7.01915509552137       -0.87575552865698
C           45.16260847299453       -5.63650727897410       -0.90260375890009
C           46.99939756262954       -2.79049263995380        0.07217532249147
C           48.26627314271055       -3.46319156088323        0.01350297848932
C           49.22543654685953       -2.50308124513027        0.00247135770466
N           47.20563631007752       -1.43727869427314        0.07845338149764
C           48.55134140569627       -1.24031923837881        0.04306759605877
C           49.20404057241690        0.00582717572784        0.05417015199063
C           48.55885328837974        1.25571021381873        0.03713606383173
C           49.23891828503816        2.51485419656737        0.08757793364112
C           48.28696856501826        3.48040129544288        0.02748514021131
C           47.01868482777805        2.81451463153677       -0.06766650633610
N           47.21640513503082        1.46025581968548       -0.04837802054796
C           45.77980853962238        3.45625911120241       -0.14348047432350
C           45.78639420971352        4.93654843935467       -0.21707863105974
C           46.41460232200775        5.58597817215690       -1.28431594414878
C           46.41943899660655        6.96655750917643       -1.36309316710282
C           45.79499773441064        7.70576671475594       -0.36233234978877
N           45.79810464428148        9.15558300347173       -0.43928814293697
O           46.35095386887291        9.66299911561349       -1.38141134664477
O           45.24727608773520        9.76227514092047        0.44338376983433
C           45.16742952038137        7.07911642545883        0.71067654005604
C           45.16390714852471        5.69781027748283        0.77699857442864
C           44.53576343437554        2.82043564145290       -0.15591125247016
C           43.27089745672780        3.48530862811542       -0.29415830964305
C           42.31161961734836        2.52603015666168       -0.25528443547001
C           42.98386724476279        1.27042535316702       -0.10682565541415
N           44.32852201702563        1.47093270235387       -0.05574680435165
H           41.22173521756773       -2.58973400705913        0.23288028848936
H           43.10256541642215       -4.50439030824671        0.30115310327112
H           46.77652749849152       -5.02547754592474        2.02076636734278
H           46.77326338442492       -7.50784692761697        2.07737289314948
H           44.71290598846721       -7.59340344213056       -1.67869437326503
H           44.72158961857600       -5.11108992116933       -1.74164012446197
H           48.40166756411318       -4.53169605759406       -0.02906088226085
H           50.29537013120098       -2.62922128317169       -0.03862058779690
H           50.30743034884200        2.63496666142800        0.16664650488813
H           48.42749923491260        4.54857266698057        0.06114876753140
H           46.88656931579916        4.99872106267394       -2.06339268672028
H           46.89783334888703        7.47820442823408       -2.18955029305924
H           44.69243078605350        7.67737713523335        1.47888070403105
H           44.68926047425878        5.19836526297391        1.61354180501220
H           43.13658922322480        4.54734436550994       -0.42009410140701
H           41.24299270797083        2.64751681715226       -0.33039579842550

          :  Hamiltonian                  GFN1-xTB          :
         :: total energy            -390.001230826770 Eh    ::
         :: gradient norm              0.000496791551 Eh/a0 ::
         :: HOMO-LUMO gap              0.000878039970 eV    ::
         :: SCC energy              -395.634912776269 Eh    ::
         :: repulsion energy           5.807903998328 Eh    ::

    * Orbital Energies and Occupations

         #    Occupation            Energy/Eh            Energy/eV
      -------------------------------------------------------------
         1        2.0000           -0.9228201             -25.1112
       ...           ...                  ...                  ...
       335        2.0000           -0.4313792             -11.7384
       336        2.0000           -0.4313483             -11.7376
       337        2.0000           -0.4308088             -11.7229
       338        2.0000           -0.4272918             -11.6272
       339        2.0000           -0.4269425             -11.6177
       340        2.0000           -0.4200991             -11.4315
       341        2.0000           -0.4200954             -11.4314
       342        2.0000           -0.4200437             -11.4300
       343        2.0000           -0.4152739             -11.3002
       344        2.0000           -0.4099226             -11.1546
       345        2.0000           -0.4027652             -10.9598
       346        1.0333           -0.3798689             -10.3368
       347        0.9909           -0.3797781             -10.3343 (HOMO)
       348        0.9758           -0.3797458             -10.3334 (LUMO)
       349        0.0000           -0.3649411              -9.9306
       350                         -0.3586800              -9.7602
       351                         -0.3586675              -9.7598
       352                         -0.3583477              -9.7511
       353                         -0.3577067              -9.7337
       354                         -0.3520089              -9.5786
       355                         -0.3496110              -9.5134
       356                         -0.3495666              -9.5122
       357                         -0.3494379              -9.5087
       358                         -0.3431662              -9.3380
       ...                                ...                  ...
       695                          1.5864818              43.1704
      -------------------------------------------------------------
                  HL-Gap            0.0000323 Eh            0.0009 eV

Wiberg/Mayer (AO) data.
largest (>0.10) Wiberg bond orders for each atom

     #   Z sym  total        # sym  WBO       # sym  WBO       # sym  WBO
 ---------------------------------------------------------------------------
     1  29 Cu   2.185 --    43 N    0.505     7 N    0.504    21 N    0.501
                            28 N    0.501
     2   6 C    3.931 --    42 C    1.363     3 C    1.362    44 H    0.971
     3   6 C    3.914 --     2 C    1.362     7 N    1.228     4 C    1.169
     4   6 C    3.955 --     5 C    1.658     3 C    1.169    45 H    0.975
     5   6 C    3.958 --     4 C    1.658     6 C    1.170    46 H    0.973
     6   6 C    3.914 --     8 C    1.317     7 N    1.241     5 C    1.170
     7   7 N    3.243 --     6 C    1.241     3 C    1.228     1 Cu   0.504
     8   6 C    3.931 --    18 C    1.322     6 C    1.317     9 C    1.033
     9   6 C    3.984 --    17 C    1.383    10 C    1.383     8 C    1.033
    10   6 C    3.987 --    11 C    1.464     9 C    1.383    47 H    0.971
                            16 C    0.101
    11   6 C    3.987 --    10 C    1.464    12 C    1.387    48 H    0.965
                            17 C    0.101
    12   6 C    3.941 --    16 C    1.387    11 C    1.387    13 N    0.921
    13   7 N    3.865 --    15 O    1.454    14 O    1.454    12 C    0.921
    14   8 O    1.828 --    13 N    1.454    15 O    0.251
    15   8 O    1.828 --    13 N    1.454    14 O    0.251
    16   6 C    3.987 --    17 C    1.464    12 C    1.387    49 H    0.965
                            10 C    0.101
    17   6 C    3.986 --    16 C    1.464     9 C    1.383    50 H    0.971
                            11 C    0.101
    18   6 C    3.907 --     8 C    1.322    21 N    1.225    19 C    1.178
    19   6 C    3.953 --    20 C    1.643    18 C    1.178    51 H    0.973
    20   6 C    3.956 --    19 C    1.643    22 C    1.186    52 H    0.973
    21   7 N    3.247 --    22 C    1.255    18 C    1.225     1 Cu   0.501
    22   6 C    3.894 --    23 C    1.259    21 N    1.255    20 C    1.186
    23   6 C    3.940 --    24 C    1.260    22 C    1.259   121 C    1.189
    24   6 C    3.894 --    23 C    1.260    28 N    1.255    25 C    1.186
    25   6 C    3.956 --    26 C    1.643    24 C    1.186    53 H    0.973
    26   6 C    3.953 --    25 C    1.643    27 C    1.178    54 H    0.973
    27   6 C    3.907 --    29 C    1.322    28 N    1.225    26 C    1.178
    28   7 N    3.247 --    24 C    1.255    27 C    1.225     1 Cu   0.501
    29   6 C    3.932 --    27 C    1.322    39 C    1.317    30 C    1.034
    30   6 C    3.984 --    38 C    1.383    31 C    1.383    29 C    1.034
    31   6 C    3.986 --    32 C    1.464    30 C    1.383    55 H    0.971
                            37 C    0.101
    32   6 C    3.987 --    31 C    1.464    33 C    1.386    56 H    0.965
                            38 C    0.101
    33   6 C    3.940 --    32 C    1.386    37 C    1.386    34 N    0.922
    34   7 N    3.865 --    36 O    1.454    35 O    1.454    33 C    0.922
    35   8 O    1.828 --    34 N    1.454    36 O    0.251
    36   8 O    1.828 --    34 N    1.454    35 O    0.251
    37   6 C    3.987 --    38 C    1.464    33 C    1.386    57 H    0.965
                            31 C    0.101
    38   6 C    3.986 --    37 C    1.464    30 C    1.383    58 H    0.971
                            32 C    0.101
    39   6 C    3.914 --    29 C    1.317    43 N    1.241    40 C    1.170
    40   6 C    3.958 --    41 C    1.658    39 C    1.170    59 H    0.973
    41   6 C    3.955 --    40 C    1.658    42 C    1.169    60 H    0.975
    42   6 C    3.914 --     2 C    1.363    43 N    1.228    41 C    1.169
    43   7 N    3.243 --    39 C    1.241    42 C    1.228     1 Cu   0.505
    44   1 H    1.001 --     2 C    0.971
    45   1 H    0.997 --     4 C    0.975
    46   1 H    1.003 --     5 C    0.973
    47   1 H    1.003 --    10 C    0.971
    48   1 H    1.006 --    11 C    0.965
    49   1 H    1.006 --    16 C    0.965
    50   1 H    1.003 --    17 C    0.971
    51   1 H    1.003 --    19 C    0.973
    52   1 H    1.001 --    20 C    0.973
    53   1 H    1.001 --    25 C    0.973
    54   1 H    1.003 --    26 C    0.973
    55   1 H    1.003 --    31 C    0.971
    56   1 H    1.006 --    32 C    0.965
    57   1 H    1.006 --    37 C    0.965
    58   1 H    1.004 --    38 C    0.971
    59   1 H    1.003 --    40 C    0.973
    60   1 H    0.997 --    41 C    0.975
    61  29 Cu   2.185 --   103 N    0.505    67 N    0.504    81 N    0.501
                            88 N    0.501
    62   6 C    3.931 --   102 C    1.363    63 C    1.362   104 H    0.971
    63   6 C    3.914 --    62 C    1.362    67 N    1.228    64 C    1.169
    64   6 C    3.955 --    65 C    1.658    63 C    1.169   105 H    0.975
    65   6 C    3.958 --    64 C    1.658    66 C    1.170   106 H    0.973
    66   6 C    3.914 --    68 C    1.317    67 N    1.241    65 C    1.170
    67   7 N    3.243 --    66 C    1.241    63 C    1.228    61 Cu   0.504
    68   6 C    3.931 --    78 C    1.322    66 C    1.317    69 C    1.033
    69   6 C    3.984 --    77 C    1.383    70 C    1.383    68 C    1.033
    70   6 C    3.987 --    71 C    1.464    69 C    1.383   107 H    0.971
                            76 C    0.101
    71   6 C    3.987 --    70 C    1.464    72 C    1.386   108 H    0.965
                            77 C    0.101
    72   6 C    3.941 --    76 C    1.387    71 C    1.386    73 N    0.921
    73   7 N    3.865 --    74 O    1.454    75 O    1.454    72 C    0.921
    74   8 O    1.828 --    73 N    1.454    75 O    0.251
    75   8 O    1.828 --    73 N    1.454    74 O    0.251
    76   6 C    3.987 --    77 C    1.464    72 C    1.387   109 H    0.965
                            70 C    0.101
    77   6 C    3.986 --    76 C    1.464    69 C    1.383   110 H    0.971
                            71 C    0.101
    78   6 C    3.907 --    68 C    1.322    81 N    1.225    79 C    1.178
    79   6 C    3.953 --    80 C    1.643    78 C    1.178   111 H    0.973
    80   6 C    3.956 --    79 C    1.643    82 C    1.186   112 H    0.973
    81   7 N    3.247 --    82 C    1.255    78 C    1.225    61 Cu   0.501
    82   6 C    3.894 --    83 C    1.259    81 N    1.255    80 C    1.186
    83   6 C    3.940 --    84 C    1.260    82 C    1.259   136 C    1.189
    84   6 C    3.894 --    83 C    1.260    88 N    1.255    85 C    1.186
    85   6 C    3.956 --    86 C    1.643    84 C    1.186   113 H    0.973
    86   6 C    3.953 --    85 C    1.643    87 C    1.178   114 H    0.973
    87   6 C    3.907 --    89 C    1.322    88 N    1.225    86 C    1.178
    88   7 N    3.247 --    84 C    1.255    87 C    1.225    61 Cu   0.501
    89   6 C    3.931 --    87 C    1.322    99 C    1.317    90 C    1.034
    90   6 C    3.984 --    98 C    1.383    91 C    1.383    89 C    1.034
    91   6 C    3.986 --    92 C    1.464    90 C    1.383   115 H    0.971
                            97 C    0.101
    92   6 C    3.987 --    91 C    1.464    93 C    1.386   116 H    0.965
                            98 C    0.101
    93   6 C    3.940 --    92 C    1.386    97 C    1.386    94 N    0.921
    94   7 N    3.865 --    96 O    1.454    95 O    1.454    93 C    0.921
    95   8 O    1.828 --    94 N    1.454    96 O    0.251
    96   8 O    1.828 --    94 N    1.454    95 O    0.251
    97   6 C    3.987 --    98 C    1.464    93 C    1.386   117 H    0.965
                            91 C    0.101
    98   6 C    3.986 --    97 C    1.464    90 C    1.383   118 H    0.971
                            92 C    0.101
    99   6 C    3.914 --    89 C    1.317   103 N    1.241   100 C    1.170
   100   6 C    3.958 --   101 C    1.658    99 C    1.170   119 H    0.973
   101   6 C    3.955 --   100 C    1.658   102 C    1.169   120 H    0.975
   102   6 C    3.914 --    62 C    1.363   103 N    1.228   101 C    1.169
   103   7 N    3.243 --    99 C    1.241   102 C    1.228    61 Cu   0.505
   104   1 H    1.001 --    62 C    0.971
   105   1 H    0.997 --    64 C    0.975
   106   1 H    1.003 --    65 C    0.973
   107   1 H    1.003 --    70 C    0.971
   108   1 H    1.006 --    71 C    0.965
   109   1 H    1.006 --    76 C    0.965
   110   1 H    1.003 --    77 C    0.971
   111   1 H    1.003 --    79 C    0.973
   112   1 H    1.001 --    80 C    0.973
   113   1 H    1.001 --    85 C    0.973
   114   1 H    1.003 --    86 C    0.973
   115   1 H    1.003 --    91 C    0.971
   116   1 H    1.006 --    92 C    0.965
   117   1 H    1.006 --    97 C    0.965
   118   1 H    1.004 --    98 C    0.971
   119   1 H    1.003 --   100 C    0.973
   120   1 H    0.997 --   101 C    0.975
   121   6 C    3.878 --   122 C    2.442    23 C    1.189   124 C    0.187
   122   6 C    3.936 --   121 C    2.442   123 C    1.343
   123   6 C    3.893 --   124 C    2.337   122 C    1.343   126 C    0.182
   124   6 C    3.926 --   123 C    2.337   125 C    1.369   121 C    0.187
   125   6 C    3.925 --   126 C    2.336   124 C    1.369   128 C    0.187
   126   6 C    3.894 --   125 C    2.336   127 C    1.344   123 C    0.182
   127   6 C    3.933 --   128 C    2.439   126 C    1.344
   128   6 C    3.878 --   127 C    2.439   138 C    1.192   125 C    0.187
   129   6 C    3.878 --   130 C    2.439   159 C    1.192   132 C    0.187
   130   6 C    3.933 --   129 C    2.439   131 C    1.344
   131   6 C    3.894 --   132 C    2.336   130 C    1.344   134 C    0.182
   132   6 C    3.925 --   131 C    2.336   133 C    1.369   129 C    0.187
   133   6 C    3.926 --   134 C    2.337   132 C    1.369   136 C    0.187
   134   6 C    3.893 --   133 C    2.337   135 C    1.343   131 C    0.182
   135   6 C    3.936 --   136 C    2.442   134 C    1.343
   136   6 C    3.878 --   135 C    2.442    83 C    1.189   133 C    0.187
   137  29 Cu   2.151 --   164 N    0.495   179 N    0.495   143 N    0.495
                           157 N    0.495
   138   6 C    3.930 --   139 C    1.257   178 C    1.256   128 C    1.192
   139   6 C    3.895 --   143 N    1.259   138 C    1.257   140 C    1.186
   140   6 C    3.955 --   141 C    1.642   139 C    1.186   180 H    0.973
   141   6 C    3.955 --   140 C    1.642   142 C    1.179   181 H    0.973
   142   6 C    3.906 --   144 C    1.320   143 N    1.225   141 C    1.179
   143   7 N    3.240 --   139 C    1.259   142 C    1.225   137 Cu   0.495
   144   6 C    3.927 --   154 C    1.320   142 C    1.320   145 C    1.032
   145   6 C    3.984 --   153 C    1.384   146 C    1.383   144 C    1.032
   146   6 C    3.987 --   147 C    1.464   145 C    1.383   182 H    0.971
                           152 C    0.101
   147   6 C    3.987 --   146 C    1.464   148 C    1.387   183 H    0.965
                           153 C    0.101
   148   6 C    3.941 --   152 C    1.387   147 C    1.387   149 N    0.921
   149   7 N    3.865 --   150 O    1.454   151 O    1.454   148 C    0.921
   150   8 O    1.828 --   149 N    1.454   151 O    0.251
   151   8 O    1.828 --   149 N    1.454   150 O    0.251
   152   6 C    3.987 --   153 C    1.464   148 C    1.387   184 H    0.965
                           146 C    0.101
   153   6 C    3.987 --   152 C    1.464   145 C    1.384   185 H    0.971
                           147 C    0.101
   154   6 C    3.906 --   144 C    1.320   157 N    1.225   155 C    1.179
   155   6 C    3.954 --   156 C    1.642   154 C    1.179   186 H    0.973
   156   6 C    3.955 --   155 C    1.642   158 C    1.186   187 H    0.973
   157   7 N    3.240 --   158 C    1.259   154 C    1.225   137 Cu   0.495
   158   6 C    3.895 --   157 N    1.259   159 C    1.256   156 C    1.186
   159   6 C    3.930 --   160 C    1.257   158 C    1.256   129 C    1.192
   160   6 C    3.895 --   164 N    1.258   159 C    1.257   161 C    1.187
   161   6 C    3.955 --   162 C    1.642   160 C    1.187   188 H    0.973
   162   6 C    3.955 --   161 C    1.642   163 C    1.179   189 H    0.973
   163   6 C    3.906 --   165 C    1.319   164 N    1.226   162 C    1.179
   164   7 N    3.240 --   160 C    1.258   163 C    1.226   137 Cu   0.495
   165   6 C    3.927 --   175 C    1.320   163 C    1.319   166 C    1.034
   166   6 C    3.984 --   174 C    1.383   167 C    1.383   165 C    1.034
   167   6 C    3.986 --   168 C    1.464   166 C    1.383   190 H    0.971
                           173 C    0.101
   168   6 C    3.987 --   167 C    1.464   169 C    1.386   191 H    0.965
                           174 C    0.101
   169   6 C    3.940 --   173 C    1.387   168 C    1.386   170 N    0.921
   170   7 N    3.865 --   172 O    1.454   171 O    1.454   169 C    0.921
   171   8 O    1.828 --   170 N    1.454   172 O    0.251
   172   8 O    1.828 --   170 N    1.454   171 O    0.251
   173   6 C    3.987 --   174 C    1.464   169 C    1.387   192 H    0.965
                           167 C    0.101
   174   6 C    3.986 --   173 C    1.464   166 C    1.383   193 H    0.971
                           168 C    0.101
   175   6 C    3.906 --   165 C    1.320   179 N    1.225   176 C    1.179
   176   6 C    3.955 --   177 C    1.642   175 C    1.179   194 H    0.973
   177   6 C    3.955 --   176 C    1.642   178 C    1.186   195 H    0.973
   178   6 C    3.895 --   179 N    1.259   138 C    1.256   177 C    1.186
   179   7 N    3.240 --   178 C    1.259   175 C    1.225   137 Cu   0.495
   180   1 H    1.001 --   140 C    0.973
   181   1 H    1.003 --   141 C    0.973
   182   1 H    1.003 --   146 C    0.971
   183   1 H    1.006 --   147 C    0.965
   184   1 H    1.006 --   152 C    0.965
   185   1 H    1.003 --   153 C    0.971
   186   1 H    1.003 --   155 C    0.973
   187   1 H    1.001 --   156 C    0.973
   188   1 H    1.001 --   161 C    0.973
   189   1 H    1.003 --   162 C    0.973
   190   1 H    1.003 --   167 C    0.971
   191   1 H    1.006 --   168 C    0.965
   192   1 H    1.006 --   173 C    0.965
   193   1 H    1.004 --   174 C    0.971
   194   1 H    1.003 --   176 C    0.973
   195   1 H    1.001 --   177 C    0.973
 ---------------------------------------------------------------------------

           -------------------------------------------------
          | TOTAL ENERGY             -390.001230826770 Eh   |
          | GRADIENT NORM               0.000496791551 Eh/α |
          | HOMO-LUMO GAP               0.000878039970 eV   |
           -------------------------------------------------

 * finished run on 2022/07/30 at 08:30:57.852
