   * xtb version 6.5.1 (b24c23e) compiled by 'conda@728c89f4b128' on 2022-07-12
          program call               : xtb Zn_Ph2OMe_C2_3.xyz --gfn 1 --opt -T 48

   ID    Z sym.   atoms
    1   30 Zn     1, 73, 149
    2    6 C      2-6, 8-11, 13-21, 23-27, 29-33, 36, 37, 39-43, 45, 74-78,
                  80-83, 85-93, 95-99, 101-105, 108, 109, 111-115, 117,
                  145-148, 150-154, 156-159, 161-169, 171-175, 177-181, 184,
                  185, 187-191, 193
    3    7 N      7, 12, 34, 35, 79, 84, 106, 107, 155, 160, 182, 183
    4    8 O      22, 28, 38, 44, 94, 100, 110, 116, 170, 176, 186, 192
    5    1 H      46-72, 118-144, 194-219
########################################################################
[WARNING] Please study the warnings concerning your input carefully
-1- prog_main_parseArguments: Unknown option '-T' provided
########################################################################

          :  Hamiltonian                  GFN1-xTB          :
 * total energy  :  -376.1314738 Eh     change       -0.2517481E-08 Eh
 * total energy  :  -376.6726191 Eh     change       -0.5411453E+00 Eh
 * total energy  :  -376.8262397 Eh     change       -0.1536206E+00 Eh
 * total energy  :  -376.9018112 Eh     change       -0.7557148E-01 Eh
 * total energy  :  -376.9287734 Eh     change       -0.2696221E-01 Eh
 * total energy  :  -376.9417175 Eh     change       -0.1294412E-01 Eh
 * total energy  :  -376.9473109 Eh     change       -0.5593363E-02 Eh
 * total energy  :  -376.9503022 Eh     change       -0.2991284E-02 Eh
 * total energy  :  -376.9522456 Eh     change       -0.1943428E-02 Eh
 * total energy  :  -376.9537478 Eh     change       -0.1502214E-02 Eh
 * total energy  :  -376.9624758 Eh     change       -0.5797384E-05 Eh
 * total energy  :  -376.9624817 Eh     change       -0.5964290E-05 Eh
 * total energy  :  -376.9624880 Eh     change       -0.6257610E-05 Eh
 * total energy  :  -376.9624945 Eh     change       -0.6450451E-05 Eh
 * total energy  :  -376.9625011 Eh     change       -0.6622867E-05 Eh
 * total energy  :  -376.9625077 Eh     change       -0.6577392E-05 Eh
 * total energy  :  -376.9625136 Eh     change       -0.5945494E-05 Eh
 * total energy  :  -376.9625187 Eh     change       -0.5107032E-05 Eh
 * total energy  :  -376.9625235 Eh     change       -0.4742996E-05 Eh
   *** GEOMETRY OPTIMIZATION CONVERGED AFTER 85 ITERATIONS ***

 final structure:
================
219
 xtb: 6.5.1 (b24c23e)
Zn          33.70736578134557        0.10503968251137       -0.01528083849836
C           30.29471609234272        0.19136823497342       -0.06732085632882
C           30.92098243474664        1.00053565229943        0.87361629100869
C           30.24481980960829        1.84927293311270        1.81556715189307
C           31.20233130003973        2.46655843686576        2.55198783682477
C           32.47558031322212        2.00485340032145        2.06698446348127
N           32.26906874077014        1.11571990209490        1.05283243858779
C           33.72236236491711        2.38739390437911        2.57084342808656
C           34.96230094677293        1.91937588795875        2.12754561211433
C           36.23775274830739        2.33813790978065        2.63880847046552
C           37.18918758273499        1.67522225871084        1.93330489173405
N           35.16317316222896        1.01405123964897        1.12032093102761
C           36.50619856708266        0.84859637211696        0.98065010962721
C           37.14159506674051        0.02317730500955        0.03331406385090
C           36.49448551421376       -0.77455255524812       -0.92980779284490
C           37.16400540276913       -1.63572214944000       -1.86117591813871
C           36.20254504596987       -2.25367411981340       -2.59329450714966
C           34.93454558184645       -1.77146405388515       -2.12085280906586
C           33.68657075382217       -2.17572036401870       -2.60311447497716
C           33.67644456654467       -3.17743596857273       -3.70796527063374
C           34.11631000321795       -2.82866802823445       -4.99152160355996
O           34.52631441967401       -1.54158606754409       -5.15009669307396
C           35.02939806786306       -1.09927630824547       -6.39393348641036
C           34.10675572561558       -3.76904708253724       -6.02141212260762
C           33.66090259358852       -5.05641565046016       -5.76293049726623
C           33.22225634469853       -5.42582592917996       -4.50031853210278
C           33.22839246047162       -4.48395926948931       -3.47203107069207
O           32.82697227875219       -4.75342583271889       -2.20063385049641
C           32.34398932067939       -6.03624135563581       -1.85908083325195
C           32.44595648873429       -1.73007634468063       -2.13682147323719
C           31.16633596343331       -2.12448987757317       -2.66276569585177
C           30.21930247464737       -1.46028893783663       -1.95422133439254
C           30.90842409004553       -0.64868115765409       -0.98930464005306
N           32.25382219371930       -0.83275377660426       -1.12697567071081
N           35.14968039621000       -0.87587432301949       -1.10791617339137
C           33.72895762414399        3.39203044350236        3.67339704711708
C           34.09077872842528        3.02067018248385        4.97469389283844
O           34.41280073622227        1.71108433504038        5.15096721634654
C           34.81455957646748        1.23844374791298        6.42019919165164
C           34.09652022614344        3.96341167304482        6.00246874035297
C           33.74342875881144        5.27520308386235        5.72403029463500
C           33.38314785668092        5.66698722719507        4.44352555917254
C           33.37453208902622        4.72307075299010        3.41705093125134
O           33.04503972151173        5.01243453535942        2.12948142765386
C           32.67661136488147        6.32617888972903        1.76339966973571
H           29.20935163256063        0.21889675143062       -0.08457953009134
H           29.17327784166586        1.94921297084781        1.89541367038688
H           31.06599451110688        3.17167417667162        3.35663672860667
H           36.38250863737535        3.05125312259476        3.43459073485955
H           38.26071999174344        1.74107540349619        2.03771970000930
H           38.23352898834920       -1.75471936129120       -1.93380255591624
H           36.33621396130295       -2.97533725017373       -3.38324319835963
H           34.26835385749339       -1.16156069387148       -7.18148871161645
H           35.31373577361899       -0.05477502430950       -6.25293074211884
H           35.91253682455379       -1.67461610979470       -6.69760795467155
H           34.44042964135367       -3.50780940380906       -7.01682076066617
H           33.65506330209993       -5.78822518977759       -6.56335385994045
H           32.88220172201775       -6.43799274199450       -4.32625111391825
H           32.07816049428558       -5.98926027616584       -0.80128772789453
H           31.45290143597069       -6.29898314364038       -2.44232956285039
H           33.11121331961985       -6.80686204835773       -2.00311632394568
H           31.01891139897092       -2.82009304082829       -3.47365311909040
H           29.14705877227071       -1.50493494142707       -2.06757242865510
H           35.02980441911720        0.17560165231658        6.29488962310091
H           34.01837048627076        1.35869868398088        7.16513409982667
H           35.71920692064311        1.74965624089266        6.77158537547142
H           34.37109337227503        3.68560988397684        7.01134398377714
H           33.74909967399623        6.00873117139116        6.52288066743841
H           33.11411594852189        6.69767585475384        4.25454389556257
H           33.49033004540817        7.03836910307496        1.94743192483075
H           32.46336805972054        6.29520117187036        0.69319754857472
H           31.77836994420724        6.65635157427663        2.29951087740527
Zn          55.53939190785005        0.00092578862071       -0.09080149330158
C           58.95203356388034        0.09521922201873       -0.18363965544184
C           58.32521361599361       -0.64922349151643       -1.17621232883131
C           59.00073837856827       -1.38210332542803       -2.21128031526180
C           58.04292084840336       -1.97012952876485       -2.97084941215309
C           56.77005488660625       -1.59845200431791       -2.41299678602825
N           56.97716230247044       -0.80225147859591       -1.32442942437976
C           55.52255729701785       -2.00427458110834       -2.89615409706442
C           54.28271808874380       -1.66451798324526       -2.34793420489014
C           53.00774102049350       -2.06979192678582       -2.87038590950537
C           52.05633000604104       -1.53024023997915       -2.06670289744466
N           54.08119996280894       -0.88132396635331       -1.24298703910973
C           52.73806697269759       -0.78437983127570       -1.04905804491776
C           52.10248378662082       -0.08041661011026       -0.00736232095260
C           52.75318799126515        0.64684319887919        1.00853303730733
C           52.08716800595278        1.35370079349105        2.06374326322476
C           53.05004346214116        1.93389347312549        2.82431360180666
C           54.31577885013144        1.59514116464634        2.23589891740017
C           55.56345372292432        1.99846139888856        2.71965448050901
C           55.57291432909386        2.86883080174410        3.93090869419708
C           55.11831256797232        4.19203435946862        3.85666300721550
O           54.69656109102555        4.60718622437322        2.63218284789094
C           54.17633257833869        5.90908331214174        2.45798646606714
C           55.12641498739461        5.00652598640898        4.98861598726559
C           55.58606119005119        4.49338512290872        6.19208959706125
C           56.04039779632110        3.18689222000955        6.29045484440483
C           56.03580263560640        2.37425720455089        5.15713177300672
O           56.45362314321238        1.07965419481726        5.15601937922202
C           56.95170412460025        0.48813759705963        6.33822065380284
C           56.80314973572664        1.66303116585144        2.16712583894884
C           58.08186701095342        2.10575389402453        2.65538500274242
C           59.02801027995758        1.57345814584814        1.84200749213970
C           58.33899995823538        0.80383941454751        0.84319452193611
N           56.99457326405597        0.88063292846273        1.06566858030907
N           54.09802381900273        0.80709400671072        1.13758274955553
C           55.51420770590951       -2.88157771305886       -4.10252829770472
C           55.14444652649834       -4.22871881344447       -3.99555788880622
O           54.81715656468075       -4.65720866353364       -2.74701193073933
C           54.40130384667481       -5.99053297377859       -2.53450094591038
C           55.13776294612491       -5.05123905712127       -5.12169044898689
C           55.49805256793860       -4.52236966823228       -6.35189950210328
C           55.86677425099082       -3.19202599433716       -6.48287658908000
C           55.87656778300033       -2.37095834442612       -5.35562321611032
O           56.21504954192266       -1.05371754646777       -5.38549051690134
C           56.60407206257806       -0.44339953949995       -6.59868003204335
H           60.03703597815068        0.12608557500599       -0.21311690527958
H           60.07212589825110       -1.43558438502521       -2.32885255797034
H           58.17894571248105       -2.60177367409904       -3.83437697996393
H           52.86304821879769       -2.68895144799633       -3.74124933387459
H           50.98558870907775       -1.62880400130467       -2.14794743492099
H           51.01824350739053        1.39802183618087        2.19929532060431
H           52.91867470466995        2.54013129206292        3.70630280981788
H           54.92958937473591        6.67634954404575        2.67532571679234
H           53.88405112919195        5.98179941849798        1.40868946355382
H           53.29535150336823        6.07740384474414        3.08933892616133
H           54.78123002832955        6.03067587036689        4.93997944396394
H           55.59074814311434        5.12595901067784        7.07303824397136
H           56.39157026465575        2.81240084052068        7.24273750251639
H           57.22935242372429       -0.53390218256168        6.07335565747796
H           57.83822272139713        1.01660270080108        6.70981871145943
H           56.18958179264006        0.46081690254803        7.12670814813000
H           58.22942612836192        2.74386941423481        3.51222069593836
H           60.09951386580781        1.68756442461482        1.90045392909736
H           54.17957194279323       -6.07372362325734       -1.46883939559897
H           55.19202811944461       -6.70517210978463       -2.79406672207346
H           53.49739425775400       -6.22604105560943       -3.10945738816286
H           54.85737705746723       -6.09353005434390       -5.04823085069803
H           55.49174030074562       -5.16137819497678       -7.22817907129610
H           56.14147042095342       -2.80593165162558       -7.45544227272659
H           55.79780165775335       -0.47472796604046       -7.34179588327054
H           56.82819380037252        0.59746217514029       -6.35756382970586
H           57.50080234213318       -0.91650567554163       -7.01742704064335
C           38.55211267668086       -0.00437542226771        0.04644676850658
C           39.76828993872824       -0.02757936554550        0.05398956698262
C           49.47531817604442       -0.10802376073718        0.02856354083256
C           50.69214918296895       -0.10047156182328        0.01620314221077
Zn          44.62071544079733       -0.09148584918294        0.04477672290203
C           41.17856730874423       -0.04987408785640        0.05253905512941
C           41.82568600480040        0.05371067217905        1.29869686714759
C           41.15407181652353        0.13960868518977        2.56265680363308
C           42.11496645367050        0.19411085753190        3.52011858502481
C           43.38376184730203        0.14915780938081        2.84925336875242
N           43.17096723160363        0.06054746901976        1.49992465661496
C           44.63111438367258        0.16807091112603        3.47900175904010
C           45.87446351190731        0.10619568450479        2.84395430802086
C           47.14659918340475        0.15842359976451        3.50743533983941
C           48.10215803883385        0.08532211420844        2.54590789405602
N           46.08023443616783        0.00873235607740        1.49394887927612
C           47.42458029623565       -0.00665457955023        1.28575911056991
C           48.06502121352035       -0.11094926014659        0.03540137620455
C           47.41643580075431       -0.21357960278182       -1.21107021062522
C           48.08575649867971       -0.31519729310314       -2.47488951484161
C           47.12410008519662       -0.38370060141351       -3.43058383973396
C           45.85651322394406       -0.31632978281070       -2.76000114183253
C           44.60919033662874       -0.36131594349726       -3.38824304926159
C           44.60443412716758       -0.45811159197420       -4.87688732113453
C           44.19401437200828       -1.63759111392639       -5.51128943429815
O           43.82489271787915       -2.65632348253340       -4.68929377142273
C           43.36307790393176       -3.87813882953329       -5.22735011387156
C           44.19018933143414       -1.72634397554482       -6.90308212599828
C           44.59267261477848       -0.63292508042437       -7.65510600265980
C           45.00034331647196        0.54619133665708       -7.04969810803056
C           45.00783033623667        0.63283838190638       -5.65784640575537
O           45.38051748075689        1.74721912566230       -4.97337299881473
C           45.83141911850629        2.89425141857435       -5.66389649914985
C           43.36564484559143       -0.31472017166971       -2.75281526304928
C           42.09346800880576       -0.33228877028212       -3.41830161282236
C           41.13832329128832       -0.24779248813845       -2.45727466087015
C           41.81709798085224       -0.17344049400440       -1.19638734614512
N           43.16091183057172       -0.21513902837703       -1.40300412964142
N           46.07087672310625       -0.21723409851752       -1.41140916984916
C           44.63538685135167        0.25715900996287        4.96811269273136
C           45.02806970576665       -0.84341962059313        5.74116065262978
O           45.38326378645539       -1.95889739528131        5.04911331778768
C           45.81550932610757       -3.11744206818606        5.73238317934280
C           45.02769604708415       -0.76492976720900        7.13351252980039
C           44.63793744688748        0.41564070959976        7.74775025224204
C           44.24657113577418        1.51853576184937        7.00383355314386
C           44.24332458717684        1.43809024881465        5.61152387730922
O           43.88410289610969        2.46700106747868        4.79781221865826
C           43.43188308135313        3.68780998425977        5.34628252145766
H           40.08349716172999        0.14729685711617        2.69385961366574
H           41.97996364530666        0.25693483932488        4.58806613833218
H           47.28720027433750        0.24110967688786        4.57331027862137
H           49.17307055641859        0.08916319434846        2.67272847022561
H           49.15567027834510       -0.32872420589731       -2.60852903854096
H           47.25782996842013       -0.47119475863792       -4.49695531993812
H           42.46807775633275       -3.73272695163592       -5.84464927118041
H           43.11036010189208       -4.51008756416058       -4.37381995429092
H           44.13824941390217       -4.37374633732488       -5.82469606038084
H           43.87936671376277       -2.63445367816255       -7.40223151836783
H           44.58823507612643       -0.70113866985898       -8.73751450567806
H           45.30608475528039        1.38455502492544       -7.66132377937691
H           46.08568288564555        3.62962524119845       -4.89819384243823
H           45.04934940740558        3.30686178063898       -6.31305469274881
H           46.72327209694581        2.67718048951810       -6.26438400620714
H           41.95268900186085       -0.39749184658615       -4.48538916652176
H           40.06751363546675       -0.22819442078182       -2.58480731494606
H           45.02737302888043       -3.52014572534403        6.38043603497588
H           46.05596159786520       -3.85276823721812        4.96218823766944
H           46.71184383821399       -2.91921745641683        6.33272827097180
H           45.32514587025163       -1.61075757115956        7.73889668147152
H           44.63895013041208        0.47745666356987        8.83054222906531
H           43.94973459403054        2.42760270465127        7.50967815694939
H           44.21103078763667        4.17269511747623        5.94720547993617
H           42.53625528181196        3.54374080919701        5.96298124516350
H           43.18330295114980        4.32873636807289        4.49826871944941

          :  Hamiltonian                  GFN1-xTB          :
         :: total energy            -376.962523454146 Eh    ::
         :: gradient norm              0.000299669701 Eh/a0 ::
         :: HOMO-LUMO gap              0.954125202461 eV    ::
         :: SCC energy              -382.127660346177 Eh    ::
         :: repulsion energy           5.362953665369 Eh    ::

    * Orbital Energies and Occupations

         #    Occupation            Energy/Eh            Energy/eV
      -------------------------------------------------------------
         1        2.0000           -0.8019089             -21.8211
       ...           ...                  ...                  ...
       321        2.0000           -0.4009421             -10.9102
       322        2.0000           -0.4008359             -10.9073
       323        2.0000           -0.4007788             -10.9057
       324        2.0000           -0.4006016             -10.9009
       325        2.0000           -0.4004347             -10.8964
       326        2.0000           -0.4002484             -10.8913
       327        2.0000           -0.3980524             -10.8316
       328        2.0000           -0.3733980             -10.1607
       329        2.0000           -0.3732749             -10.1573
       330        2.0000           -0.3730290             -10.1506
       331        2.0000           -0.3709153             -10.0931
       332        2.0000           -0.3631128              -9.8808
       333        2.0000           -0.3536577              -9.6235 (HOMO)
       334                         -0.3185943              -8.6694 (LUMO)
       335                         -0.3084047              -8.3921
       336                         -0.3057764              -8.3206
       337                         -0.3056084              -8.3160
       338                         -0.3052329              -8.3058
       339                         -0.2986780              -8.1274
       340                         -0.2767203              -7.5299
       341                         -0.2701341              -7.3507
       342                         -0.2659779              -7.2376
       343                         -0.2495886              -6.7917
       344                         -0.2493272              -6.7845
       ...                                ...                  ...
       716                          1.3624579              37.0744
      -------------------------------------------------------------
                  HL-Gap            0.0350635 Eh            0.9541 eV

Wiberg/Mayer (AO) data.
largest (>0.10) Wiberg bond orders for each atom

     #   Z sym  total        # sym  WBO       # sym  WBO       # sym  WBO
 ---------------------------------------------------------------------------
     1  30 Zn   2.001 --    34 N    0.461     7 N    0.460    12 N    0.458
                            35 N    0.458
     2   6 C    3.929 --    33 C    1.357     3 C    1.357    46 H    0.972
     3   6 C    3.924 --     2 C    1.357     7 N    1.236     4 C    1.170
     4   6 C    3.960 --     5 C    1.660     3 C    1.170    47 H    0.976
     5   6 C    3.963 --     4 C    1.660     6 C    1.172    48 H    0.975
     6   6 C    3.918 --     8 C    1.322     7 N    1.241     5 C    1.172
     7   7 N    3.295 --     6 C    1.241     3 C    1.236     1 Zn   0.460
     8   6 C    3.933 --     9 C    1.328     6 C    1.322    36 C    1.013
     9   6 C    3.914 --     8 C    1.328    12 N    1.225    10 C    1.179
    10   6 C    3.961 --    11 C    1.648     9 C    1.179    49 H    0.975
    11   6 C    3.963 --    10 C    1.648    13 C    1.184    50 H    0.973
    12   7 N    3.299 --    13 C    1.261     9 C    1.225     1 Zn   0.458
    13   6 C    3.910 --    14 C    1.262    12 N    1.261    11 C    1.184
    14   6 C    3.939 --    13 C    1.262    15 C    1.262   145 C    1.171
    15   6 C    3.910 --    14 C    1.262    35 N    1.261    16 C    1.184
    16   6 C    3.963 --    17 C    1.648    15 C    1.184    51 H    0.973
    17   6 C    3.961 --    16 C    1.648    18 C    1.179    52 H    0.975
    18   6 C    3.914 --    19 C    1.328    35 N    1.225    17 C    1.179
    19   6 C    3.933 --    18 C    1.328    30 C    1.321    20 C    1.014
    20   6 C    3.978 --    21 C    1.344    27 C    1.344    19 C    1.014
                            25 C    0.101
    21   6 C    3.903 --    24 C    1.362    20 C    1.344    22 O    1.029
    22   8 O    2.144 --    21 C    1.029    23 C    0.937
    23   6 C    3.909 --    54 H    0.983    55 H    0.980    53 H    0.980
                            22 O    0.937
    24   6 C    3.983 --    25 C    1.442    21 C    1.362    56 H    0.969
    25   6 C    3.992 --    24 C    1.442    26 C    1.442    57 H    0.974
                            20 C    0.101
    26   6 C    3.983 --    25 C    1.442    27 C    1.363    58 H    0.969
    27   6 C    3.902 --    26 C    1.363    20 C    1.344    28 O    1.029
    28   8 O    2.143 --    27 C    1.029    29 C    0.937
    29   6 C    3.909 --    59 H    0.983    60 H    0.980    61 H    0.980
                            28 O    0.937
    30   6 C    3.918 --    19 C    1.321    34 N    1.241    31 C    1.172
    31   6 C    3.963 --    32 C    1.660    30 C    1.172    62 H    0.975
    32   6 C    3.960 --    31 C    1.660    33 C    1.170    63 H    0.976
    33   6 C    3.924 --     2 C    1.357    34 N    1.236    32 C    1.170
    34   7 N    3.295 --    30 C    1.241    33 C    1.236     1 Zn   0.461
    35   7 N    3.299 --    15 C    1.261    18 C    1.225     1 Zn   0.458
    36   6 C    3.978 --    37 C    1.345    43 C    1.344     8 C    1.013
                            41 C    0.101
    37   6 C    3.903 --    40 C    1.362    36 C    1.345    38 O    1.029
    38   8 O    2.144 --    37 C    1.029    39 C    0.937
    39   6 C    3.909 --    64 H    0.983    66 H    0.980    65 H    0.980
                            38 O    0.937
    40   6 C    3.983 --    41 C    1.442    37 C    1.362    67 H    0.969
    41   6 C    3.993 --    40 C    1.442    42 C    1.442    68 H    0.974
                            36 C    0.101
    42   6 C    3.983 --    41 C    1.442    43 C    1.362    69 H    0.969
    43   6 C    3.902 --    42 C    1.362    36 C    1.344    44 O    1.029
    44   8 O    2.143 --    43 C    1.029    45 C    0.937
    45   6 C    3.909 --    71 H    0.983    72 H    0.980    70 H    0.980
                            44 O    0.937
    46   1 H    1.002 --     2 C    0.972
    47   1 H    0.999 --     4 C    0.976
    48   1 H    1.003 --     5 C    0.975
    49   1 H    1.003 --    10 C    0.975
    50   1 H    1.005 --    11 C    0.973
    51   1 H    1.005 --    16 C    0.973
    52   1 H    1.003 --    17 C    0.975
    53   1 H    1.009 --    23 C    0.980
    54   1 H    1.016 --    23 C    0.983
    55   1 H    1.009 --    23 C    0.980
    56   1 H    1.000 --    24 C    0.969
    57   1 H    1.003 --    25 C    0.974
    58   1 H    1.000 --    26 C    0.969
    59   1 H    1.016 --    29 C    0.983
    60   1 H    1.009 --    29 C    0.980
    61   1 H    1.009 --    29 C    0.980
    62   1 H    1.003 --    31 C    0.975
    63   1 H    0.999 --    32 C    0.976
    64   1 H    1.016 --    39 C    0.983
    65   1 H    1.009 --    39 C    0.980
    66   1 H    1.009 --    39 C    0.980
    67   1 H    1.000 --    40 C    0.969
    68   1 H    1.003 --    41 C    0.974
    69   1 H    1.000 --    42 C    0.969
    70   1 H    1.009 --    45 C    0.980
    71   1 H    1.016 --    45 C    0.983
    72   1 H    1.009 --    45 C    0.980
    73  30 Zn   2.001 --   106 N    0.461    79 N    0.460    84 N    0.458
                           107 N    0.458
    74   6 C    3.928 --   105 C    1.357    75 C    1.357   118 H    0.972
    75   6 C    3.924 --    74 C    1.357    79 N    1.236    76 C    1.170
    76   6 C    3.960 --    77 C    1.660    75 C    1.170   119 H    0.976
    77   6 C    3.963 --    76 C    1.660    78 C    1.172   120 H    0.975
    78   6 C    3.918 --    80 C    1.322    79 N    1.241    77 C    1.172
    79   7 N    3.294 --    78 C    1.241    75 C    1.236    73 Zn   0.460
    80   6 C    3.933 --    81 C    1.328    78 C    1.322   108 C    1.013
    81   6 C    3.913 --    80 C    1.328    84 N    1.225    82 C    1.179
    82   6 C    3.961 --    83 C    1.647    81 C    1.179   121 H    0.975
    83   6 C    3.963 --    82 C    1.647    85 C    1.185   122 H    0.971
    84   7 N    3.299 --    85 C    1.262    81 C    1.225    73 Zn   0.458
    85   6 C    3.909 --    84 N    1.262    86 C    1.261    83 C    1.185
    86   6 C    3.939 --    87 C    1.261    85 C    1.261   148 C    1.174
    87   6 C    3.909 --   107 N    1.262    86 C    1.261    88 C    1.185
    88   6 C    3.963 --    89 C    1.648    87 C    1.185   123 H    0.971
    89   6 C    3.961 --    88 C    1.648    90 C    1.179   124 H    0.975
    90   6 C    3.913 --    91 C    1.328   107 N    1.225    89 C    1.179
    91   6 C    3.933 --    90 C    1.328   102 C    1.321    92 C    1.013
    92   6 C    3.978 --    99 C    1.345    93 C    1.344    91 C    1.013
                            97 C    0.101
    93   6 C    3.903 --    96 C    1.362    92 C    1.344    94 O    1.029
    94   8 O    2.144 --    93 C    1.029    95 C    0.936
    95   6 C    3.909 --   126 H    0.983   127 H    0.980   125 H    0.980
                            94 O    0.936
    96   6 C    3.983 --    97 C    1.442    93 C    1.362   128 H    0.969
    97   6 C    3.993 --    96 C    1.442    98 C    1.442   129 H    0.974
                            92 C    0.101
    98   6 C    3.983 --    97 C    1.442    99 C    1.362   130 H    0.969
    99   6 C    3.902 --    98 C    1.362    92 C    1.345   100 O    1.028
   100   8 O    2.143 --    99 C    1.028   101 C    0.937
   101   6 C    3.909 --   131 H    0.983   132 H    0.980   133 H    0.980
                           100 O    0.937
   102   6 C    3.918 --    91 C    1.321   106 N    1.241   103 C    1.172
   103   6 C    3.963 --   104 C    1.660   102 C    1.172   134 H    0.975
   104   6 C    3.960 --   103 C    1.660   105 C    1.170   135 H    0.976
   105   6 C    3.924 --    74 C    1.357   106 N    1.236   104 C    1.170
   106   7 N    3.295 --   102 C    1.241   105 C    1.236    73 Zn   0.461
   107   7 N    3.299 --    87 C    1.262    90 C    1.225    73 Zn   0.458
   108   6 C    3.978 --   115 C    1.345   109 C    1.344    80 C    1.013
                           113 C    0.101
   109   6 C    3.903 --   112 C    1.362   108 C    1.344   110 O    1.029
   110   8 O    2.144 --   109 C    1.029   111 C    0.937
   111   6 C    3.909 --   136 H    0.983   138 H    0.980   137 H    0.980
                           110 O    0.937
   112   6 C    3.983 --   113 C    1.442   109 C    1.362   139 H    0.969
   113   6 C    3.993 --   114 C    1.442   112 C    1.442   140 H    0.974
                           108 C    0.101
   114   6 C    3.983 --   113 C    1.442   115 C    1.362   141 H    0.969
   115   6 C    3.902 --   114 C    1.362   108 C    1.345   116 O    1.029
   116   8 O    2.143 --   115 C    1.029   117 C    0.937
   117   6 C    3.909 --   143 H    0.983   144 H    0.980   142 H    0.980
                           116 O    0.937
   118   1 H    1.002 --    74 C    0.972
   119   1 H    0.999 --    76 C    0.976
   120   1 H    1.003 --    77 C    0.975
   121   1 H    1.003 --    82 C    0.975
   122   1 H    1.006 --    83 C    0.971
   123   1 H    1.006 --    88 C    0.971
   124   1 H    1.003 --    89 C    0.975
   125   1 H    1.009 --    95 C    0.980
   126   1 H    1.016 --    95 C    0.983
   127   1 H    1.009 --    95 C    0.980
   128   1 H    1.000 --    96 C    0.969
   129   1 H    1.003 --    97 C    0.974
   130   1 H    1.000 --    98 C    0.969
   131   1 H    1.016 --   101 C    0.983
   132   1 H    1.009 --   101 C    0.980
   133   1 H    1.009 --   101 C    0.980
   134   1 H    1.003 --   103 C    0.975
   135   1 H    0.999 --   104 C    0.976
   136   1 H    1.016 --   111 C    0.983
   137   1 H    1.009 --   111 C    0.980
   138   1 H    1.009 --   111 C    0.980
   139   1 H    1.000 --   112 C    0.969
   140   1 H    1.003 --   113 C    0.974
   141   1 H    1.000 --   114 C    0.969
   142   1 H    1.009 --   117 C    0.980
   143   1 H    1.016 --   117 C    0.983
   144   1 H    1.009 --   117 C    0.980
   145   6 C    3.930 --   146 C    2.580    14 C    1.171
   146   6 C    3.932 --   145 C    2.580   150 C    1.172
   147   6 C    3.933 --   148 C    2.578   162 C    1.175
   148   6 C    3.930 --   147 C    2.578    86 C    1.174
   149  30 Zn   1.998 --   183 N    0.458   160 N    0.458   155 N    0.457
                           182 N    0.457
   150   6 C    3.928 --   151 C    1.261   181 C    1.260   146 C    1.172
   151   6 C    3.911 --   155 N    1.262   150 C    1.261   152 C    1.186
   152   6 C    3.961 --   153 C    1.646   151 C    1.186   194 H    0.973
   153   6 C    3.961 --   152 C    1.646   154 C    1.181   195 H    0.975
   154   6 C    3.912 --   156 C    1.325   155 N    1.224   153 C    1.181
   155   7 N    3.293 --   151 C    1.262   154 C    1.224   149 Zn   0.457
   156   6 C    3.928 --   157 C    1.325   154 C    1.325   184 C    1.013
   157   6 C    3.912 --   156 C    1.325   160 N    1.224   158 C    1.181
   158   6 C    3.961 --   159 C    1.645   157 C    1.181   196 H    0.975
   159   6 C    3.961 --   158 C    1.645   161 C    1.186   197 H    0.971
   160   7 N    3.293 --   161 C    1.262   157 C    1.224   149 Zn   0.458
   161   6 C    3.910 --   160 N    1.262   162 C    1.259   159 C    1.186
   162   6 C    3.929 --   161 C    1.259   163 C    1.259   147 C    1.175
   163   6 C    3.910 --   183 N    1.262   162 C    1.259   164 C    1.186
   164   6 C    3.961 --   165 C    1.645   163 C    1.186   198 H    0.971
   165   6 C    3.961 --   164 C    1.645   166 C    1.181   199 H    0.975
   166   6 C    3.912 --   167 C    1.326   183 N    1.224   165 C    1.181
   167   6 C    3.928 --   166 C    1.326   178 C    1.325   168 C    1.013
   168   6 C    3.978 --   169 C    1.345   175 C    1.344   167 C    1.013
                           173 C    0.101
   169   6 C    3.903 --   172 C    1.362   168 C    1.345   170 O    1.029
   170   8 O    2.144 --   169 C    1.029   171 C    0.937
   171   6 C    3.909 --   201 H    0.983   200 H    0.980   202 H    0.980
                           170 O    0.937
   172   6 C    3.983 --   173 C    1.442   169 C    1.362   203 H    0.969
   173   6 C    3.993 --   172 C    1.442   174 C    1.442   204 H    0.974
                           168 C    0.101
   174   6 C    3.983 --   173 C    1.442   175 C    1.362   205 H    0.969
   175   6 C    3.903 --   174 C    1.362   168 C    1.344   176 O    1.030
   176   8 O    2.144 --   175 C    1.030   177 C    0.936
   177   6 C    3.909 --   206 H    0.983   208 H    0.980   207 H    0.980
                           176 O    0.936
   178   6 C    3.912 --   167 C    1.325   182 N    1.224   179 C    1.181
   179   6 C    3.961 --   180 C    1.646   178 C    1.181   209 H    0.975
   180   6 C    3.961 --   179 C    1.646   181 C    1.186   210 H    0.973
   181   6 C    3.911 --   182 N    1.262   150 C    1.260   180 C    1.186
   182   7 N    3.293 --   181 C    1.262   178 C    1.224   149 Zn   0.457
   183   7 N    3.293 --   163 C    1.262   166 C    1.224   149 Zn   0.458
   184   6 C    3.978 --   191 C    1.345   185 C    1.344   156 C    1.013
                           189 C    0.101
   185   6 C    3.903 --   188 C    1.362   184 C    1.344   186 O    1.030
   186   8 O    2.144 --   185 C    1.030   187 C    0.936
   187   6 C    3.909 --   212 H    0.983   213 H    0.980   211 H    0.980
                           186 O    0.936
   188   6 C    3.983 --   189 C    1.442   185 C    1.362   214 H    0.969
   189   6 C    3.993 --   190 C    1.442   188 C    1.442   215 H    0.974
                           184 C    0.101
   190   6 C    3.983 --   189 C    1.442   191 C    1.362   216 H    0.969
   191   6 C    3.903 --   190 C    1.362   184 C    1.345   192 O    1.029
   192   8 O    2.144 --   191 C    1.029   193 C    0.937
   193   6 C    3.909 --   219 H    0.983   218 H    0.980   217 H    0.980
                           192 O    0.937
   194   1 H    1.005 --   152 C    0.973
   195   1 H    1.003 --   153 C    0.975
   196   1 H    1.003 --   158 C    0.975
   197   1 H    1.006 --   159 C    0.971
   198   1 H    1.006 --   164 C    0.971
   199   1 H    1.003 --   165 C    0.975
   200   1 H    1.009 --   171 C    0.980
   201   1 H    1.016 --   171 C    0.983
   202   1 H    1.009 --   171 C    0.980
   203   1 H    1.000 --   172 C    0.969
   204   1 H    1.003 --   173 C    0.974
   205   1 H    1.000 --   174 C    0.969
   206   1 H    1.016 --   177 C    0.983
   207   1 H    1.009 --   177 C    0.980
   208   1 H    1.009 --   177 C    0.980
   209   1 H    1.003 --   179 C    0.975
   210   1 H    1.005 --   180 C    0.973
   211   1 H    1.009 --   187 C    0.980
   212   1 H    1.016 --   187 C    0.983
   213   1 H    1.009 --   187 C    0.980
   214   1 H    1.000 --   188 C    0.969
   215   1 H    1.003 --   189 C    0.974
   216   1 H    1.000 --   190 C    0.969
   217   1 H    1.009 --   193 C    0.980
   218   1 H    1.009 --   193 C    0.980
   219   1 H    1.016 --   193 C    0.983
 ---------------------------------------------------------------------------

           -------------------------------------------------
          | TOTAL ENERGY             -376.962523454146 Eh   |
          | GRADIENT NORM               0.000299669701 Eh/α |
          | HOMO-LUMO GAP               0.954125202461 eV   |
           -------------------------------------------------

 * finished run on 2022/07/30 at 14:52:06.292
