   * xtb version 6.5.1 (b24c23e) compiled by 'conda@728c89f4b128' on 2022-07-12
          program call               : xtb Fe_Ph2OMe_C2_3.xyz --gfn 1 --opt -T 48

   ID    Z sym.   atoms
    1   26 Fe     1, 73, 149
    2    6 C      2-6, 8-11, 13-21, 23-27, 29-33, 36, 37, 39-43, 45, 74-78,
                  80-83, 85-93, 95-99, 101-105, 108, 109, 111-115, 117,
                  145-148, 150-154, 156-159, 161-169, 171-175, 177-181, 184,
                  185, 187-191, 193
    3    7 N      7, 12, 34, 35, 79, 84, 106, 107, 155, 160, 182, 183
    4    8 O      22, 28, 38, 44, 94, 100, 110, 116, 170, 176, 186, 192
    5    1 H      46-72, 118-144, 194-219
########################################################################
[WARNING] Please study the warnings concerning your input carefully
-1- prog_main_parseArguments: Unknown option '-T' provided
########################################################################

          :  Hamiltonian                  GFN1-xTB          :
 * total energy  :  -382.7839623 Eh     change       -0.2097067E-08 Eh
 * total energy  :  -383.3130642 Eh     change       -0.5291020E+00 Eh
 * total energy  :  -383.4581838 Eh     change       -0.1451195E+00 Eh
 * total energy  :  -383.5341081 Eh     change       -0.7592430E-01 Eh
 * total energy  :  -383.5647393 Eh     change       -0.3063126E-01 Eh
 * total energy  :  -383.5805174 Eh     change       -0.1577808E-01 Eh
 * total energy  :  -383.5879519 Eh     change       -0.7434457E-02 Eh
 * total energy  :  -383.5916546 Eh     change       -0.3702765E-02 Eh
 * total energy  :  -383.5934862 Eh     change       -0.1831607E-02 Eh
 * total energy  :  -383.5945875 Eh     change       -0.1101217E-02 Eh
 * total energy  :  -383.6013002 Eh     change       -0.1186537E-04 Eh
 * total energy  :  -383.6013095 Eh     change       -0.9266545E-05 Eh
 * total energy  :  -383.6013193 Eh     change       -0.9794652E-05 Eh
 * total energy  :  -383.6013317 Eh     change       -0.1239858E-04 Eh
 * total energy  :  -383.6013466 Eh     change       -0.1492818E-04 Eh
 * total energy  :  -383.6013641 Eh     change       -0.1752491E-04 Eh
 * total energy  :  -383.6013710 Eh     change       -0.6911984E-05 Eh
 * total energy  :  -383.6013803 Eh     change       -0.9317645E-05 Eh
 * total energy  :  -383.6013850 Eh     change       -0.4648065E-05 Eh
   *** GEOMETRY OPTIMIZATION CONVERGED AFTER 96 ITERATIONS ***

 final structure:
================
219
 xtb: 6.5.1 (b24c23e)
Fe          33.75898411331978        0.15393366307330       -0.08046556594012
C           30.38470899788864        0.39513555671031       -0.28291847090287
C           31.03519310717954        1.20561524734775        0.62459976547644
C           30.36001711262741        2.13104013260289        1.48434426363320
C           31.30202561663345        2.65875086557498        2.30083402109593
C           32.55368253237971        2.06667634089664        1.92777787204360
N           32.37846736824973        1.18785577752546        0.89369117084622
C           33.75635309589927        2.32283284283745        2.57542160925012
C           34.96176137526222        1.76676863132692        2.17709688828803
C           36.21973484278278        2.07644039214417        2.78849472396996
C           37.17434022433175        1.46114651641559        2.05098151480287
N           35.14925439355615        0.94398538840635        1.09156636686345
C           36.49757167752744        0.76853219891123        0.99869926784832
C           37.16660718575501        0.06295321755827       -0.00853505423866
C           36.50038025306939       -0.65688574551304       -1.00746147577241
C           37.18169160820829       -1.45391480490095       -1.98024797127714
C           36.22777889062473       -2.11480977505122       -2.67812392054720
C           34.96421828983827       -1.70377759949286       -2.14307514872646
C           33.74319583348422       -2.19504966902621       -2.57842012575804
C           33.72936935915875       -3.23390306272927       -3.64496892152735
C           34.09855203391308       -2.91361676707224       -4.95798044374183
O           34.45280244528119       -1.61978423062316       -5.17612345576488
C           34.84733673612514       -1.19131896218212       -6.46349763818828
C           34.07878764051330       -3.88977207779131       -5.95373423992849
C           33.69375180551707       -5.18240842014260       -5.63154981243740
C           33.32453591931770       -5.52280542955907       -4.33898000086041
C           33.33897626450936       -4.54565339633337       -3.34417599871756
O           32.99908007841187       -4.78039536704201       -2.04975861567991
C           32.58497582693118       -6.06744167686554       -1.63887407518113
C           32.52565779578698       -1.74194005562969       -2.08456348378547
C           31.25310829939096       -2.17289119543681       -2.58649769079058
C           30.31248981218945       -1.42346289987425       -1.96511279037769
C           31.01098953758197       -0.54388330109204       -1.07660898215876
N           32.36204931597787       -0.75873628064354       -1.14682931175056
N           35.14980641887345       -0.80122644438400       -1.12290031206019
C           33.75706910937568        3.26200359263839        3.73108134912986
C           33.96895479148571        2.78573081735664        5.03138987805797
O           34.15482097673247        1.44480974241113        5.14870651387633
C           34.37812324229949        0.86070630957460        6.41585942692611
C           33.97212121785878        3.66646036849629        6.11273768066638
C           33.77036288317053        5.01988297913368        5.88805511563136
C           33.56374896716276        5.51468801165234        4.60923152087598
C           33.55520816840168        4.63358029631050        3.52836390728813
O           33.36908248362035        5.02134148975850        2.23932086798508
C           33.17356453055336        6.38435037710903        1.92168145355351
H           29.30665972208623        0.48459872859231       -0.35951570663787
H           29.29951088146155        2.32688717250606        1.45943366984596
H           31.17503351531020        3.38324381353035        3.08879714568881
H           36.34513886507337        2.69788591842657        3.66013901814387
H           38.24308320700345        1.47277995919095        2.19111294081921
H           38.25280553368358       -1.50839631427881       -2.08948997660741
H           36.35735990648499       -2.81855355505340       -3.48392882943653
H           34.03865674582539       -1.31567273952968       -7.19394148273472
H           35.08609814868106       -0.13025420029899       -6.37023249637045
H           35.73645084289630       -1.73098349951653       -6.81185505443595
H           34.35865408280272       -3.65187350806809       -6.97126001273015
H           33.68037309836764       -5.94172061023351       -6.40577885566594
H           33.02922596146468       -6.53932304487870       -4.11593547362781
H           32.36466833747767       -5.98928087045393       -0.57263080701129
H           31.68071201748266       -6.38745161813018       -2.17082109107168
H           33.37643893201972       -6.81164812208776       -1.78945540471336
H           31.11336910251964       -2.94173925990853       -3.32906600365430
H           29.24060384278305       -1.44850041018390       -2.08380993042466
H           34.49856354163123       -0.20979442823675        6.23977783386378
H           33.52670262450442        1.02155887718445        7.08830976622064
H           35.28893951104617        1.25319932772736        6.88434954908581
H           34.13066946999561        3.30856882007153        7.12121355437206
H           33.77508400763331        5.70495450295122        6.72878278657236
H           33.41202105424004        6.57575665826516        4.46308593829246
H           34.03764512674586        6.99297041639102        2.21475544801271
H           33.05460380263413        6.42928222852394        0.83756227128136
H           32.27053333916305        6.78312559116601        2.39976532082440
Fe          55.48565552698493        0.05620087965519       -0.13724952294968
C           58.85998360886355        0.33123188066410       -0.36154282534823
C           58.22347231859180       -0.51781990268202       -1.24353187944990
C           58.91261148537524       -1.30593578097455       -2.22087766225915
C           57.96521471359094       -1.98919796478901       -2.90496304683493
C           56.69771371170961       -1.60105561813137       -2.35788148891598
N           56.87123672488724       -0.72159349710456       -1.32372723181057
C           55.47442877613675       -2.03114935136171       -2.85712228873094
C           54.25831305997910       -1.62044302574173       -2.33346659850478
C           52.99082351962530       -1.98154704475363       -2.89400177037996
C           52.04250383392713       -1.40410703351875       -2.11882431632239
N           54.08160010696684       -0.81852297563817       -1.23127409373225
C           52.73153509919034       -0.69630744700740       -1.08486335443608
C           52.07420018077261       -0.05964151314755       -0.02487774520105
C           52.75627347650443        0.57022125666870        1.02397467841387
C           52.09392302581901        1.15842785328443        2.14642263338755
C           53.05735674590387        1.70686122918991        2.92389199979252
C           54.30522346753464        1.47130757969968        2.26149453598767
C           55.51950760576868        1.96415217668196        2.71120285259825
C           55.53989978517726        2.78678078342001        3.95210521735549
C           54.98412780137926        4.07312544798594        3.95942040174797
O           54.45023812239271        4.49518611092626        2.78361970479643
C           53.85619656813817        5.77346729325895        2.68282240611199
C           55.00996536435532        4.84500343959252        5.12057037131119
C           55.58704459078609        4.32571930216020        6.26960368626867
C           56.14187638630630        3.05495022684522        6.28617985469630
C           56.12135819902861        2.28476086883519        5.12372522989169
O           56.63328973929802        1.02893963455214        5.04017398138737
C           57.23104563255253        0.42226935045525        6.16770006414296
C           56.71878681475231        1.75016461084850        2.04247740744913
C           57.97039631557472        2.32001265582261        2.44857607812692
C           58.90345829391607        1.88021814843094        1.57187837028410
C           58.22067264672432        1.03811890531183        0.63583991187432
N           56.88167697547443        0.98342959667839        0.92156256966289
N           54.10476692289375        0.74725322297167        1.10974763239264
C           55.46524964431492       -2.95265592891358       -4.02644174541563
C           55.04058918621377       -4.27973848674244       -3.87642823138853
O           54.66722854846365       -4.64494076499545       -2.62247960979083
C           54.20123776467987       -5.95431136875054       -2.36588624755971
C           55.02898125806241       -5.14423929245590       -4.97072964006226
C           55.43467968260828       -4.67653718579769       -6.21139053185967
C           55.85388653472429       -3.36615259784918       -6.38493867739326
C           55.87122319635428       -2.50282528800490       -5.28997380732044
O           56.25493998983084       -1.20102060520102       -5.36192036769885
C           56.68616790894762       -0.64777277856237       -6.58848939339116
H           59.93686989597031        0.43058758942360       -0.44209059197036
H           59.98382256132041       -1.32424322781480       -2.34675481310787
H           58.09729001992084       -2.68847283448968       -3.71463320366703
H           52.85641803444960       -2.59641679513053       -3.76900748607734
H           50.97070393592234       -1.45744093639558       -2.21836408458746
H           51.02827011652556        1.14655946855649        2.30664245344703
H           52.94448305626704        2.23454118503966        3.85688171092275
H           54.58222131397469        6.57092892132984        2.88261778229453
H           53.50013034179337        5.86219143634596        1.65479530489605
H           53.00639676680105        5.87677660430688        3.36843483000115
H           54.58741318227081        5.84072821465438        5.13587734662286
H           55.60542552238704        4.92555302199125        7.17294606243393
H           56.58470687539844        2.67540112519011        7.19728080339262
H           57.55362058699766       -0.56895696136681        5.84378508426107
H           58.10360787373457        0.98946676675294        6.51409671410240
H           56.51659954058724        0.31663986876638        6.99315848679341
H           58.10180649207478        2.97279364919994        3.29644117069289
H           59.96155371895053        2.08884061068320        1.54828396457573
H           53.95272442472071       -5.98515480329451       -1.30349609220551
H           54.97312836161205       -6.70433837866982       -2.57724262161114
H           53.30335104921912       -6.18287839615480       -2.95276541089038
H           54.70768946643893       -6.17168488303449       -4.86431771428582
H           55.42312625237864       -5.34819847279033       -7.06279090472520
H           56.16136024171980       -3.02736419674211       -7.36520515775651
H           55.89116114893937       -0.67560691355149       -7.34365851632560
H           56.94455941257298        0.39181121333553       -6.37849751562067
H           57.57128369253125       -1.16764680475822       -6.97487505365891
C           38.57112970444852        0.05117799841102       -0.00011716669820
C           39.78977388528647        0.03989019346363        0.00295162912269
C           49.45082380339623       -0.07157282812859        0.01022263737105
C           50.67000558476877       -0.07145441978923       -0.00150681041600
Fe          44.61895574667487       -0.02529568635851        0.00982522490093
C           41.19375940909852        0.02409915732377        0.00468512154537
C           41.86246120362671        0.13814171077101        1.22941827896753
C           41.18000714938129        0.23706337924271        2.48123808367479
C           42.13519157920465        0.29999113642167        3.43957053915593
C           43.39718443722506        0.24338522888832        2.76659663483644
N           43.21362681897848        0.13897677541862        1.40934972537621
C           44.61866729050364        0.26461469579803        3.42449484549234
C           45.84066888310451        0.18972608362434        2.77129799721731
C           47.10175028489213        0.24139120604664        3.44599048820417
C           48.05775958851454        0.15669363183567        2.49008976851441
N           46.02587538192928        0.08327181923037        1.41445458852630
C           47.37736831699745        0.06148487004863        1.23715630333719
C           48.04685730458515       -0.06309848517714        0.01319656082464
C           47.37674381831479       -0.17612674982084       -1.21175938251515
C           48.05751821284083       -0.29652716793369       -2.46235292029897
C           47.10191371074324       -0.35786714587504       -3.42030704864658
C           45.84098348655964       -0.26561954555843       -2.74953381443838
C           44.61936931430819       -0.30006500705795       -3.40726185046176
C           44.62365737329928       -0.39689322706716       -4.89289434982669
C           44.19294054110742       -1.56697829603303       -5.53201967443250
O           43.79221455828961       -2.57604996679372       -4.71528177299055
C           43.33181548219900       -3.79725600504100       -5.25733868508654
C           44.20377271634996       -1.65397324882479       -6.92384061861496
C           44.63940631385231       -0.56932990649812       -7.66995371940638
C           45.06730291550176        0.59982831001978       -7.05938748918539
C           45.06250583236648        0.68565669303773       -5.66760358447986
O           45.45521622398083        1.78745246424847       -4.97742106564841
C           45.93337456230974        2.92954657352966       -5.65901232880781
C           43.39674599558186       -0.24382342332008       -2.75325918011000
C           42.13519191662579       -0.26535770091471       -3.42918910819991
C           41.17941434023852       -0.18364396936297       -2.47272987374658
C           41.86146031782448       -0.10540242461708       -1.21917231420173
N           43.21254593733730       -0.13763661979332       -1.39621188288139
N           46.02575654784670       -0.16053690810379       -1.39255227367700
C           44.61761010222227        0.36906780269024        4.90979110140172
C           44.99935025948164       -0.72737041805825        5.69456281568807
O           45.35017987928248       -1.84930432170105        5.01421382346489
C           45.75414298359262       -3.01269427117927        5.70765805423668
C           44.99207585676248       -0.63389038862180        7.08593557710575
C           44.60950328734113        0.55650334917260        7.68547158969112
C           44.23073250342426        1.65525395646414        6.92895601927688
C           44.23135369952544        1.56059419153925        5.53763815204247
O           43.88271747514693        2.58026381609734        4.71042202122164
C           43.46496944927554        3.82235008603836        5.23947452892463
H           40.10859118695117        0.24484298054276        2.59853179385746
H           42.00738185807054        0.37439553023931        4.50705076979505
H           47.22826043532677        0.33042981537594        4.51252549535110
H           49.12870787152324        0.15265564707924        2.60993555794981
H           49.12831583352789       -0.32449931202009       -2.58002087174713
H           47.22927542571558       -0.45654854220612       -4.48584902078457
H           42.44654076824591       -3.64857870669690       -5.88753578397711
H           43.06410895083055       -4.42542319495276       -4.40576367504022
H           44.11332791188564       -4.29722290819842       -5.84229245845670
H           43.87775517657371       -2.55431577645734       -7.42712552656456
H           44.64570636581539       -0.63682962603533       -8.75232298382524
H           45.40008090266380        1.43108090486018       -7.66639644489635
H           46.19359612281579        3.65620696412431       -4.88721009276161
H           45.16463273534480        3.35837642450263       -6.31317377054739
H           46.82653583896958        2.69836963523979       -6.25199390222449
H           42.00800495912632       -0.33238666112011       -4.49721608510631
H           40.10827505329866       -0.16613633154685       -2.59242166309993
H           44.95203060551169       -3.39645121427120        6.34969991007231
H           45.98779904302349       -3.75563989019492        4.94289434627784
H           46.64814046943788       -2.82792991822228        6.31547814179097
H           45.28016998342170       -1.47575000369050        7.70113599687479
H           44.60617290947251        0.62956723406518        8.76750293311849
H           43.93870562038450        2.57183133371697        7.42375132076146
H           44.25857090300571        4.29449286283911        5.83123594637028
H           42.56675428304165        3.71312723307852        5.85933069002186
H           43.23317664748321        4.45518802357020        4.38085033498828

          :  Hamiltonian                  GFN1-xTB          :
         :: total energy            -383.601385003479 Eh    ::
         :: gradient norm              0.000630487995 Eh/a0 ::
         :: HOMO-LUMO gap              0.049830393378 eV    ::
         :: SCC energy              -388.836771929813 Eh    ::
         :: repulsion energy           5.435296292480 Eh    ::

    * Orbital Energies and Occupations

         #    Occupation            Energy/Eh            Energy/eV
      -------------------------------------------------------------
         1        2.0000           -0.8060969             -21.9350
       ...           ...                  ...                  ...
       330        2.0000           -0.3789452             -10.3116
       331        2.0000           -0.3788424             -10.3088
       332        1.9999           -0.3743383             -10.1863
       333        1.9927           -0.3700359             -10.0692
       334        1.9917           -0.3699144             -10.0659
       335        1.9905           -0.3697863             -10.0624
       336        1.9704           -0.3686971             -10.0328
       337        1.9610           -0.3684309             -10.0255
       338        1.9599           -0.3684050             -10.0248
       339        1.9590           -0.3683830             -10.0242
       340        1.9585           -0.3683716             -10.0239
       341        1.9571           -0.3683391             -10.0230
       342        1.2175           -0.3651291              -9.9357 (HOMO)
       343        0.3692           -0.3632979              -9.8858 (LUMO)
       344        0.3424           -0.3632109              -9.8835
       345        0.3302           -0.3631695              -9.8823
       346                         -0.3256063              -8.8602
       347                         -0.3136283              -8.5343
       348                         -0.3115980              -8.4790
       349                         -0.3093813              -8.4187
       350                         -0.3092425              -8.4149
       351                         -0.3036896              -8.2638
       352                         -0.2854459              -7.7674
       353                         -0.2831094              -7.7038
       ...                                ...                  ...
       731                          1.3490308              36.7090
      -------------------------------------------------------------
                  HL-Gap            0.0018312 Eh            0.0498 eV

Wiberg/Mayer (AO) data.
largest (>0.10) Wiberg bond orders for each atom

     #   Z sym  total        # sym  WBO       # sym  WBO       # sym  WBO
 ---------------------------------------------------------------------------
     1  26 Fe   3.099 --    34 N    0.663     7 N    0.662    12 N    0.657
                            35 N    0.655
     2   6 C    3.917 --     3 C    1.363    33 C    1.362    46 H    0.971
     3   6 C    3.927 --     2 C    1.363     7 N    1.211     4 C    1.172
     4   6 C    3.959 --     5 C    1.650     3 C    1.172    47 H    0.976
     5   6 C    3.962 --     4 C    1.650     6 C    1.176    48 H    0.974
     6   6 C    3.920 --     8 C    1.316     7 N    1.225     5 C    1.176
     7   7 N    3.376 --     6 C    1.225     3 C    1.211     1 Fe   0.662
     8   6 C    3.918 --     9 C    1.341     6 C    1.316    36 C    1.014
     9   6 C    3.918 --     8 C    1.341    12 N    1.198    10 C    1.178
    10   6 C    3.958 --    11 C    1.641     9 C    1.178    49 H    0.974
    11   6 C    3.962 --    10 C    1.641    13 C    1.186    50 H    0.970
    12   7 N    3.376 --    13 C    1.249     9 C    1.198     1 Fe   0.657
    13   6 C    3.911 --    14 C    1.254    12 N    1.249    11 C    1.186
    14   6 C    3.917 --    15 C    1.254    13 C    1.254   145 C    1.191
    15   6 C    3.911 --    14 C    1.254    35 N    1.248    16 C    1.185
    16   6 C    3.961 --    17 C    1.641    15 C    1.185    51 H    0.971
    17   6 C    3.958 --    16 C    1.641    18 C    1.179    52 H    0.974
    18   6 C    3.918 --    19 C    1.340    35 N    1.200    17 C    1.179
    19   6 C    3.918 --    18 C    1.340    30 C    1.317    20 C    1.015
    20   6 C    3.977 --    21 C    1.343    27 C    1.342    19 C    1.015
                            25 C    0.101
    21   6 C    3.903 --    24 C    1.362    20 C    1.343    22 O    1.031
    22   8 O    2.146 --    21 C    1.031    23 C    0.935
    23   6 C    3.908 --    54 H    0.983    55 H    0.980    53 H    0.980
                            22 O    0.935
    24   6 C    3.983 --    25 C    1.442    21 C    1.362    56 H    0.969
    25   6 C    3.992 --    26 C    1.442    24 C    1.442    57 H    0.974
                            20 C    0.101
    26   6 C    3.983 --    25 C    1.442    27 C    1.362    58 H    0.969
    27   6 C    3.903 --    26 C    1.362    20 C    1.342    28 O    1.033
    28   8 O    2.146 --    27 C    1.033    29 C    0.935
    29   6 C    3.907 --    59 H    0.983    60 H    0.980    61 H    0.980
                            28 O    0.935
    30   6 C    3.920 --    19 C    1.317    34 N    1.224    31 C    1.175
    31   6 C    3.962 --    32 C    1.650    30 C    1.175    62 H    0.974
    32   6 C    3.959 --    31 C    1.650    33 C    1.173    63 H    0.976
    33   6 C    3.927 --     2 C    1.362    34 N    1.212    32 C    1.173
    34   7 N    3.377 --    30 C    1.224    33 C    1.212     1 Fe   0.663
    35   7 N    3.375 --    15 C    1.248    18 C    1.200     1 Fe   0.655
    36   6 C    3.977 --    37 C    1.343    43 C    1.342     8 C    1.014
                            41 C    0.101
    37   6 C    3.903 --    40 C    1.361    36 C    1.343    38 O    1.032
    38   8 O    2.146 --    37 C    1.032    39 C    0.935
    39   6 C    3.908 --    64 H    0.983    66 H    0.980    65 H    0.980
                            38 O    0.935
    40   6 C    3.983 --    41 C    1.442    37 C    1.361    67 H    0.969
    41   6 C    3.993 --    40 C    1.442    42 C    1.442    68 H    0.974
                            36 C    0.101
    42   6 C    3.983 --    41 C    1.442    43 C    1.362    69 H    0.969
    43   6 C    3.903 --    42 C    1.362    36 C    1.342    44 O    1.032
    44   8 O    2.146 --    43 C    1.032    45 C    0.935
    45   6 C    3.907 --    71 H    0.983    72 H    0.980    70 H    0.980
                            44 O    0.935
    46   1 H    1.001 --     2 C    0.971
    47   1 H    0.998 --     4 C    0.976
    48   1 H    1.002 --     5 C    0.974
    49   1 H    1.002 --    10 C    0.974
    50   1 H    1.005 --    11 C    0.970
    51   1 H    1.005 --    16 C    0.971
    52   1 H    1.002 --    17 C    0.974
    53   1 H    1.009 --    23 C    0.980
    54   1 H    1.015 --    23 C    0.983
    55   1 H    1.009 --    23 C    0.980
    56   1 H    1.000 --    24 C    0.969
    57   1 H    1.003 --    25 C    0.974
    58   1 H    1.000 --    26 C    0.969
    59   1 H    1.015 --    29 C    0.983
    60   1 H    1.009 --    29 C    0.980
    61   1 H    1.009 --    29 C    0.980
    62   1 H    1.002 --    31 C    0.974
    63   1 H    0.998 --    32 C    0.976
    64   1 H    1.015 --    39 C    0.983
    65   1 H    1.009 --    39 C    0.980
    66   1 H    1.009 --    39 C    0.980
    67   1 H    1.000 --    40 C    0.969
    68   1 H    1.003 --    41 C    0.974
    69   1 H    1.000 --    42 C    0.969
    70   1 H    1.009 --    45 C    0.980
    71   1 H    1.015 --    45 C    0.983
    72   1 H    1.009 --    45 C    0.980
    73  26 Fe   3.090 --    79 N    0.661   106 N    0.660   107 N    0.655
                            84 N    0.655
    74   6 C    3.916 --   105 C    1.363    75 C    1.362   118 H    0.971
    75   6 C    3.927 --    74 C    1.362    79 N    1.213    76 C    1.173
    76   6 C    3.959 --    77 C    1.650    75 C    1.173   119 H    0.976
    77   6 C    3.962 --    76 C    1.650    78 C    1.175   120 H    0.974
    78   6 C    3.920 --    80 C    1.317    79 N    1.224    77 C    1.175
    79   7 N    3.375 --    78 C    1.224    75 C    1.213    73 Fe   0.661
    80   6 C    3.917 --    81 C    1.339    78 C    1.317   108 C    1.016
    81   6 C    3.918 --    80 C    1.339    84 N    1.200    82 C    1.179
    82   6 C    3.958 --    83 C    1.640    81 C    1.179   121 H    0.974
    83   6 C    3.961 --    82 C    1.640    85 C    1.187   122 H    0.969
    84   7 N    3.375 --    85 C    1.248    81 C    1.200    73 Fe   0.655
    85   6 C    3.911 --    86 C    1.253    84 N    1.248    83 C    1.187
    86   6 C    3.916 --    85 C    1.253    87 C    1.251   148 C    1.195
    87   6 C    3.911 --    86 C    1.251   107 N    1.251    88 C    1.187
    88   6 C    3.961 --    89 C    1.640    87 C    1.187   123 H    0.969
    89   6 C    3.958 --    88 C    1.640    90 C    1.178   124 H    0.974
    90   6 C    3.918 --    91 C    1.342   107 N    1.197    89 C    1.178
    91   6 C    3.917 --    90 C    1.342   102 C    1.314    92 C    1.014
    92   6 C    3.976 --    99 C    1.343    93 C    1.342    91 C    1.014
                            97 C    0.101
    93   6 C    3.903 --    96 C    1.361    92 C    1.342    94 O    1.033
    94   8 O    2.146 --    93 C    1.033    95 C    0.935
    95   6 C    3.907 --   126 H    0.983   127 H    0.980   125 H    0.980
                            94 O    0.935
    96   6 C    3.983 --    97 C    1.442    93 C    1.361   128 H    0.969
    97   6 C    3.993 --    98 C    1.442    96 C    1.442   129 H    0.974
                            92 C    0.101
    98   6 C    3.983 --    97 C    1.442    99 C    1.361   130 H    0.969
    99   6 C    3.903 --    98 C    1.361    92 C    1.343   100 O    1.032
   100   8 O    2.146 --    99 C    1.032   101 C    0.936
   101   6 C    3.908 --   131 H    0.983   132 H    0.980   133 H    0.980
                           100 O    0.936
   102   6 C    3.919 --    91 C    1.314   106 N    1.227   103 C    1.176
   103   6 C    3.962 --   104 C    1.650   102 C    1.176   134 H    0.974
   104   6 C    3.959 --   103 C    1.650   105 C    1.173   135 H    0.976
   105   6 C    3.927 --    74 C    1.363   106 N    1.211   104 C    1.173
   106   7 N    3.375 --   102 C    1.227   105 C    1.211    73 Fe   0.660
   107   7 N    3.375 --    87 C    1.251    90 C    1.197    73 Fe   0.655
   108   6 C    3.976 --   115 C    1.342   109 C    1.341    80 C    1.016
                           113 C    0.100
   109   6 C    3.903 --   112 C    1.361   108 C    1.341   110 O    1.033
   110   8 O    2.147 --   109 C    1.033   111 C    0.935
   111   6 C    3.907 --   136 H    0.983   138 H    0.980   137 H    0.980
                           110 O    0.935
   112   6 C    3.983 --   113 C    1.442   109 C    1.361   139 H    0.969
   113   6 C    3.992 --   112 C    1.442   114 C    1.442   140 H    0.974
                           108 C    0.100
   114   6 C    3.983 --   113 C    1.442   115 C    1.362   141 H    0.969
   115   6 C    3.903 --   114 C    1.362   108 C    1.342   116 O    1.032
   116   8 O    2.146 --   115 C    1.032   117 C    0.936
   117   6 C    3.908 --   143 H    0.983   144 H    0.980   142 H    0.980
                           116 O    0.936
   118   1 H    1.001 --    74 C    0.971
   119   1 H    0.998 --    76 C    0.976
   120   1 H    1.002 --    77 C    0.974
   121   1 H    1.002 --    82 C    0.974
   122   1 H    1.005 --    83 C    0.969
   123   1 H    1.006 --    88 C    0.969
   124   1 H    1.002 --    89 C    0.974
   125   1 H    1.009 --    95 C    0.980
   126   1 H    1.015 --    95 C    0.983
   127   1 H    1.009 --    95 C    0.980
   128   1 H    1.000 --    96 C    0.969
   129   1 H    1.003 --    97 C    0.974
   130   1 H    1.000 --    98 C    0.969
   131   1 H    1.015 --   101 C    0.983
   132   1 H    1.009 --   101 C    0.980
   133   1 H    1.009 --   101 C    0.980
   134   1 H    1.002 --   103 C    0.974
   135   1 H    0.998 --   104 C    0.976
   136   1 H    1.015 --   111 C    0.983
   137   1 H    1.009 --   111 C    0.980
   138   1 H    1.009 --   111 C    0.980
   139   1 H    1.000 --   112 C    0.969
   140   1 H    1.003 --   113 C    0.974
   141   1 H    1.000 --   114 C    0.969
   142   1 H    1.009 --   117 C    0.980
   143   1 H    1.015 --   117 C    0.983
   144   1 H    1.009 --   117 C    0.980
   145   6 C    3.916 --   146 C    2.546    14 C    1.191
   146   6 C    3.921 --   145 C    2.546   150 C    1.195
   147   6 C    3.921 --   148 C    2.544   162 C    1.198
   148   6 C    3.916 --   147 C    2.544    86 C    1.195
   149  26 Fe   3.030 --   155 N    0.644   160 N    0.644   183 N    0.644
                           182 N    0.644
   150   6 C    3.899 --   151 C    1.251   181 C    1.251   146 C    1.195
   151   6 C    3.912 --   150 C    1.251   155 N    1.250   152 C    1.190
   152   6 C    3.960 --   153 C    1.635   151 C    1.190   194 H    0.970
   153   6 C    3.959 --   152 C    1.635   154 C    1.184   195 H    0.974
   154   6 C    3.915 --   156 C    1.327   155 N    1.206   153 C    1.184
   155   7 N    3.364 --   151 C    1.250   154 C    1.206   149 Fe   0.644
   156   6 C    3.905 --   157 C    1.327   154 C    1.327   184 C    1.015
   157   6 C    3.915 --   156 C    1.327   160 N    1.206   158 C    1.184
   158   6 C    3.959 --   159 C    1.634   157 C    1.184   196 H    0.974
   159   6 C    3.960 --   158 C    1.634   161 C    1.190   197 H    0.969
   160   7 N    3.364 --   161 C    1.251   157 C    1.206   149 Fe   0.644
   161   6 C    3.912 --   160 N    1.251   162 C    1.250   159 C    1.190
   162   6 C    3.900 --   161 C    1.250   163 C    1.249   147 C    1.198
   163   6 C    3.911 --   183 N    1.251   162 C    1.249   164 C    1.190
   164   6 C    3.960 --   165 C    1.634   163 C    1.190   198 H    0.969
   165   6 C    3.959 --   164 C    1.634   166 C    1.184   199 H    0.974
   166   6 C    3.915 --   167 C    1.326   183 N    1.206   165 C    1.184
   167   6 C    3.906 --   166 C    1.326   178 C    1.326   168 C    1.016
   168   6 C    3.976 --   169 C    1.342   175 C    1.340   167 C    1.016
                           173 C    0.100
   169   6 C    3.903 --   172 C    1.361   168 C    1.342   170 O    1.033
   170   8 O    2.146 --   169 C    1.033   171 C    0.935
   171   6 C    3.907 --   201 H    0.983   200 H    0.980   202 H    0.980
                           170 O    0.935
   172   6 C    3.983 --   173 C    1.442   169 C    1.361   203 H    0.969
   173   6 C    3.992 --   172 C    1.442   174 C    1.442   204 H    0.974
                           168 C    0.100
   174   6 C    3.983 --   173 C    1.442   175 C    1.362   205 H    0.969
   175   6 C    3.903 --   174 C    1.362   168 C    1.340   176 O    1.034
   176   8 O    2.147 --   175 C    1.034   177 C    0.934
   177   6 C    3.907 --   206 H    0.983   208 H    0.980   207 H    0.980
                           176 O    0.934
   178   6 C    3.915 --   167 C    1.326   182 N    1.206   179 C    1.184
   179   6 C    3.959 --   180 C    1.635   178 C    1.184   209 H    0.974
   180   6 C    3.960 --   179 C    1.635   181 C    1.190   210 H    0.971
   181   6 C    3.912 --   150 C    1.251   182 N    1.250   180 C    1.190
   182   7 N    3.363 --   181 C    1.250   178 C    1.206   149 Fe   0.644
   183   7 N    3.364 --   163 C    1.251   166 C    1.206   149 Fe   0.644
   184   6 C    3.976 --   191 C    1.342   185 C    1.341   156 C    1.015
                           189 C    0.100
   185   6 C    3.903 --   188 C    1.361   184 C    1.341   186 O    1.034
   186   8 O    2.147 --   185 C    1.034   187 C    0.935
   187   6 C    3.907 --   212 H    0.983   213 H    0.980   211 H    0.980
                           186 O    0.935
   188   6 C    3.983 --   189 C    1.442   185 C    1.361   214 H    0.969
   189   6 C    3.992 --   188 C    1.442   190 C    1.442   215 H    0.974
                           184 C    0.100
   190   6 C    3.983 --   189 C    1.442   191 C    1.361   216 H    0.969
   191   6 C    3.903 --   190 C    1.361   184 C    1.342   192 O    1.033
   192   8 O    2.146 --   191 C    1.033   193 C    0.935
   193   6 C    3.907 --   219 H    0.983   218 H    0.980   217 H    0.980
                           192 O    0.935
   194   1 H    1.005 --   152 C    0.970
   195   1 H    1.002 --   153 C    0.974
   196   1 H    1.002 --   158 C    0.974
   197   1 H    1.006 --   159 C    0.969
   198   1 H    1.006 --   164 C    0.969
   199   1 H    1.002 --   165 C    0.974
   200   1 H    1.009 --   171 C    0.980
   201   1 H    1.015 --   171 C    0.983
   202   1 H    1.009 --   171 C    0.980
   203   1 H    1.000 --   172 C    0.969
   204   1 H    1.003 --   173 C    0.974
   205   1 H    1.000 --   174 C    0.969
   206   1 H    1.015 --   177 C    0.983
   207   1 H    1.009 --   177 C    0.980
   208   1 H    1.009 --   177 C    0.980
   209   1 H    1.002 --   179 C    0.974
   210   1 H    1.005 --   180 C    0.971
   211   1 H    1.009 --   187 C    0.980
   212   1 H    1.015 --   187 C    0.983
   213   1 H    1.009 --   187 C    0.980
   214   1 H    1.000 --   188 C    0.969
   215   1 H    1.003 --   189 C    0.974
   216   1 H    1.000 --   190 C    0.969
   217   1 H    1.009 --   193 C    0.980
   218   1 H    1.009 --   193 C    0.980
   219   1 H    1.015 --   193 C    0.983
 ---------------------------------------------------------------------------

           -------------------------------------------------
          | TOTAL ENERGY             -383.601385003479 Eh   |
          | GRADIENT NORM               0.000630487995 Eh/α |
          | HOMO-LUMO GAP               0.049830393378 eV   |
           -------------------------------------------------

 * finished run on 2022/07/29 at 16:13:57.560
