   * xtb version 6.5.1 (b24c23e) compiled by 'conda@728c89f4b128' on 2022-07-12
          program call               : xtb Ni_PhOH_C2_3.xyz --gfn 1 --opt -T 48

   ID    Z sym.   atoms
    1   28 Ni     1, 59, 121
    2    6 C      2-6, 8-12, 14-18, 20-25, 27-31, 33-38, 60-64, 66-70, 72-76,
                  78-83, 85-89, 91-96, 117-120, 122-126, 128-132, 134-138,
                  140-145, 147-151, 153-158
    3    7 N      7, 19, 26, 39, 65, 77, 84, 97, 127, 139, 146, 159
    4    8 O      13, 32, 71, 90, 133, 152
    5    1 H      40-58, 98-116, 160-177
########################################################################
[WARNING] Please study the warnings concerning your input carefully
-1- prog_main_parseArguments: Unknown option '-T' provided
########################################################################

          :  Hamiltonian                  GFN1-xTB          :
 * total energy  :  -319.6563475 Eh     change       -0.8590689E-08 Eh
 * total energy  :  -320.1923807 Eh     change       -0.5360332E+00 Eh
 * total energy  :  -320.3379856 Eh     change       -0.1456049E+00 Eh
 * total energy  :  -320.4088167 Eh     change       -0.7083112E-01 Eh
 * total energy  :  -320.4343482 Eh     change       -0.2553151E-01 Eh
 * total energy  :  -320.4471227 Eh     change       -0.1277441E-01 Eh
 * total energy  :  -320.4537325 Eh     change       -0.6609825E-02 Eh
 * total energy  :  -320.4572057 Eh     change       -0.3473207E-02 Eh
 * total energy  :  -320.4589464 Eh     change       -0.1740748E-02 Eh
 * total energy  :  -320.4596618 Eh     change       -0.7154086E-03 Eh
 * total energy  :  -320.4647141 Eh     change       -0.1549070E-04 Eh
 * total energy  :  -320.4647341 Eh     change       -0.1999849E-04 Eh
 * total energy  :  -320.4647445 Eh     change       -0.1037733E-04 Eh
 * total energy  :  -320.4647593 Eh     change       -0.1483804E-04 Eh
 * total energy  :  -320.4647667 Eh     change       -0.7426168E-05 Eh
 * total energy  :  -320.4647774 Eh     change       -0.1071152E-04 Eh
 * total energy  :  -320.4647853 Eh     change       -0.7851733E-05 Eh
 * total energy  :  -320.4647917 Eh     change       -0.6460536E-05 Eh
 * total energy  :  -320.4647961 Eh     change       -0.4372210E-05 Eh
   *** GEOMETRY OPTIMIZATION CONVERGED AFTER 76 ITERATIONS ***

 final structure:
================
177
 xtb: 6.5.1 (b24c23e)
Ni          33.72448576503360       -0.05254503222222       -0.14031995179402
C           30.35587934163486       -0.07207440318307       -0.53273922154923
C           30.99041385034754       -1.28014420792436       -0.32956354082439
C           30.29770227605598       -2.52660465712392       -0.21334948350045
C           31.24080031174451       -3.47826752929190       -0.01993287680838
C           32.51229676040261       -2.81650135149901       -0.05398520086251
N           32.34471808665213       -1.46198012521760       -0.20625903984696
C           33.73302477374397       -3.47746916317782       -0.01204474955248
C           33.74730328112690       -4.95660419485112        0.08985181006960
C           33.16702812429067       -5.74724634374459       -0.90224377158909
C           33.18616127530789       -7.13027788588949       -0.80682665642758
C           33.78583752235087       -7.73913928466411        0.29307411783234
O           33.82448319950308       -9.08997410722902        0.42754947742734
C           34.36895108536401       -6.96068837999430        1.29134688292569
C           34.35099774936891       -5.58150159502928        1.18392451171113
C           34.94811734728946       -2.80885413243338       -0.09690093577238
C           36.21212259071009       -3.47245688814785       -0.20040163350593
C           37.15953809463420       -2.50544266378505       -0.25176456678507
N           35.12010271887278       -1.44381722081091       -0.10662808372505
C           36.47448502772365       -1.25487423481066       -0.17022657263826
C           37.13291691033109       -0.02870795125527       -0.05900915895694
C           36.45340559674099        1.18108337572625        0.09910772326589
C           37.11628812192183        2.43133423505060        0.29148381415239
C           36.15099668239817        3.37991336042597        0.34744969458508
C           34.89899029337057        2.70690127894901        0.17736725495813
N           35.09674722469050        1.35108582595291        0.04392584577181
C           33.68619898543417        3.36910928457431        0.03960843824558
C           33.67366327519366        4.84971728669791        0.14347544153311
C           33.98117087631814        5.47753124039488        1.35227394907109
C           33.97406763140926        6.85759358295687        1.45466634783893
C           33.66459016456080        7.63183421388867        0.33795240215218
O           33.67168113073857        8.98352310711337        0.47172535206703
C           33.36050450560687        7.01879590859175       -0.87521245802376
C           33.36342992673114        5.63527340878414       -0.96638719662678
C           32.49585225399260        2.70623941169811       -0.22877057792397
C           31.23894655093501        3.36707896159017       -0.42624592805893
C           30.31293022096035        2.39982693823613       -0.62311884370964
C           30.99874585554284        1.14816075945639       -0.51838886267566
N           32.33873231842430        1.34399322181334       -0.29495167326291
H           29.28061019449627       -0.07878458548120       -0.66841686546059
H           29.22593564870838       -2.63683043672688       -0.26092590575138
H           31.09993600067993       -4.53607412966280        0.13173069300093
H           32.71326029407446       -5.27565943638307       -1.76683299528217
H           32.73913648636623       -7.74029704132398       -1.58451717157136
H           33.39091535000774       -9.53063647785810       -0.31559283499530
H           34.82995336699449       -7.44763114973157        2.14179668960299
H           34.79628663992110       -4.97518246321490        1.96479510944923
H           36.34617624595550       -4.54102836493089       -0.24185504332149
H           38.22944005397637       -2.61514680978510       -0.32573554890863
H           38.18464261167021        2.55430025946702        0.36549414035008
H           36.26782036829774        4.44446999696147        0.46841810102479
H           34.21432596773155        4.87419190518901        2.22250155254583
H           34.20606861913900        7.34809930890477        2.39197926897897
H           33.44205453902435        9.42053105138913       -0.35944343289449
H           33.12537226083854        7.62562502038045       -1.74311667418445
H           33.13949175852805        5.15910896001159       -1.91451527445127
H           31.09456724918561        4.43506484620842       -0.40570517913085
H           29.25435425192738        2.50345816404690       -0.80119477446446
Ni          55.44959020679318        0.02118497147935       -0.12190590856446
C           58.83032919102402       -0.03677366337948       -0.44257611827279
C           58.20225920680429        1.19104461029447       -0.44052447729317
C           58.90688420631408        2.43416887845182       -0.51322853279527
C           57.97432242071788        3.41274875503620       -0.44727436405350
C           56.69762841134060        2.76539830907072       -0.36553010748290
N           56.85004785942898        1.40109834013431       -0.33825037802877
C           55.48632694806766        3.44383728331857       -0.35211876743848
C           55.49501323687352        4.92564970719894       -0.42044095857413
C           56.01798692753086        5.58411122192535       -1.53343033682543
C           56.02262588496104        6.96900455037815       -1.59909556827551
C           55.50570249710304        7.71279682542663       -0.54095821509982
O           55.49409783311197        9.07063857894441       -0.56224803889800
C           54.98075386959666        7.06688798716786        0.57694820961485
C           54.97376317035086        5.68430754416806        0.63018578144022
C           54.26127413014737        2.79080147553129       -0.31051217061002
C           53.00488793346700        3.46664703114631       -0.42476730382283
C           52.04297953075876        2.51452805940419       -0.37599544608364
N           54.06906305320092        1.43219173707148       -0.20161995009132
C           52.71071229007725        1.26203552350508       -0.22099541112455
C           52.03320436401159        0.04972287946481       -0.07412743910884
C           52.69529089248368       -1.16418306100102        0.12431591705058
C           52.01083254364232       -2.39443291746675        0.36314992865455
C           52.96122375127630       -3.34653802513507        0.51871407048237
C           54.22692525566448       -2.69493286946152        0.37084737737373
N           54.05130653738404       -1.35014795286168        0.13358053688859
C           55.43963333987377       -3.37113147263758        0.38522731422053
C           55.42929848080049       -4.83369633311994        0.63703986204172
C           55.01212893738670       -5.33541533620495        1.87184390604208
C           54.99624741692798       -6.69777048139123        2.11356701276194
C           55.39315588897291       -7.58192226306469        1.11200364460888
O           55.36028501426460       -8.91286383401552        1.38051368944157
C           55.80812933601094       -7.09555763032764       -0.12547110208506
C           55.82718851768279       -5.72846322576724       -0.35607573712895
C           56.65314699754563       -2.74176015142414        0.14271858043834
C           57.91332559452051       -3.42456981955293        0.10901533422311
C           58.85754910777351       -2.49285088905671       -0.15909015153949
C           58.17756189665289       -1.23793470861303       -0.26090255070974
N           56.82669797184032       -1.39803755121495       -0.07945061420697
H           59.90832869438177       -0.05595864190063       -0.55320558512792
H           59.97889310615863        2.52542074619995       -0.58781091778378
H           58.12530964425500        4.47994004604711       -0.45043489388745
H           56.40839089443206        5.00624956274650       -2.36377886287169
H           56.42455378643103        7.47588368189837       -2.46988470040056
H           55.88213543350598        9.41352430186733       -1.37842906998923
H           54.58401167270946        7.65812551545719        1.39297321359812
H           54.57357839508378        5.18130435955879        1.50338819419608
H           52.88533057617592        4.53079775943842       -0.54591114919335
H           50.97407885722217        2.63603713707123       -0.43976465552053
H           50.93951734303968       -2.50177531360762        0.40918391137178
H           52.82654657244090       -4.40023266491248        0.70047374597234
H           54.71078948298367       -4.64648791222589        2.65302611807935
H           54.67873998667974       -7.09006362826975        3.07180558824106
H           55.65217982193160       -9.43275039886994        0.61969590068218
H           56.11178318934179       -7.78778525660286       -0.90355130837842
H           56.13757087817182       -5.35159655562794       -1.32432649855881
H           58.04646025729132       -4.48095019691308        0.27689539945577
H           59.92345064801621       -2.62028042281978       -0.26247486314760
C           38.54294828454130       -0.01532244394127       -0.06775280512801
C           39.75862292202551       -0.00304621437523       -0.07535279072438
C           49.40643640038216        0.05593389602486       -0.09888027254744
C           50.62270111215054        0.05365323371003       -0.08871493626929
Ni          44.58153526453076        0.02179803836525       -0.07989596019503
C           41.16811319726196        0.00560349746216       -0.07762400624761
C           41.83609582282333        0.97704158627101        0.67139493062664
C           41.16916883631350        1.93027831610688        1.49899337676773
C           42.12258108290209        2.76777701456020        1.97501812063205
C           43.36898940922210        2.33019988234629        1.42470661592320
N           43.18651384634526        1.19827444946376        0.66332327242164
C           44.56983414973966        3.01108401192159        1.58069450009245
C           44.56885584070652        4.29905593352914        2.31273599387936
C           45.34635126660061        4.46241978848490        3.46229146231503
C           45.34639046870888        5.66074272898083        4.15348480728872
C           44.56855656954793        6.72290502594283        3.69571144552023
O           44.59499857294828        7.88601825517694        4.39539965871943
C           43.79136626402717        6.57618461425127        2.54887519221098
C           43.79169309647190        5.36913810005372        1.86742678272504
C           45.77267109487881        2.53182087750349        1.07653445966747
C           47.01199135170783        3.24215310772583        1.15709188455827
C           47.97098992204303        2.40989707347847        0.68364723446777
N           45.96514656929773        1.29406506949621        0.50629610590029
C           47.31577101084057        1.19976191545749        0.30396809475326
C           47.99668779436473        0.04816525471562       -0.10006933125353
C           47.32958459226860       -1.11513320970992       -0.49392511508322
C           47.99892143959955       -2.31790536008350       -0.87256949726212
C           47.04639487846441       -3.17095153866780       -1.32155321808885
C           45.79699628422435       -2.47984112326400       -1.22975247821517
N           45.97793565357183       -1.23280741751177       -0.67599131828348
C           44.59531534231249       -2.98237869319616       -1.71328286599818
C           44.60174646216257       -4.28234497929227       -2.42413175275550
C           43.84582790123502       -5.35458464590965       -1.94883825677462
C           43.85122967941712       -6.57307726274860       -2.60961246576658
C           44.61234804627347       -6.72902381772818       -3.76579662012881
O           44.64350892433112       -7.90358701200809       -4.44626921913014
C           45.36847694719964       -5.66469802911399       -4.25369270401603
C           45.36313762192511       -4.45481685428647       -3.58284824833828
C           43.38774868074535       -2.31299840315311       -1.55940428249615
C           42.14444191214019       -2.76920472094276       -2.10152553382820
C           41.18455920360940       -1.93219022812341       -1.63767130427453
C           41.84430378231625       -0.96297577337974       -0.82282356544812
N           43.19653084844033       -1.17293521554105       -0.81277468262322
H           40.10789448523809        1.94252242507000        1.68785558944929
H           42.00181098206067        3.60455272104406        2.64342264835921
H           45.94166728070793        3.63231565984398        3.82593247638062
H           45.94223585364758        5.78756707988410        5.04893170334595
H           44.02131037887047        8.55237319030810        3.99358415879548
H           43.19099270644252        7.40692266368124        2.19366300088446
H           43.19649296020845        5.26087050974402        0.96747332500683
H           47.12485455502995        4.24848214684739        1.52590537938042
H           49.03078771932542        2.58645403390875        0.60000409901384
H           49.06279366556937       -2.47613874903775       -0.80458832369249
H           47.17015640472543       -4.17917582908165       -1.68163648298643
H           43.26260219408928       -5.23841147776739       -1.04214819872957
H           43.26769595212575       -7.40544921852667       -2.23111403803285
H           44.08304022689524       -8.56935641216534       -4.02561787377982
H           45.95173641145333       -5.79884588878297       -5.15626087032161
H           45.94132427449613       -3.62315617951151       -3.96970801998891
H           42.03018105104170       -3.61697827709739       -2.75714465126895
H           40.12313503796759       -1.95588498905830       -1.82490564700466

          :  Hamiltonian                  GFN1-xTB          :
         :: total energy            -320.464796118573 Eh    ::
         :: gradient norm              0.000607323820 Eh/a0 ::
         :: HOMO-LUMO gap              1.040705880641 eV    ::
         :: SCC energy              -325.204976919880 Eh    ::
         :: repulsion energy           4.905334313507 Eh    ::

    * Orbital Energies and Occupations

         #    Occupation            Energy/Eh            Energy/eV
      -------------------------------------------------------------
         1        2.0000           -0.8062952             -21.9404
       ...           ...                  ...                  ...
       279        2.0000           -0.3960713             -10.7776
       280        2.0000           -0.3958207             -10.7708
       281        2.0000           -0.3955722             -10.7641
       282        2.0000           -0.3954669             -10.7612
       283        2.0000           -0.3950778             -10.7506
       284        2.0000           -0.3947867             -10.7427
       285        2.0000           -0.3947440             -10.7415
       286        2.0000           -0.3944344             -10.7331
       287        2.0000           -0.3943182             -10.7299
       288        2.0000           -0.3940710             -10.7232
       289        2.0000           -0.3940371             -10.7223
       290        2.0000           -0.3883784             -10.5683
       291        2.0000           -0.3791555             -10.3173 (HOMO)
       292                         -0.3409102              -9.2766 (LUMO)
       293                         -0.3306037              -8.9962
       294                         -0.3280418              -8.9265
       295                         -0.3274495              -8.9104
       296                         -0.3274372              -8.9100
       297                         -0.3263175              -8.8796
       298                         -0.3261541              -8.8751
       299                         -0.3258682              -8.8673
       300                         -0.3204702              -8.7204
       301                         -0.2981775              -8.1138
       302                         -0.2905743              -7.9069
       ...                                ...                  ...
       611                          1.3455968              36.6156
      -------------------------------------------------------------
                  HL-Gap            0.0382452 Eh            1.0407 eV

Wiberg/Mayer (AO) data.
largest (>0.10) Wiberg bond orders for each atom

     #   Z sym  total        # sym  WBO       # sym  WBO       # sym  WBO
 ---------------------------------------------------------------------------
     1  28 Ni   3.015 --    39 N    0.664     7 N    0.664    26 N    0.663
                            19 N    0.663
     2   6 C    3.934 --    38 C    1.364     3 C    1.362    40 H    0.970
     3   6 C    3.924 --     2 C    1.362     7 N    1.215     4 C    1.176
     4   6 C    3.959 --     5 C    1.647     3 C    1.176    41 H    0.975
     5   6 C    3.963 --     4 C    1.647     6 C    1.177    42 H    0.972
     6   6 C    3.920 --     8 C    1.325     7 N    1.219     5 C    1.177
     7   7 N    3.402 --     6 C    1.219     3 C    1.215     1 Ni   0.664
     8   6 C    3.940 --     6 C    1.325    16 C    1.324     9 C    1.027
     9   6 C    3.989 --    10 C    1.394    15 C    1.383     8 C    1.027
    10   6 C    3.988 --    11 C    1.452     9 C    1.394    43 H    0.972
                            14 C    0.105
    11   6 C    3.988 --    10 C    1.452    12 C    1.372    44 H    0.970
                            15 C    0.102
    12   6 C    3.901 --    11 C    1.372    14 C    1.364    13 O    1.040
    13   8 O    2.043 --    12 C    1.040    45 H    0.865
    14   6 C    3.990 --    15 C    1.467    12 C    1.364    46 H    0.971
                            10 C    0.105
    15   6 C    3.988 --    14 C    1.467     9 C    1.383    47 H    0.973
                            11 C    0.102
    16   6 C    3.915 --     8 C    1.324    19 N    1.209    17 C    1.185
    17   6 C    3.960 --    18 C    1.635    16 C    1.185    48 H    0.973
    18   6 C    3.961 --    17 C    1.635    20 C    1.191    49 H    0.972
    19   7 N    3.407 --    20 C    1.234    16 C    1.209     1 Ni   0.663
    20   6 C    3.911 --    21 C    1.272    19 N    1.234    18 C    1.191
    21   6 C    3.944 --    20 C    1.272    22 C    1.270   117 C    1.165
    22   6 C    3.911 --    21 C    1.270    26 N    1.237    23 C    1.191
    23   6 C    3.962 --    24 C    1.636    22 C    1.191    50 H    0.971
    24   6 C    3.960 --    23 C    1.636    25 C    1.184    51 H    0.973
    25   6 C    3.915 --    27 C    1.329    26 N    1.207    24 C    1.184
    26   7 N    3.407 --    22 C    1.237    25 C    1.207     1 Ni   0.663
    27   6 C    3.939 --    25 C    1.329    35 C    1.325    28 C    1.022
    28   6 C    3.989 --    34 C    1.396    29 C    1.386    27 C    1.022
    29   6 C    3.989 --    30 C    1.465    28 C    1.386    52 H    0.973
                            33 C    0.103
    30   6 C    3.990 --    29 C    1.465    31 C    1.365    53 H    0.971
                            34 C    0.106
    31   6 C    3.902 --    33 C    1.373    30 C    1.365    32 O    1.040
    32   8 O    2.043 --    31 C    1.040    54 H    0.865
    33   6 C    3.988 --    34 C    1.451    31 C    1.373    55 H    0.970
                            29 C    0.103
    34   6 C    3.989 --    33 C    1.451    28 C    1.396    56 H    0.973
                            30 C    0.106
    35   6 C    3.919 --    27 C    1.325    39 N    1.221    36 C    1.177
    36   6 C    3.963 --    37 C    1.649    35 C    1.177    57 H    0.973
    37   6 C    3.959 --    36 C    1.649    38 C    1.175    58 H    0.975
    38   6 C    3.924 --     2 C    1.364    39 N    1.213    37 C    1.175
    39   7 N    3.402 --    35 C    1.221    38 C    1.213     1 Ni   0.664
    40   1 H    1.000 --     2 C    0.970
    41   1 H    0.998 --     4 C    0.975
    42   1 H    1.005 --     5 C    0.972
    43   1 H    1.005 --    10 C    0.972
    44   1 H    0.999 --    11 C    0.970
    45   1 H    0.887 --    13 O    0.865
    46   1 H    0.999 --    14 C    0.971
    47   1 H    1.005 --    15 C    0.973
    48   1 H    1.005 --    17 C    0.973
    49   1 H    1.004 --    18 C    0.972
    50   1 H    1.004 --    23 C    0.971
    51   1 H    1.005 --    24 C    0.973
    52   1 H    1.004 --    29 C    0.973
    53   1 H    0.999 --    30 C    0.971
    54   1 H    0.887 --    32 O    0.865
    55   1 H    0.999 --    33 C    0.970
    56   1 H    1.004 --    34 C    0.973
    57   1 H    1.005 --    36 C    0.973
    58   1 H    0.998 --    37 C    0.975
    59  28 Ni   3.009 --    97 N    0.663    65 N    0.663    84 N    0.663
                            77 N    0.662
    60   6 C    3.934 --    96 C    1.363    61 C    1.363    98 H    0.970
    61   6 C    3.924 --    60 C    1.363    65 N    1.215    62 C    1.176
    62   6 C    3.959 --    63 C    1.648    61 C    1.176    99 H    0.975
    63   6 C    3.963 --    62 C    1.648    64 C    1.177   100 H    0.972
    64   6 C    3.920 --    66 C    1.325    65 N    1.220    63 C    1.177
    65   7 N    3.402 --    64 C    1.220    61 C    1.215    59 Ni   0.663
    66   6 C    3.939 --    74 C    1.326    64 C    1.325    67 C    1.025
    67   6 C    3.989 --    68 C    1.395    73 C    1.384    66 C    1.025
    68   6 C    3.988 --    69 C    1.451    67 C    1.395   101 H    0.973
                            72 C    0.105
    69   6 C    3.988 --    68 C    1.451    70 C    1.372   102 H    0.970
                            73 C    0.103
    70   6 C    3.902 --    69 C    1.372    72 C    1.364    71 O    1.040
    71   8 O    2.043 --    70 C    1.040   103 H    0.865
    72   6 C    3.990 --    73 C    1.466    70 C    1.364   104 H    0.971
                            68 C    0.105
    73   6 C    3.988 --    72 C    1.466    67 C    1.384   105 H    0.973
                            69 C    0.103
    74   6 C    3.915 --    66 C    1.326    77 N    1.209    75 C    1.185
    75   6 C    3.960 --    76 C    1.634    74 C    1.185   106 H    0.973
    76   6 C    3.961 --    75 C    1.634    78 C    1.192   107 H    0.969
    77   7 N    3.407 --    78 C    1.236    74 C    1.209    59 Ni   0.662
    78   6 C    3.910 --    79 C    1.270    77 N    1.236    76 C    1.192
    79   6 C    3.943 --    78 C    1.270    80 C    1.269   120 C    1.167
    80   6 C    3.910 --    79 C    1.269    84 N    1.237    81 C    1.192
    81   6 C    3.962 --    82 C    1.635    80 C    1.192   108 H    0.969
    82   6 C    3.959 --    81 C    1.635    83 C    1.184   109 H    0.973
    83   6 C    3.915 --    85 C    1.328    84 N    1.207    82 C    1.184
    84   7 N    3.407 --    80 C    1.237    83 C    1.207    59 Ni   0.663
    85   6 C    3.939 --    83 C    1.328    93 C    1.325    86 C    1.023
    86   6 C    3.989 --    92 C    1.396    87 C    1.386    85 C    1.023
    87   6 C    3.989 --    88 C    1.466    86 C    1.386   110 H    0.973
                            91 C    0.103
    88   6 C    3.990 --    87 C    1.466    89 C    1.365   111 H    0.971
                            92 C    0.105
    89   6 C    3.902 --    91 C    1.373    88 C    1.365    90 O    1.040
    90   8 O    2.043 --    89 C    1.040   112 H    0.865
    91   6 C    3.988 --    92 C    1.451    89 C    1.373   113 H    0.970
                            87 C    0.103
    92   6 C    3.988 --    91 C    1.451    86 C    1.396   114 H    0.973
                            88 C    0.105
    93   6 C    3.919 --    85 C    1.325    97 N    1.221    94 C    1.177
    94   6 C    3.963 --    95 C    1.648    93 C    1.177   115 H    0.972
    95   6 C    3.959 --    94 C    1.648    96 C    1.175   116 H    0.975
    96   6 C    3.924 --    60 C    1.363    97 N    1.215    95 C    1.175
    97   7 N    3.402 --    93 C    1.221    96 C    1.215    59 Ni   0.663
    98   1 H    1.000 --    60 C    0.970
    99   1 H    0.998 --    62 C    0.975
   100   1 H    1.005 --    63 C    0.972
   101   1 H    1.005 --    68 C    0.973
   102   1 H    0.999 --    69 C    0.970
   103   1 H    0.887 --    71 O    0.865
   104   1 H    0.999 --    72 C    0.971
   105   1 H    1.004 --    73 C    0.973
   106   1 H    1.005 --    75 C    0.973
   107   1 H    1.005 --    76 C    0.969
   108   1 H    1.005 --    81 C    0.969
   109   1 H    1.005 --    82 C    0.973
   110   1 H    1.004 --    87 C    0.973
   111   1 H    0.999 --    88 C    0.971
   112   1 H    0.887 --    90 O    0.865
   113   1 H    0.999 --    91 C    0.970
   114   1 H    1.004 --    92 C    0.973
   115   1 H    1.005 --    94 C    0.972
   116   1 H    0.998 --    95 C    0.975
   117   6 C    3.933 --   118 C    2.588    21 C    1.165
   118   6 C    3.936 --   117 C    2.588   122 C    1.167
   119   6 C    3.936 --   120 C    2.587   141 C    1.169
   120   6 C    3.934 --   119 C    2.587    79 C    1.167
   121  28 Ni   3.010 --   139 N    0.662   146 N    0.662   127 N    0.661
                           159 N    0.661
   122   6 C    3.934 --   158 C    1.269   123 C    1.268   118 C    1.167
   123   6 C    3.911 --   122 C    1.268   127 N    1.236   124 C    1.193
   124   6 C    3.960 --   125 C    1.632   123 C    1.193   160 H    0.971
   125   6 C    3.960 --   124 C    1.632   126 C    1.187   161 H    0.973
   126   6 C    3.914 --   128 C    1.324   127 N    1.206   125 C    1.187
   127   7 N    3.399 --   123 C    1.236   126 C    1.206   121 Ni   0.661
   128   6 C    3.935 --   126 C    1.324   136 C    1.323   129 C    1.031
   129   6 C    3.988 --   135 C    1.392   130 C    1.382   128 C    1.031
   130   6 C    3.988 --   131 C    1.468   129 C    1.382   162 H    0.973
                           134 C    0.102
   131   6 C    3.990 --   130 C    1.468   132 C    1.363   163 H    0.971
                           135 C    0.104
   132   6 C    3.901 --   134 C    1.371   131 C    1.363   133 O    1.041
   133   8 O    2.044 --   132 C    1.041   164 H    0.865
   134   6 C    3.988 --   135 C    1.453   132 C    1.371   165 H    0.970
                           130 C    0.102
   135   6 C    3.987 --   134 C    1.453   129 C    1.392   166 H    0.972
                           131 C    0.104
   136   6 C    3.913 --   128 C    1.323   139 N    1.207   137 C    1.187
   137   6 C    3.961 --   138 C    1.632   136 C    1.187   167 H    0.973
   138   6 C    3.960 --   137 C    1.632   140 C    1.194   168 H    0.969
   139   7 N    3.400 --   140 C    1.235   136 C    1.207   121 Ni   0.662
   140   6 C    3.911 --   141 C    1.268   139 N    1.235   138 C    1.194
   141   6 C    3.934 --   140 C    1.268   142 C    1.267   119 C    1.169
   142   6 C    3.911 --   141 C    1.267   146 N    1.236   143 C    1.194
   143   6 C    3.960 --   144 C    1.632   142 C    1.194   169 H    0.970
   144   6 C    3.960 --   143 C    1.632   145 C    1.187   170 H    0.973
   145   6 C    3.914 --   147 C    1.324   146 N    1.206   144 C    1.187
   146   7 N    3.399 --   142 C    1.236   145 C    1.206   121 Ni   0.662
   147   6 C    3.935 --   145 C    1.324   155 C    1.323   148 C    1.030
   148   6 C    3.988 --   149 C    1.392   154 C    1.382   147 C    1.030
   149   6 C    3.988 --   150 C    1.453   148 C    1.392   171 H    0.972
                           153 C    0.105
   150   6 C    3.988 --   149 C    1.453   151 C    1.371   172 H    0.970
                           154 C    0.102
   151   6 C    3.901 --   150 C    1.371   153 C    1.364   152 O    1.041
   152   8 O    2.044 --   151 C    1.041   173 H    0.865
   153   6 C    3.990 --   154 C    1.467   151 C    1.364   174 H    0.971
                           149 C    0.105
   154   6 C    3.988 --   153 C    1.467   148 C    1.382   175 H    0.973
                           150 C    0.102
   155   6 C    3.914 --   147 C    1.323   159 N    1.207   156 C    1.187
   156   6 C    3.960 --   157 C    1.632   155 C    1.187   176 H    0.973
   157   6 C    3.960 --   156 C    1.632   158 C    1.193   177 H    0.972
   158   6 C    3.911 --   122 C    1.269   159 N    1.236   157 C    1.193
   159   7 N    3.399 --   158 C    1.236   155 C    1.207   121 Ni   0.661
   160   1 H    1.004 --   124 C    0.971
   161   1 H    1.005 --   125 C    0.973
   162   1 H    1.005 --   130 C    0.973
   163   1 H    0.999 --   131 C    0.971
   164   1 H    0.887 --   133 O    0.865
   165   1 H    0.999 --   134 C    0.970
   166   1 H    1.005 --   135 C    0.972
   167   1 H    1.005 --   137 C    0.973
   168   1 H    1.005 --   138 C    0.969
   169   1 H    1.005 --   143 C    0.970
   170   1 H    1.005 --   144 C    0.973
   171   1 H    1.005 --   149 C    0.972
   172   1 H    0.999 --   150 C    0.970
   173   1 H    0.887 --   152 O    0.865
   174   1 H    0.999 --   153 C    0.971
   175   1 H    1.005 --   154 C    0.973
   176   1 H    1.005 --   156 C    0.973
   177   1 H    1.003 --   157 C    0.972
 ---------------------------------------------------------------------------

           -------------------------------------------------
          | TOTAL ENERGY             -320.464796118573 Eh   |
          | GRADIENT NORM               0.000607323820 Eh/α |
          | HOMO-LUMO GAP               1.040705880641 eV   |
           -------------------------------------------------

 * finished run on 2022/07/30 at 05:53:14.446
