   * xtb version 6.5.1 (b24c23e) compiled by 'conda@728c89f4b128' on 2022-07-12
          program call               : xtb Py_C10_3.xyz --gfn 1 --opt -T 48

   ID    Z sym.   atoms
    1    6 C      1-5, 7-10, 12-16, 18-23, 25-28, 30-35, 56-60, 62-65, 67-71,
                  73-78, 80-83, 85-90, 111-135, 137-140, 142-146, 148-153,
                  155-158, 160-165
    2    7 N      6, 11, 17, 24, 29, 36, 61, 66, 72, 79, 84, 91, 136, 141,
                  147, 154, 159, 166
    3    1 H      37-55, 92-110, 167-184

          :  Hamiltonian                  GFN1-xTB          :
 * total energy  :  -313.6934238 Eh     change       -0.2705576E-08 Eh
 * total energy  :  -318.3495835 Eh     change       -0.4656160E+01 Eh
 * total energy  :  -318.7122100 Eh     change       -0.3626265E+00 Eh
 * total energy  :  -318.8722192 Eh     change       -0.1600093E+00 Eh
 * total energy  :  -318.9265457 Eh     change       -0.5432651E-01 Eh
 * total energy  :  -318.9493293 Eh     change       -0.2278357E-01 Eh
 * total energy  :  -318.9652142 Eh     change       -0.1588495E-01 Eh
 * total energy  :  -318.9739217 Eh     change       -0.8707495E-02 Eh
 * total energy  :  -318.9790554 Eh     change       -0.5133657E-02 Eh
 * total energy  :  -318.9813094 Eh     change       -0.2253986E-02 Eh
 * total energy  :  -319.4522685 Eh     change       -0.3689446E-04 Eh
 * total energy  :  -319.4522950 Eh     change       -0.2647821E-04 Eh
 * total energy  :  -319.4523142 Eh     change       -0.1923984E-04 Eh
 * total energy  :  -319.4523293 Eh     change       -0.1509870E-04 Eh
 * total energy  :  -319.4523417 Eh     change       -0.1243152E-04 Eh
 * total energy  :  -319.4523518 Eh     change       -0.1006564E-04 Eh
 * total energy  :  -319.4523596 Eh     change       -0.7775929E-05 Eh
 * total energy  :  -319.4523658 Eh     change       -0.6191924E-05 Eh
 * total energy  :  -319.4523703 Eh     change       -0.4544281E-05 Eh
   *** GEOMETRY OPTIMIZATION CONVERGED AFTER 118 ITERATIONS ***

 final structure:
================
184
 xtb: 6.5.1 (b24c23e)
C           15.43936427602682        0.06095660650303        0.05243069837752
C           16.05248963447469        1.28532874882240        0.28455450783100
C           15.40505300106308        2.53433098841169        0.49990203156302
C           16.37069441081159        3.48182390459232        0.69149717693168
C           17.63945716727525        2.83976926882834        0.61002789661437
N           17.39670767033402        1.52019140771332        0.35481182430398
C           18.90520462285010        3.42307386199969        0.73806932018271
C           18.93986873267844        4.87575361627696        1.03034154408353
C           19.54260584651328        5.77625349616472        0.15255870207456
C           19.54413857311068        7.12649249044414        0.46475333133887
N           18.99710579788584        7.61437296149461        1.57360793471802
C           18.42367297589693        6.76271002493123        2.41750565571204
C           18.36745376893330        5.39655855820893        2.19041804229003
C           20.11932870148280        2.74398341021239        0.61334760446061
C           21.41787040070242        3.36236355205481        0.81297931802629
C           22.33648153571996        2.39484215838297        0.61376035946777
N           20.27109929623482        1.42350949269157        0.31725831858329
C           21.59797692357115        1.18646105908507        0.30107927718443
C           22.23269279121086       -0.04118767388215        0.02039492821289
C           21.59269681949284       -1.26411301874617       -0.25837160820084
C           22.23274745640336       -2.49344078954145       -0.56784261151754
C           21.26246848845791       -3.43620016728117       -0.76611093752872
C           19.99870605627693       -2.81191729966702       -0.57420990403490
N           20.25042062363895       -1.49834077268695       -0.27735853818632
C           18.73430518526598       -3.39878495099156       -0.68923989354776
C           18.69632037975348       -4.84622693432139       -1.00341813499551
C           19.26649895349160       -5.79028525614471       -0.14988972491734
C           19.20164223100385       -7.13308126699436       -0.48711627225881
N           18.62206763759006       -7.57369000129480       -1.59903992217726
C           18.07818842856775       -6.68039500145838       -2.41945843861370
C           18.08766983973361       -5.31794769794970       -2.16620857921666
C           17.51904324514317       -2.72434519846868       -0.52997450776681
C           16.21365661260844       -3.36316894451037       -0.59768728275364
C           15.30207960696347       -2.39219828959361       -0.38929565898819
C           16.04932580263728       -1.16350372551329       -0.18538705178194
N           17.38116254573142       -1.40323817208342       -0.26837852250133
H           14.35409655372562        0.07213188303190        0.05869665667047
H           14.33621311735810        2.67690780342694        0.49929879699415
H           16.22312641894833        4.53521121241095        0.86597534962408
H           18.11944226148481        0.81905372299638        0.23117075286416
H           19.98954899340951        5.42534496890308       -0.76992262988883
H           20.00322351191193        7.84716057882961       -0.20563106232697
H           17.98898903279577        7.19069545306740        3.31613559252532
H           17.90083166592638        4.73906493982218        2.91437277500393
H           21.58188717719806        4.39278544407658        1.08342150158325
H           23.41076225715826        2.46418909250638        0.67398046510035
H           23.30032815798879       -2.62784946892448       -0.63399186819619
H           21.40596218174820       -4.47089496355946       -1.03129869875427
H           19.53082688858007       -0.80393530074690       -0.10518148853050
H           19.73747484531858       -5.47920891059833        0.77505159018539
H           19.63346153391212       -7.88685448447207        0.16478856776708
H           17.61472038353357       -7.07069861898718       -3.32083847041622
H           17.64280009630058       -4.62538039278295       -2.87071727317688
H           16.04369051019696       -4.41401394765892       -0.76820486705819
H           14.22646651583042       -2.46965319805045       -0.36270593775170
C           64.51195860760028       -0.07445340238243        0.01844791410985
C           63.89736050542768       -1.26909376858071       -0.33370349072495
C           64.54327692396312       -2.48069334874946       -0.70840418944337
C           63.57641761241945       -3.41011100355618       -0.96975705397677
C           62.30840697088468       -2.79890469689896       -0.75258472624407
N           62.55279904555987       -1.50775458113214       -0.38037246397123
C           61.04193605318348       -3.37491103681429       -0.90404099220694
C           61.00530525327034       -4.80245164643027       -1.30128774572004
C           60.40420855653671       -5.20722378476635       -2.49270273875674
C           60.40031319525578       -6.55272253938716       -2.82481757747666
N           60.94347762278666       -7.49054037180027       -2.05523441316657
C           61.51542171853313       -7.11387064207792       -0.91622660691727
C           61.57382602285340       -5.79282664653085       -0.50092436105725
C           59.82870506727975       -2.71147013083808       -0.70754545640848
C           58.52936035073208       -3.35148194000142       -0.80987916622947
C           57.61202133414462       -2.39775062491287       -0.54812599977160
N           59.67867154055237       -1.40003924030563       -0.37283800215771
C           58.35212113535560       -1.17982104536970       -0.27926194661034
C           57.71906196063168        0.04327813133108        0.02426158473586
C           58.36073077350203        1.25949887129629        0.32739812918906
C           57.72244140948722        2.49712607700427        0.60578085281101
C           58.69390100589114        3.42522518302791        0.85972968327138
C           59.95660593236808        2.77882982423535        0.75290815373697
N           59.70319076485902        1.47412071751114        0.42059467224089
C           61.22164975139188        3.35068562411502        0.92359480455615
C           61.26124130966741        4.78132389955831        1.30667706486541
C           60.68412530187870        5.23088527833538        2.49405192182128
C           60.75135561029132        6.57851848214171        2.81074544347111
N           61.33984996662867        7.47796138642983        2.02899162100528
C           61.89025062411674        7.05850504177144        0.89410377117014
C           61.87878297556458        5.73172385622906        0.49401152660661
C           62.43599487840216        2.67482074606602        0.76306896798793
C           63.74195953686024        3.27090277589582        0.99946439304014
C           64.65218683505233        2.30971488466079        0.74493871981798
C           63.90351952775398        1.12512921352416        0.36301232703194
N           62.57216295321873        1.37954203745680        0.39360413626999
H           65.59719287567485       -0.08947647927830        0.02193868405554
H           65.61200256149880       -2.60933579549687       -0.77184405342685
H           63.72260871889466       -4.42810515336306       -1.29251274164539
H           61.83091221504367       -0.82586180116434       -0.17270392959569
H           59.96032199151271       -4.47608525757314       -3.15774354239863
H           59.94273400032607       -6.89128340249103       -3.74977213907382
H           61.94652742881020       -7.90302018550215       -0.30707022115034
H           62.03898011991387       -5.53473465611016        0.44309142061407
H           58.36402599962837       -4.39222104819980       -1.03646876858895
H           56.53764664117404       -2.48560438424668       -0.52558103119279
H           56.65518639434354        2.64924758235614        0.60389488849796
H           58.55190611841334        4.46815557030530        1.09134464302627
H           60.42178110155673        0.77529181843705        0.26273533403877
H           60.20609296655758        4.53181696347650        3.17000047397892
H           60.31438879434045        6.95078755671290        3.73274635363756
H           62.36070314705635        7.81716492369277        0.27542990205328
H           62.32904935833557        5.43805254683177       -0.44667738757175
H           63.91326553792288        4.28322635374615        1.32822017121161
H           65.72769972387005        2.36390783298862        0.80804998170585
C           23.63762100602622       -0.05963531337395        0.01390950068294
C           24.86277979938421       -0.07420724770789        0.00638342648556
C           26.20415755164781       -0.08572945907720        0.00003575864872
C           27.43620501712521       -0.09073729445204       -0.00762058370790
C           28.77132775508153       -0.09209203635990       -0.01359693196445
C           30.00511489190271       -0.08905743690205       -0.01903490032981
C           31.34012076734609       -0.08283715259527       -0.02488720131029
C           32.57226505022770       -0.07360329786775       -0.03151555239642
C           33.91333081556434       -0.06166014008737       -0.03742024696960
C           35.13879743411588       -0.05059887153887       -0.04546519888067
C           44.81321190694654        0.05341031142770       -0.02433352205437
C           46.03861927617828        0.06735543283251       -0.01223328198789
C           47.37958626277690        0.08035670451872        0.00085170789698
C           48.61170140666649        0.08931741619318        0.01227653253381
C           49.94666422668358        0.09493637491508        0.02144034846655
C           51.18048052171714        0.09929680297571        0.02606086238906
C           52.51557573224117        0.09682434973897        0.02929020207192
C           53.74763273374666        0.09045059719613        0.03027022798831
C           55.08898690073195        0.07832467106497        0.02911862487371
C           56.31419889866001        0.06407779635751        0.02720431023708
C           36.54265222331220       -0.03818443436776       -0.05000762480946
C           37.18167935785937       -1.26456680655068        0.21817639919499
C           36.54520647148732       -2.49668158537709        0.51759059034265
C           37.51934174097920       -3.43982648582081        0.70020999176764
C           38.77969284362977       -2.81109409332095        0.50787554176928
N           38.52475315790765       -1.49513577785386        0.22820286217125
C           40.04543890915046       -3.40230348348118        0.60225206420008
C           40.07307324821329       -4.85613596340995        0.89264871517661
C           40.67492989588521       -5.34960402953655        2.04975321515682
C           40.67318052354589       -6.71573452880885        2.28265227990381
N           40.12388858102019       -7.59208730430035        1.44778431087260
C           39.55079210545133       -7.13054507681866        0.34114369500316
C           39.49764459973930       -5.78234011733156        0.02357042612188
C           41.26551954970208       -2.74156639225921        0.45046969544434
C           42.55608974254847       -3.40571689411126        0.49713259256764
C           43.48676228702632       -2.44550319516078        0.31951691856966
N           41.43317867582611       -1.40890474067475        0.22685097344024
C           42.76323141171980       -1.20013114227282        0.15573109400740
C           43.40947495282059        0.03800473951661       -0.03676857734714
C           42.77025161604675        1.27624514821940       -0.24274811438544
C           43.40614487342286        2.53255974198048       -0.41659609720575
C           42.43194855779451        3.47461156850516       -0.60456184619024
C           41.17228013781926        2.81746790995011       -0.55885192340683
N           41.42747289597126        1.49201065779413       -0.32880571163776
C           39.90678682504549        3.40006691114853       -0.69805266759397
C           39.87973837619770        4.85788864645916       -0.96876776750556
C           39.28068162813824        5.74703029279682       -0.07718122268016
C           39.28316791979004        7.10168940584905       -0.36967130674722
N           39.82993389935102        7.60357526256579       -1.47233629236399
C           40.40019730544196        6.76268595633355       -2.32899538413975
C           40.45310793266872        5.39320361937332       -2.12153084070698
C           38.68681887315816        2.72913325711973       -0.60153512711456
C           37.39679004267300        3.36301246574832       -0.80843761930729
C           36.46603375004108        2.40367713776234       -0.62663964492284
C           37.18908043750378        1.18558477398369       -0.31861795838330
N           38.51888789234648        1.40725120031504       -0.32115520254994
H           35.47828712116647       -2.63385404533261        0.58791226583223
H           37.37896534662615       -4.47759427654077        0.95465255965684
H           39.23855875730897       -0.79409798829867        0.06000772242227
H           41.12427134529375       -4.67088554391435        2.76476973474799
H           41.13201111939803       -7.12311243978370        3.17873127980456
H           39.11390387786308       -7.87100174828153       -0.32249024845136
H           39.03083240002026       -5.45370986788345       -0.89736164739438
H           42.70716964380102       -4.46424979136126        0.63282217153035
H           44.55998703956148       -2.54475775281980        0.29024978776625
H           44.47271408124580        2.68755566598060       -0.39448002687301
H           42.57153276592920        4.53285411705017       -0.75315115516214
H           40.71401208086433        0.77739792199091       -0.23100332094975
H           38.83283467026637        5.38361675570940        0.83999673930422
H           38.82683931333622        7.81392060044611        0.31149542390893
H           40.83497769821023        7.20237428787363       -3.22188263249618
H           40.91824116022800        4.74475567960218       -2.85449648098403
H           37.24634892794674        4.39770859530363       -1.07020216897825
H           35.39307698063306        2.48432015592622       -0.69573995949918

          :  Hamiltonian                  GFN1-xTB          :
         :: total energy            -319.452370304344 Eh    ::
         :: gradient norm              0.000455517758 Eh/a0 ::
         :: HOMO-LUMO gap              0.891604365720 eV    ::
         :: SCC energy              -325.088411176998 Eh    ::
         :: repulsion energy           5.790168947314 Eh    ::

    * Orbital Energies and Occupations

         #    Occupation            Energy/Eh            Energy/eV
      -------------------------------------------------------------
         1        2.0000           -0.8123909             -22.1063
       ...           ...                  ...                  ...
       281        2.0000           -0.4215649             -11.4714
       282        2.0000           -0.4210067             -11.4562
       283        2.0000           -0.4210052             -11.4561
       284        2.0000           -0.4176387             -11.3645
       285        2.0000           -0.4129683             -11.2374
       286        2.0000           -0.4089207             -11.1273
       287        2.0000           -0.4083004             -11.1104
       288        2.0000           -0.4067586             -11.0685
       289        2.0000           -0.4054551             -11.0330
       290        2.0000           -0.4053866             -11.0311
       291        2.0000           -0.3926530             -10.6846
       292        2.0000           -0.3890323             -10.5861
       293        2.0000           -0.3841483             -10.4532 (HOMO)
       294                         -0.3513825              -9.5616 (LUMO)
       295                         -0.3442415              -9.3673
       296                         -0.3410634              -9.2808
       297                         -0.3392841              -9.2324
       298                         -0.3385858              -9.2134
       299                         -0.3383898              -9.2081
       300                         -0.3199232              -8.7056
       301                         -0.3147873              -8.5658
       302                         -0.3146744              -8.5627
       303                         -0.3092705              -8.4157
       304                         -0.3048228              -8.2947
       ...                                ...                  ...
       624                          1.6133360              43.9011
      -------------------------------------------------------------
                  HL-Gap            0.0327659 Eh            0.8916 eV

Wiberg/Mayer (AO) data.
largest (>0.10) Wiberg bond orders for each atom

     #   Z sym  total        # sym  WBO       # sym  WBO       # sym  WBO
 ---------------------------------------------------------------------------
     1   6 C    3.926 --    35 C    1.367     2 C    1.347    37 H    0.971
     2   6 C    3.902 --     1 C    1.347     3 C    1.229     6 N    1.169
     3   6 C    3.954 --     4 C    1.596     2 C    1.229    38 H    0.976
     4   6 C    3.959 --     3 C    1.596     5 C    1.234    39 H    0.974
     5   6 C    3.897 --     7 C    1.301     4 C    1.234     6 N    1.178
     6   7 N    3.470 --     5 C    1.178     2 C    1.169    40 H    0.873
     7   6 C    3.939 --    14 C    1.336     5 C    1.301     8 C    1.030
     8   6 C    3.986 --    13 C    1.392     9 C    1.392     7 C    1.030
                            11 N    0.106
     9   6 C    3.987 --    10 C    1.442     8 C    1.392    41 H    0.973
                            12 C    0.108
    10   6 C    3.972 --     9 C    1.442    11 N    1.415    42 H    0.972
                            13 C    0.108
    11   7 N    3.029 --    12 C    1.416    10 C    1.415     8 C    0.106
    12   6 C    3.972 --    13 C    1.442    11 N    1.416    43 H    0.972
                             9 C    0.108
    13   6 C    3.986 --    12 C    1.442     8 C    1.392    44 H    0.973
                            10 C    0.108
    14   6 C    3.914 --     7 C    1.336    17 N    1.285    15 C    1.124
    15   6 C    3.966 --    16 C    1.711    14 C    1.124    45 H    0.973
    16   6 C    3.964 --    15 C    1.711    18 C    1.127    46 H    0.974
    17   7 N    3.022 --    18 C    1.345    14 C    1.285
    18   6 C    3.907 --    17 N    1.345    19 C    1.252    16 C    1.127
    19   6 C    3.938 --    18 C    1.252    20 C    1.250   111 C    1.194
    20   6 C    3.883 --    19 C    1.250    21 C    1.248    24 N    1.190
    21   6 C    3.959 --    22 C    1.584    20 C    1.248    47 H    0.975
    22   6 C    3.954 --    21 C    1.584    23 C    1.240    48 H    0.974
    23   6 C    3.899 --    25 C    1.310    22 C    1.240    24 N    1.165
    24   7 N    3.474 --    20 C    1.190    23 C    1.165    49 H    0.873
    25   6 C    3.925 --    32 C    1.320    23 C    1.310    26 C    1.031
    26   6 C    3.986 --    27 C    1.392    31 C    1.391    25 C    1.031
                            29 N    0.106
    27   6 C    3.986 --    28 C    1.442    26 C    1.392    50 H    0.973
                            30 C    0.108
    28   6 C    3.972 --    27 C    1.442    29 N    1.416    51 H    0.972
                            31 C    0.108
    29   7 N    3.029 --    28 C    1.416    30 C    1.415    26 C    0.106
    30   6 C    3.972 --    31 C    1.443    29 N    1.415    52 H    0.972
                            27 C    0.108
    31   6 C    3.986 --    30 C    1.443    26 C    1.391    53 H    0.973
                            28 C    0.108
    32   6 C    3.929 --    25 C    1.320    36 N    1.318    33 C    1.117
    33   6 C    3.967 --    34 C    1.724    32 C    1.117    54 H    0.973
    34   6 C    3.966 --    33 C    1.724    35 C    1.116    55 H    0.976
    35   6 C    3.928 --     1 C    1.367    36 N    1.299    34 C    1.116
    36   7 N    3.012 --    32 C    1.318    35 C    1.299
    37   1 H    1.002 --     1 C    0.971
    38   1 H    0.997 --     3 C    0.976
    39   1 H    1.004 --     4 C    0.974
    40   1 H    0.986 --     6 N    0.873
    41   1 H    1.004 --     9 C    0.973
    42   1 H    1.013 --    10 C    0.972
    43   1 H    1.013 --    12 C    0.972
    44   1 H    1.004 --    13 C    0.973
    45   1 H    1.004 --    15 C    0.973
    46   1 H    1.002 --    16 C    0.974
    47   1 H    1.002 --    21 C    0.975
    48   1 H    1.004 --    22 C    0.974
    49   1 H    0.987 --    24 N    0.873
    50   1 H    1.004 --    27 C    0.973
    51   1 H    1.013 --    28 C    0.972
    52   1 H    1.013 --    30 C    0.972
    53   1 H    1.004 --    31 C    0.973
    54   1 H    1.005 --    33 C    0.973
    55   1 H    0.998 --    34 C    0.976
    56   6 C    3.925 --    90 C    1.367    57 C    1.347    92 H    0.971
    57   6 C    3.902 --    56 C    1.347    58 C    1.229    61 N    1.169
    58   6 C    3.954 --    59 C    1.596    57 C    1.229    93 H    0.976
    59   6 C    3.959 --    58 C    1.596    60 C    1.234    94 H    0.974
    60   6 C    3.897 --    62 C    1.301    59 C    1.234    61 N    1.178
    61   7 N    3.470 --    60 C    1.178    57 C    1.169    95 H    0.873
    62   6 C    3.939 --    69 C    1.336    60 C    1.301    63 C    1.030
    63   6 C    3.986 --    68 C    1.393    64 C    1.392    62 C    1.030
                            66 N    0.106
    64   6 C    3.987 --    65 C    1.442    63 C    1.392    96 H    0.973
                            67 C    0.109
    65   6 C    3.972 --    64 C    1.442    66 N    1.415    97 H    0.972
                            68 C    0.108
    66   7 N    3.029 --    67 C    1.416    65 C    1.415    63 C    0.106
    67   6 C    3.972 --    68 C    1.442    66 N    1.416    98 H    0.972
                            64 C    0.109
    68   6 C    3.986 --    67 C    1.442    63 C    1.393    99 H    0.973
                            65 C    0.108
    69   6 C    3.914 --    62 C    1.336    72 N    1.285    70 C    1.124
    70   6 C    3.966 --    71 C    1.711    69 C    1.124   100 H    0.973
    71   6 C    3.964 --    70 C    1.711    73 C    1.127   101 H    0.974
    72   7 N    3.022 --    73 C    1.346    69 C    1.285
    73   6 C    3.907 --    72 N    1.346    74 C    1.252    71 C    1.127
    74   6 C    3.938 --    73 C    1.252    75 C    1.250   130 C    1.194
    75   6 C    3.883 --    74 C    1.250    76 C    1.248    79 N    1.190
    76   6 C    3.959 --    77 C    1.584    75 C    1.248   102 H    0.975
    77   6 C    3.954 --    76 C    1.584    78 C    1.240   103 H    0.974
    78   6 C    3.899 --    80 C    1.310    77 C    1.240    79 N    1.165
    79   7 N    3.474 --    75 C    1.190    78 C    1.165   104 H    0.873
    80   6 C    3.925 --    87 C    1.319    78 C    1.310    81 C    1.031
    81   6 C    3.986 --    82 C    1.392    86 C    1.391    80 C    1.031
                            84 N    0.106
    82   6 C    3.986 --    83 C    1.442    81 C    1.392   105 H    0.973
                            85 C    0.108
    83   6 C    3.972 --    82 C    1.442    84 N    1.416   106 H    0.972
                            86 C    0.108
    84   7 N    3.029 --    83 C    1.416    85 C    1.415    81 C    0.106
    85   6 C    3.972 --    86 C    1.443    84 N    1.415   107 H    0.972
                            82 C    0.108
    86   6 C    3.986 --    85 C    1.443    81 C    1.391   108 H    0.973
                            83 C    0.108
    87   6 C    3.929 --    80 C    1.319    91 N    1.318    88 C    1.117
    88   6 C    3.967 --    89 C    1.724    87 C    1.117   109 H    0.973
    89   6 C    3.966 --    88 C    1.724    90 C    1.116   110 H    0.976
    90   6 C    3.928 --    56 C    1.367    91 N    1.299    89 C    1.116
    91   7 N    3.012 --    87 C    1.318    90 C    1.299
    92   1 H    1.002 --    56 C    0.971
    93   1 H    0.997 --    58 C    0.976
    94   1 H    1.004 --    59 C    0.974
    95   1 H    0.986 --    61 N    0.873
    96   1 H    1.004 --    64 C    0.973
    97   1 H    1.013 --    65 C    0.972
    98   1 H    1.013 --    67 C    0.972
    99   1 H    1.004 --    68 C    0.973
   100   1 H    1.004 --    70 C    0.973
   101   1 H    1.002 --    71 C    0.974
   102   1 H    1.002 --    76 C    0.975
   103   1 H    1.004 --    77 C    0.974
   104   1 H    0.987 --    79 N    0.873
   105   1 H    1.004 --    82 C    0.973
   106   1 H    1.013 --    83 C    0.972
   107   1 H    1.013 --    85 C    0.972
   108   1 H    1.004 --    86 C    0.973
   109   1 H    1.005 --    88 C    0.973
   110   1 H    0.998 --    89 C    0.976
   111   6 C    3.870 --   112 C    2.431    19 C    1.194   114 C    0.184
   112   6 C    3.932 --   111 C    2.431   113 C    1.351
   113   6 C    3.878 --   114 C    2.318   112 C    1.351   116 C    0.178
   114   6 C    3.924 --   113 C    2.318   115 C    1.385   111 C    0.184
   115   6 C    3.891 --   116 C    2.295   114 C    1.385   118 C    0.178
   116   6 C    3.892 --   115 C    2.295   117 C    1.385   113 C    0.178
   117   6 C    3.922 --   118 C    2.317   116 C    1.385   120 C    0.184
   118   6 C    3.879 --   117 C    2.317   119 C    1.352   115 C    0.178
   119   6 C    3.929 --   120 C    2.427   118 C    1.352
   120   6 C    3.871 --   119 C    2.427   131 C    1.198   117 C    0.184
   121   6 C    3.871 --   122 C    2.427   149 C    1.198   124 C    0.184
   122   6 C    3.929 --   121 C    2.427   123 C    1.353
   123   6 C    3.879 --   124 C    2.317   122 C    1.353   126 C    0.178
   124   6 C    3.922 --   123 C    2.317   125 C    1.386   121 C    0.184
   125   6 C    3.892 --   126 C    2.295   124 C    1.386   128 C    0.178
   126   6 C    3.891 --   125 C    2.295   127 C    1.385   123 C    0.178
   127   6 C    3.924 --   128 C    2.318   126 C    1.385   130 C    0.184
   128   6 C    3.878 --   127 C    2.318   129 C    1.351   125 C    0.178
   129   6 C    3.932 --   130 C    2.430   128 C    1.351
   130   6 C    3.870 --   129 C    2.430    74 C    1.194   127 C    0.184
   131   6 C    3.925 --   165 C    1.252   132 C    1.246   120 C    1.198
   132   6 C    3.884 --   133 C    1.253   131 C    1.246   136 N    1.190
   133   6 C    3.955 --   134 C    1.577   132 C    1.253   167 H    0.975
   134   6 C    3.955 --   133 C    1.577   135 C    1.246   168 H    0.974
   135   6 C    3.894 --   137 C    1.299   134 C    1.246   136 N    1.167
   136   7 N    3.471 --   132 C    1.190   135 C    1.167   169 H    0.874
   137   6 C    3.928 --   144 C    1.338   135 C    1.299   138 C    1.029
   138   6 C    3.986 --   143 C    1.393   139 C    1.392   137 C    1.029
                           141 N    0.106
   139   6 C    3.987 --   140 C    1.442   138 C    1.392   170 H    0.973
                           142 C    0.109
   140   6 C    3.972 --   139 C    1.442   141 N    1.415   171 H    0.972
                           143 C    0.108
   141   7 N    3.030 --   142 C    1.416   140 C    1.415   138 C    0.106
   142   6 C    3.972 --   143 C    1.441   141 N    1.416   172 H    0.972
                           139 C    0.109
   143   6 C    3.986 --   142 C    1.441   138 C    1.393   173 H    0.973
                           140 C    0.108
   144   6 C    3.916 --   137 C    1.338   147 N    1.283   145 C    1.124
   145   6 C    3.966 --   146 C    1.710   144 C    1.124   174 H    0.973
   146   6 C    3.964 --   145 C    1.710   148 C    1.129   175 H    0.974
   147   7 N    3.009 --   148 C    1.345   144 C    1.283
   148   6 C    3.907 --   147 N    1.345   149 C    1.252   146 C    1.129
   149   6 C    3.925 --   148 C    1.252   150 C    1.246   121 C    1.198
   150   6 C    3.884 --   151 C    1.253   149 C    1.246   154 N    1.190
   151   6 C    3.955 --   152 C    1.577   150 C    1.253   176 H    0.975
   152   6 C    3.955 --   151 C    1.577   153 C    1.246   177 H    0.974
   153   6 C    3.894 --   155 C    1.299   152 C    1.246   154 N    1.166
   154   7 N    3.471 --   150 C    1.190   153 C    1.166   178 H    0.874
   155   6 C    3.928 --   162 C    1.338   153 C    1.299   156 C    1.028
   156   6 C    3.986 --   161 C    1.393   157 C    1.392   155 C    1.028
                           159 N    0.107
   157   6 C    3.987 --   158 C    1.442   156 C    1.392   179 H    0.973
                           160 C    0.109
   158   6 C    3.972 --   157 C    1.442   159 N    1.415   180 H    0.972
                           161 C    0.109
   159   7 N    3.030 --   160 C    1.416   158 C    1.415   156 C    0.107
   160   6 C    3.972 --   161 C    1.441   159 N    1.416   181 H    0.972
                           157 C    0.109
   161   6 C    3.986 --   160 C    1.441   156 C    1.393   182 H    0.973
                           158 C    0.109
   162   6 C    3.916 --   155 C    1.338   166 N    1.283   163 C    1.124
   163   6 C    3.966 --   164 C    1.711   162 C    1.124   183 H    0.973
   164   6 C    3.964 --   163 C    1.711   165 C    1.129   184 H    0.974
   165   6 C    3.907 --   166 N    1.345   131 C    1.252   164 C    1.129
   166   7 N    3.009 --   165 C    1.345   162 C    1.283
   167   1 H    1.001 --   133 C    0.975
   168   1 H    1.004 --   134 C    0.974
   169   1 H    0.987 --   136 N    0.874
   170   1 H    1.004 --   139 C    0.973
   171   1 H    1.013 --   140 C    0.972
   172   1 H    1.013 --   142 C    0.972
   173   1 H    1.004 --   143 C    0.973
   174   1 H    1.004 --   145 C    0.973
   175   1 H    1.002 --   146 C    0.974
   176   1 H    1.001 --   151 C    0.975
   177   1 H    1.004 --   152 C    0.974
   178   1 H    0.987 --   154 N    0.874
   179   1 H    1.004 --   157 C    0.973
   180   1 H    1.013 --   158 C    0.972
   181   1 H    1.013 --   160 C    0.972
   182   1 H    1.004 --   161 C    0.973
   183   1 H    1.004 --   163 C    0.973
   184   1 H    1.002 --   164 C    0.974
 ---------------------------------------------------------------------------

           -------------------------------------------------
          | TOTAL ENERGY             -319.452370304344 Eh   |
          | GRADIENT NORM               0.000455517758 Eh/α |
          | HOMO-LUMO GAP               0.891604365720 eV   |
           -------------------------------------------------

 * finished run on 2022/07/27 at 18:37:06.469
