   * xtb version 6.5.1 (b24c23e) compiled by 'conda@728c89f4b128' on 2022-07-12
          program call               : xtb PhCHO_C8_3.xyz --gfn 1 --opt -T 48

   ID    Z sym.   atoms
    1    6 C      1-5, 7-12, 14-18, 20-25, 27-32, 34-39, 62-66, 68-73, 75-79,
                  81-86, 88-93, 95-100, 123-143, 145-150, 152-156, 158-163,
                  165-170, 172-177
    2    7 N      6, 19, 26, 40, 67, 80, 87, 101, 144, 157, 164, 178
    3    8 O      13, 33, 74, 94, 151, 171
    4    1 H      41-61, 102-122, 179-198

          :  Hamiltonian                  GFN1-xTB          :
 * total energy  :  -346.2537929 Eh     change        0.6003916E-08 Eh
 * total energy  :  -347.8405716 Eh     change       -0.1586779E+01 Eh
 * total energy  :  -348.1569964 Eh     change       -0.3164248E+00 Eh
 * total energy  :  -348.3189259 Eh     change       -0.1619295E+00 Eh
 * total energy  :  -348.4255845 Eh     change       -0.1066586E+00 Eh
 * total energy  :  -348.5143815 Eh     change       -0.8879694E-01 Eh
 * total energy  :  -348.5760185 Eh     change       -0.6163707E-01 Eh
 * total energy  :  -348.6120199 Eh     change       -0.3600139E-01 Eh
 * total energy  :  -348.6379876 Eh     change       -0.2596768E-01 Eh
 * total energy  :  -348.6562213 Eh     change       -0.1823373E-01 Eh
 * total energy  :  -348.7142904 Eh     change       -0.1967724E-05 Eh
 * total energy  :  -348.7142932 Eh     change       -0.2873463E-05 Eh
 * total energy  :  -348.7142773 Eh     change        0.1590324E-04 Eh
 * total energy  :  -348.7143001 Eh     change       -0.2275153E-04 Eh
 * total energy  :  -348.7143012 Eh     change       -0.1069293E-05 Eh
 * total energy  :  -348.7143016 Eh     change       -0.4201537E-06 Eh
 * total energy  :  -348.7143061 Eh     change       -0.4552321E-05 Eh
 * total energy  :  -348.7143118 Eh     change       -0.5625091E-05 Eh
 * total energy  :  -348.7143162 Eh     change       -0.4443443E-05 Eh
   *** GEOMETRY OPTIMIZATION CONVERGED AFTER 81 ITERATIONS ***

 final structure:
================
198
 xtb: 6.5.1 (b24c23e)
C           23.99211763035314       -0.07526063322658       -0.11947001945816
C           24.61099407998341       -1.28447549991278       -0.40876997391113
C           23.96931683557779       -2.50906639048691       -0.74687026106386
C           24.93762975889921       -3.45545322435906       -0.93008302402147
C           26.20212958462102       -2.84105077636780       -0.70127699420779
N           25.95488789189901       -1.53170038430108       -0.40255789324111
C           27.46947792076982       -3.42981185508851       -0.78398739547483
C           27.51227290177417       -4.87946439108160       -1.08604782480210
C           28.16771176216256       -5.34673307377335       -2.22965706137252
C           28.20779825912318       -6.69927679666870       -2.50767572039270
C           27.59784332333371       -7.61757314696429       -1.64645320493300
C           27.65952994036054       -9.05635768269760       -1.96167936992682
O           28.20730093874905       -9.50536674313399       -2.93586601842703
C           26.94292577123406       -7.15243764996652       -0.50352796284798
C           26.89816420642896       -5.79726100553052       -0.22885277466151
C           28.68004490049254       -2.75557317420199       -0.60265153227856
C           29.98139883430852       -3.39902451670444       -0.63769410612822
C           30.89366661635212       -2.42671841593559       -0.43323316148440
N           28.82287220747417       -1.42500577222296       -0.35433192848873
C           30.14814081972853       -1.19492655129370       -0.25977571416648
C           30.77505974247939        0.04740156760745       -0.03510246968790
C           30.13037976599287        1.27510172768232        0.20663933181711
C           30.76595670178611        2.52583339905830        0.42650321675581
C           29.79301591889157        3.45951580385382        0.65223863111769
C           28.53213154646313        2.80426008138408        0.58312405582538
N           28.78760580905859        1.48873576024157        0.30137530822349
C           27.26524821620200        3.37900782482842        0.73568236377937
C           27.22455215053208        4.81803304130388        1.08207662778824
C           27.82527294860389        5.27912512525725        2.25811160291334
C           27.78470381488905        6.62090526387358        2.58365395117237
C           27.14783210133920        7.53542975709453        1.73807711687819
C           27.12139741356304        8.96262490203952        2.10601616650499
O           27.62474093279623        9.40505722381000        3.10691308603057
C           26.55013030727985        7.07711337852165        0.56143433203756
C           26.58638544270954        5.73237124767612        0.23876795800078
C           26.05314438221588        2.69579502961026        0.58544804210708
C           24.74291835988504        3.29392349464144        0.79184971075123
C           23.83805136573956        2.32604079733862        0.54377471779013
C           24.59414542337425        1.13384238949996        0.20216406201063
N           25.92453076267671        1.39146660685783        0.24718945376129
H           22.90709812315570       -0.08808116255665       -0.14271269822992
H           22.90245681905902       -2.63491591769726       -0.83981166347425
H           24.79496477238247       -4.48674240088596       -1.20935281180556
H           26.67469462805524       -0.84422313237673       -0.20632830080725
H           28.63061581382896       -4.63689094497391       -2.90575842691627
H           28.71028832435190       -7.06900485811177       -3.39506587250702
H           27.15179438477492       -9.70780206428336       -1.21863791330876
H           26.47026594960727       -7.85796598702909        0.17212366478773
H           26.40227112721023       -5.44136955915957        0.66733028416566
H           30.15222967139710       -4.45303467507454       -0.78471434681407
H           31.96760822358850       -2.51057997394305       -0.38856449930330
H           31.83244693135618        2.68198353088244        0.40852642344797
H           29.93307381092272        4.51172643926599        0.83853238289773
H           28.07031519189659        0.78192125736912        0.17664047771779
H           28.30684237968469        4.57138693656221        2.92350315978630
H           28.24237032232109        6.98459960266840        3.49741144802768
H           26.59178285235287        9.61187437164971        1.37656855607845
H           26.05809043121468        7.78034075600983       -0.10262672150999
H           26.13466032075316        5.38259651054177       -0.68262981814035
H           24.56455226348432        4.31207763297649        1.09811786038054
H           22.76171467484112        2.37963689798424        0.59026694488530
C           67.89567938930743        0.11667360513859       -0.08435997875995
C           67.27310903489449        1.27964495920571        0.35012839610293
C           67.91027680250714        2.49267110163852        0.73522503975255
C           66.93964903034956        3.37647751823968        1.11413618938830
C           65.67829010433951        2.72839684160501        0.98079443344379
N           65.92948659349918        1.47249412184311        0.50710990307447
C           64.40992107274710        3.25697653397136        1.24785494156209
C           64.36328402571763        4.63461904822953        1.79078882532216
C           63.69668169099670        5.64896925246814        1.09625208288353
C           63.65356165058832        6.93210339711889        1.60620992610060
C           64.27143058789584        7.23070539109366        2.82525669669696
C           64.20680074268549        8.60624308858572        3.35151572842380
O           63.65058979335520        9.51349301271920        2.78742445899088
C           64.93727647503754        6.21837955289790        3.52051901100968
C           64.98520950319960        4.93498408318417        3.00619279099837
C           63.20190674144479        2.58476574657113        1.04364896826514
C           61.90016801741592        3.13376866111741        1.37959463966890
C           60.99096469288524        2.19946402637259        1.03356518603560
N           63.06264425666792        1.33254774505084        0.52891155766543
C           61.73890276945954        1.07713499322951        0.50035270600313
C           61.11531651653869       -0.09515881643418        0.02753374492034
C           61.76273395032852       -1.25020712281337       -0.44970508324146
C           61.12955906964627       -2.42318431100346       -0.93957654920069
C           62.10532875766428       -3.31573429984149       -1.28663151800713
C           63.36586666951923       -2.71621177084797       -1.01149136883563
N           63.10688359099721       -1.46589933410299       -0.51653276991409
C           64.63476590805512       -3.26481679966240       -1.22924232967250
C           64.68131918440618       -4.65322679117447       -1.74174967171260
C           64.10803518000618       -5.69790693026772       -1.00934812904516
C           64.15408152121928       -6.99325079124941       -1.48691389065771
C           64.76913396139989       -7.27479897401216       -2.71141877096729
C           64.80181428857041       -8.66476719391519       -3.20114394042295
O           64.32182272589280       -9.59550567647977       -2.60598832574640
C           65.33972552914916       -6.23212759537987       -3.44564745719615
C           65.29805048667812       -4.93593547173617       -2.96416394981709
C           65.84453274568338       -2.59978639541200       -0.99926963434542
C           67.15766139693726       -3.19943805441041       -1.18149254327811
C           68.05894830605148       -2.24812794938679       -0.86559161495036
C           67.29808700737905       -1.07356864052687       -0.47673431472067
N           65.96843061086341       -1.32540673113561       -0.56025088396606
H           68.98019796329336        0.14916336659642       -0.11154638948440
H           68.97580492466594        2.65670277005422        0.71495676690412
H           67.07855099194249        4.39213681489950        1.44737646527459
H           65.21227300541739        0.78532601407696        0.30052944196543
H           63.22744837005783        5.42384134083728        0.14525251040332
H           63.14256113164405        7.72531339974298        1.07109182404407
H           64.72030994266920        8.74549001653311        4.32683811532415
H           65.41608072540741        6.44015261308478        4.46881088006617
H           65.48991098647468        4.14850399869856        3.55613329174733
H           61.72723459985240        4.09704114893370        1.83116388378943
H           59.91777157642459        2.23731116529355        1.12948562596160
H           60.06256054623093       -2.55560511891345       -1.01755475456805
H           61.96706699090051       -4.29825613987532       -1.70733000203206
H           63.82280488308517       -0.79867591583109       -0.24832773268809
H           63.64368037341266       -5.48613653203780       -0.05275743156033
H           63.71759067365218       -7.80938751028022       -0.92114769998164
H           65.31240661961837       -8.79154099649464       -4.17961589205600
H           65.81490513128708       -6.44088258174697       -4.39867431742068
H           65.72863064663574       -4.12719205932241       -3.54376573515577
H           67.34039662044556       -4.21481053119358       -1.49435854779122
H           69.13590358144168       -2.30838952694937       -0.87429466661612
C           32.18051121113945        0.07482027162270       -0.04574731539453
C           33.40478619444379        0.09339287985638       -0.06068206510529
C           34.74713929616934        0.10669377448276       -0.07710583949969
C           35.97766720289357        0.11204045383342       -0.09140046975694
C           37.31531722562436        0.11064167722367       -0.10236527751295
C           38.54599042959084        0.10407139852787       -0.10697838956292
C           39.88823999542673        0.09284143586756       -0.10557507752429
C           41.11281366654129        0.07552860942651       -0.09717577617230
C           50.77714249028887       -0.09763764643936        0.00977500341467
C           52.00153396824557       -0.12178245324368        0.01766593569468
C           53.34382846725337       -0.14092743967314        0.02291356405209
C           54.57439840154556       -0.15250150778127        0.02745784558645
C           55.91221824358256       -0.15754293186572        0.03005401320200
C           57.14276181120029       -0.15626345640823        0.03003520998335
C           58.48537992393008       -0.14445464478460        0.03114580579343
C           59.70969070134618       -0.12629364624135        0.03032490392661
C           42.51730472463831        0.05408047754693       -0.08174124785423
C           43.16810930637001        0.98404640793929       -0.91491537207634
C           42.54311380062042        1.91470740611060       -1.78474113601137
C           43.52593419340479        2.63812294286988       -2.40295687803403
C           44.78033466485728        2.17474388996757       -1.92036885332752
N           44.51340347681127        1.16902454403240       -1.03089418347504
C           46.05215752870448        2.62796658450749       -2.29158328538590
C           46.09551204750858        3.75168549892805       -3.25773341317605
C           46.69942977706346        3.58613358844660       -4.50789924325752
C           46.73589752634421        4.63267048132456       -5.40894619552229
C           46.17569985086339        5.87112027864038       -5.07842062882021
C           46.23027193285644        6.97349009197794       -6.05607494059594
O           46.72836295635400        6.87518003844222       -7.14814657116773
C           45.57512631338665        6.03872894452570       -3.82839907247287
C           45.53223947198929        4.98793338250260       -2.92935757028985
C           47.26478394136626        2.11258305281045       -1.82988050419981
C           48.56383374430151        2.64952391421003       -2.19508782517675
C           49.48182229950110        1.89652589025518       -1.55516886236881
N           47.41460563557229        1.06858570702620       -0.96965203059364
C           48.74217538078673        0.90888599806476       -0.79397244319623
C           49.37251146614565       -0.07013036864650       -0.00042448759294
C           48.72152876052426       -1.03268228192309        0.79466270036296
C           49.34623519047633       -2.03380889139530        1.58276121369202
C           48.36364299656766       -2.74779878722032        2.21194957853924
C           47.10960530468564       -2.19643396470667        1.83148174070924
N           47.37643822907935       -1.16920027764621        0.96701707859354
C           45.83802553656896       -2.62589516736785        2.23082700342460
C           45.79561413683308       -3.74308477607912        3.20437330689611
C           45.18196049486072       -4.95227114551922        2.86562150961565
C           45.14267726347427       -5.99645118275632        3.77235457575941
C           45.71239158224565       -5.85007503172715        5.03945086995687
C           45.68137346251356       -6.94606382377032        6.02528295525657
O           46.16169899852304       -6.86846635115933        7.12716160297646
C           46.32456733180554       -4.63922755434855        5.37969027632127
C           46.36867059424306       -3.59898924518241        4.47165126125386
C           44.62530505294643       -2.09009345918968        1.79306719965616
C           43.32658339249104       -2.52673537071826        2.27447768812710
C           42.40852108125448       -1.78026234943926        1.62693267444377
C           43.14791962773958       -0.88305448000578        0.76088253433014
N           44.47520273789276       -1.08491226590610        0.88779574107952
H           41.47755961348650        2.00791455572676       -1.91872650937860
H           43.39549715829406        3.41715871697676       -3.13614866750551
H           45.22093998976312        0.63615318165983       -0.53619418104484
H           47.12454128213633        2.62412911683993       -4.77075325751202
H           47.19669370153235        4.51065777509730       -6.38332451484767
H           45.76783021876749        7.91966991757409       -5.70237630779358
H           45.14206716040667        6.99747069250856       -3.56210332408474
H           45.07651763169451        5.12496535432831       -1.95509659096952
H           48.72867478421991        3.49588298451085       -2.84178646995153
H           50.55619697542426        1.98473624384568       -1.57317823182684
H           50.41150272483483       -2.18436409699187        1.65016587988726
H           48.49380329757533       -3.58837332625373        2.87370084494853
H           46.66915992449236       -0.59726259739269        0.51766889257237
H           44.75003667630865       -5.07263689277634        1.87862005505354
H           44.66982280547087       -6.93399204925918        3.49872924222145
H           45.17174621963004       -7.86635320264917        5.66798931085006
H           46.76016550201654       -4.53285127398532        6.36739751223647
H           46.83174101596260       -2.65710377958302        4.74347870083945
H           43.16162651146607       -3.29019002349237        3.01724591217357
H           41.33434578942652       -1.80819418179673        1.71520927427709

          :  Hamiltonian                  GFN1-xTB          :
         :: total energy            -348.714316205631 Eh    ::
         :: gradient norm              0.000523602125 Eh/a0 ::
         :: HOMO-LUMO gap              0.975285991538 eV    ::
         :: SCC energy              -354.565876397287 Eh    ::
         :: repulsion energy           6.017399114791 Eh    ::

    * Orbital Energies and Occupations

         #    Occupation            Energy/Eh            Energy/eV
      -------------------------------------------------------------
         1        2.0000           -0.8183535             -22.2685
       ...           ...                  ...                  ...
       303        2.0000           -0.4287618             -11.6672
       304        2.0000           -0.4283535             -11.6561
       305        2.0000           -0.4277471             -11.6396
       306        2.0000           -0.4260791             -11.5942
       307        2.0000           -0.4226119             -11.4999
       308        2.0000           -0.4213801             -11.4663
       309        2.0000           -0.4186597             -11.3923
       310        2.0000           -0.4128121             -11.2332
       311        2.0000           -0.4120753             -11.2131
       312        2.0000           -0.4114247             -11.1954
       313        2.0000           -0.3975670             -10.8183
       314        2.0000           -0.3953470             -10.7579
       315        2.0000           -0.3915514             -10.6547 (HOMO)
       316                         -0.3557103              -9.6794 (LUMO)
       317                         -0.3501386              -9.5278
       318                         -0.3487406              -9.4897
       319                         -0.3471366              -9.4461
       320                         -0.3466364              -9.4325
       321                         -0.3460077              -9.4153
       322                         -0.3306141              -8.9965
       323                         -0.3291677              -8.9571
       324                         -0.3286216              -8.9422
       325                         -0.3240952              -8.8191
       326                         -0.3237928              -8.8109
       ...                                ...                  ...
       668                          1.5959569              43.4282
      -------------------------------------------------------------
                  HL-Gap            0.0358411 Eh            0.9753 eV

Wiberg/Mayer (AO) data.
largest (>0.10) Wiberg bond orders for each atom

     #   Z sym  total        # sym  WBO       # sym  WBO       # sym  WBO
 ---------------------------------------------------------------------------
     1   6 C    3.926 --    39 C    1.367     2 C    1.347    41 H    0.970
     2   6 C    3.901 --     1 C    1.347     3 C    1.229     6 N    1.169
     3   6 C    3.954 --     4 C    1.596     2 C    1.229    42 H    0.976
     4   6 C    3.959 --     3 C    1.596     5 C    1.233    43 H    0.974
     5   6 C    3.896 --     7 C    1.300     4 C    1.233     6 N    1.179
     6   7 N    3.470 --     5 C    1.179     2 C    1.169    44 H    0.873
     7   6 C    3.938 --    16 C    1.332     5 C    1.300     8 C    1.035
     8   6 C    3.986 --    15 C    1.383     9 C    1.379     7 C    1.035
     9   6 C    3.987 --    10 C    1.471     8 C    1.379    45 H    0.971
    10   6 C    3.988 --     9 C    1.471    11 C    1.369    46 H    0.968
                            15 C    0.100
    11   6 C    3.982 --    14 C    1.378    10 C    1.369    12 C    1.049
    12   6 C    3.864 --    13 O    1.808    11 C    1.049    47 H    0.942
    13   8 O    2.003 --    12 C    1.808
    14   6 C    3.993 --    15 C    1.466    11 C    1.378    48 H    0.971
    15   6 C    3.986 --    14 C    1.466     8 C    1.383    49 H    0.972
                            10 C    0.100
    16   6 C    3.913 --     7 C    1.332    19 N    1.288    17 C    1.124
    17   6 C    3.965 --    18 C    1.711    16 C    1.124    50 H    0.973
    18   6 C    3.964 --    17 C    1.711    20 C    1.127    51 H    0.974
    19   7 N    3.022 --    20 C    1.342    16 C    1.288
    20   6 C    3.906 --    19 N    1.342    21 C    1.255    18 C    1.127
    21   6 C    3.938 --    20 C    1.255    22 C    1.252   123 C    1.190
    22   6 C    3.884 --    21 C    1.252    23 C    1.248    26 N    1.188
    23   6 C    3.959 --    24 C    1.584    22 C    1.248    52 H    0.974
    24   6 C    3.954 --    23 C    1.584    25 C    1.240    53 H    0.974
    25   6 C    3.898 --    27 C    1.306    24 C    1.240    26 N    1.167
    26   7 N    3.475 --    22 C    1.188    25 C    1.167    54 H    0.872
    27   6 C    3.924 --    36 C    1.318    25 C    1.306    28 C    1.037
    28   6 C    3.986 --    35 C    1.381    29 C    1.379    27 C    1.037
    29   6 C    3.986 --    30 C    1.472    28 C    1.379    55 H    0.972
    30   6 C    3.988 --    29 C    1.472    31 C    1.369    56 H    0.968
                            35 C    0.100
    31   6 C    3.982 --    34 C    1.378    30 C    1.369    32 C    1.050
    32   6 C    3.864 --    33 O    1.807    31 C    1.050    57 H    0.942
    33   8 O    2.003 --    32 C    1.807
    34   6 C    3.993 --    35 C    1.466    31 C    1.378    58 H    0.971
    35   6 C    3.986 --    34 C    1.466    28 C    1.381    59 H    0.971
                            30 C    0.100
    36   6 C    3.928 --    40 N    1.319    27 C    1.318    37 C    1.117
    37   6 C    3.967 --    38 C    1.724    36 C    1.117    60 H    0.973
    38   6 C    3.966 --    37 C    1.724    39 C    1.116    61 H    0.975
    39   6 C    3.928 --     1 C    1.367    40 N    1.299    38 C    1.116
    40   7 N    3.012 --    36 C    1.319    39 C    1.299
    41   1 H    1.002 --     1 C    0.970
    42   1 H    0.997 --     3 C    0.976
    43   1 H    1.004 --     4 C    0.974
    44   1 H    0.986 --     6 N    0.873
    45   1 H    1.004 --     9 C    0.971
    46   1 H    1.005 --    10 C    0.968
    47   1 H    1.010 --    12 C    0.942
    48   1 H    1.000 --    14 C    0.971
    49   1 H    1.004 --    15 C    0.972
    50   1 H    1.004 --    17 C    0.973
    51   1 H    1.002 --    18 C    0.974
    52   1 H    1.001 --    23 C    0.974
    53   1 H    1.004 --    24 C    0.974
    54   1 H    0.987 --    26 N    0.872
    55   1 H    1.004 --    29 C    0.972
    56   1 H    1.005 --    30 C    0.968
    57   1 H    1.010 --    32 C    0.942
    58   1 H    1.000 --    34 C    0.971
    59   1 H    1.004 --    35 C    0.971
    60   1 H    1.004 --    37 C    0.973
    61   1 H    0.998 --    38 C    0.975
    62   6 C    3.927 --   100 C    1.367    63 C    1.347   102 H    0.970
    63   6 C    3.901 --    62 C    1.347    64 C    1.229    67 N    1.169
    64   6 C    3.954 --    65 C    1.596    63 C    1.229   103 H    0.976
    65   6 C    3.959 --    64 C    1.596    66 C    1.233   104 H    0.974
    66   6 C    3.897 --    68 C    1.301    65 C    1.233    67 N    1.179
    67   7 N    3.471 --    66 C    1.179    63 C    1.169   105 H    0.873
    68   6 C    3.938 --    77 C    1.332    66 C    1.301    69 C    1.035
    69   6 C    3.986 --    76 C    1.383    70 C    1.380    68 C    1.035
    70   6 C    3.987 --    71 C    1.471    69 C    1.380   106 H    0.971
    71   6 C    3.988 --    70 C    1.471    72 C    1.369   107 H    0.968
                            76 C    0.100
    72   6 C    3.982 --    75 C    1.378    71 C    1.369    73 C    1.049
    73   6 C    3.864 --    74 O    1.808    72 C    1.049   108 H    0.942
    74   8 O    2.003 --    73 C    1.808
    75   6 C    3.993 --    76 C    1.466    72 C    1.378   109 H    0.971
    76   6 C    3.987 --    75 C    1.466    69 C    1.383   110 H    0.972
                            71 C    0.100
    77   6 C    3.913 --    68 C    1.332    80 N    1.288    78 C    1.124
    78   6 C    3.965 --    79 C    1.711    77 C    1.124   111 H    0.973
    79   6 C    3.964 --    78 C    1.711    81 C    1.127   112 H    0.974
    80   7 N    3.022 --    81 C    1.342    77 C    1.288
    81   6 C    3.906 --    80 N    1.342    82 C    1.255    79 C    1.127
    82   6 C    3.938 --    81 C    1.255    83 C    1.253   138 C    1.189
    83   6 C    3.884 --    82 C    1.253    84 C    1.248    87 N    1.188
    84   6 C    3.959 --    85 C    1.584    83 C    1.248   113 H    0.974
    85   6 C    3.955 --    84 C    1.584    86 C    1.240   114 H    0.974
    86   6 C    3.898 --    88 C    1.307    85 C    1.240    87 N    1.167
    87   7 N    3.475 --    83 C    1.188    86 C    1.167   115 H    0.872
    88   6 C    3.924 --    97 C    1.317    86 C    1.307    89 C    1.037
    89   6 C    3.986 --    96 C    1.381    90 C    1.379    88 C    1.037
    90   6 C    3.986 --    91 C    1.472    89 C    1.379   116 H    0.972
    91   6 C    3.988 --    90 C    1.472    92 C    1.369   117 H    0.968
                            96 C    0.100
    92   6 C    3.982 --    95 C    1.378    91 C    1.369    93 C    1.050
    93   6 C    3.864 --    94 O    1.807    92 C    1.050   118 H    0.942
    94   8 O    2.003 --    93 C    1.807
    95   6 C    3.993 --    96 C    1.466    92 C    1.378   119 H    0.971
    96   6 C    3.986 --    95 C    1.466    89 C    1.381   120 H    0.971
                            91 C    0.100
    97   6 C    3.928 --   101 N    1.319    88 C    1.317    98 C    1.117
    98   6 C    3.967 --    99 C    1.724    97 C    1.117   121 H    0.973
    99   6 C    3.966 --    98 C    1.724   100 C    1.116   122 H    0.975
   100   6 C    3.928 --    62 C    1.367   101 N    1.299    99 C    1.116
   101   7 N    3.013 --    97 C    1.319   100 C    1.299
   102   1 H    1.002 --    62 C    0.970
   103   1 H    0.997 --    64 C    0.976
   104   1 H    1.004 --    65 C    0.974
   105   1 H    0.986 --    67 N    0.873
   106   1 H    1.004 --    70 C    0.971
   107   1 H    1.005 --    71 C    0.968
   108   1 H    1.010 --    73 C    0.942
   109   1 H    1.000 --    75 C    0.971
   110   1 H    1.004 --    76 C    0.972
   111   1 H    1.004 --    78 C    0.973
   112   1 H    1.002 --    79 C    0.974
   113   1 H    1.001 --    84 C    0.974
   114   1 H    1.004 --    85 C    0.974
   115   1 H    0.987 --    87 N    0.872
   116   1 H    1.004 --    90 C    0.972
   117   1 H    1.005 --    91 C    0.968
   118   1 H    1.010 --    93 C    0.942
   119   1 H    1.000 --    95 C    0.971
   120   1 H    1.004 --    96 C    0.971
   121   1 H    1.004 --    98 C    0.973
   122   1 H    0.998 --    99 C    0.975
   123   6 C    3.876 --   124 C    2.439    21 C    1.190   126 C    0.186
   124   6 C    3.933 --   123 C    2.439   125 C    1.343
   125   6 C    3.891 --   126 C    2.336   124 C    1.343   128 C    0.182
   126   6 C    3.924 --   125 C    2.336   127 C    1.369   123 C    0.186
   127   6 C    3.922 --   128 C    2.335   126 C    1.369   130 C    0.186
   128   6 C    3.892 --   127 C    2.335   129 C    1.345   125 C    0.182
   129   6 C    3.930 --   130 C    2.436   128 C    1.345
   130   6 C    3.877 --   129 C    2.436   139 C    1.193   127 C    0.186
   131   6 C    3.877 --   132 C    2.437   159 C    1.193   134 C    0.186
   132   6 C    3.930 --   131 C    2.437   133 C    1.344
   133   6 C    3.892 --   134 C    2.336   132 C    1.344   136 C    0.182
   134   6 C    3.922 --   133 C    2.336   135 C    1.368   131 C    0.186
   135   6 C    3.924 --   136 C    2.336   134 C    1.368   138 C    0.186
   136   6 C    3.891 --   135 C    2.336   137 C    1.343   133 C    0.182
   137   6 C    3.933 --   138 C    2.440   136 C    1.343
   138   6 C    3.876 --   137 C    2.440    82 C    1.189   135 C    0.186
   139   6 C    3.927 --   177 C    1.254   140 C    1.248   130 C    1.193
   140   6 C    3.884 --   141 C    1.252   139 C    1.248   144 N    1.189
   141   6 C    3.956 --   142 C    1.578   140 C    1.252   179 H    0.975
   142   6 C    3.955 --   141 C    1.578   143 C    1.245   180 H    0.974
   143   6 C    3.893 --   145 C    1.298   142 C    1.245   144 N    1.168
   144   7 N    3.472 --   140 C    1.189   143 C    1.168   181 H    0.873
   145   6 C    3.927 --   154 C    1.335   143 C    1.298   146 C    1.032
   146   6 C    3.986 --   153 C    1.384   147 C    1.380   145 C    1.032
   147   6 C    3.987 --   148 C    1.471   146 C    1.380   182 H    0.972
   148   6 C    3.988 --   147 C    1.471   149 C    1.370   183 H    0.968
                           153 C    0.100
   149   6 C    3.983 --   152 C    1.379   148 C    1.370   150 C    1.049
   150   6 C    3.864 --   151 O    1.809   149 C    1.049   184 H    0.942
   151   8 O    2.004 --   150 C    1.809
   152   6 C    3.993 --   153 C    1.465   149 C    1.379   185 H    0.971
   153   6 C    3.987 --   152 C    1.465   146 C    1.384   186 H    0.972
                           148 C    0.100
   154   6 C    3.915 --   145 C    1.335   157 N    1.286   155 C    1.123
   155   6 C    3.966 --   156 C    1.711   154 C    1.123   187 H    0.973
   156   6 C    3.964 --   155 C    1.711   158 C    1.128   188 H    0.974
   157   7 N    3.010 --   158 C    1.342   154 C    1.286
   158   6 C    3.907 --   157 N    1.342   159 C    1.255   156 C    1.128
   159   6 C    3.927 --   158 C    1.255   160 C    1.248   131 C    1.193
   160   6 C    3.884 --   161 C    1.252   159 C    1.248   164 N    1.189
   161   6 C    3.956 --   162 C    1.579   160 C    1.252   189 H    0.975
   162   6 C    3.955 --   161 C    1.579   163 C    1.244   190 H    0.974
   163   6 C    3.893 --   165 C    1.298   162 C    1.244   164 N    1.168
   164   7 N    3.472 --   160 C    1.189   163 C    1.168   191 H    0.874
   165   6 C    3.927 --   174 C    1.335   163 C    1.298   166 C    1.032
   166   6 C    3.986 --   167 C    1.383   173 C    1.381   165 C    1.032
   167   6 C    3.987 --   168 C    1.465   166 C    1.383   192 H    0.972
                           172 C    0.101
   168   6 C    3.993 --   167 C    1.465   169 C    1.378   193 H    0.971
   169   6 C    3.983 --   168 C    1.378   172 C    1.370   170 C    1.049
   170   6 C    3.864 --   171 O    1.808   169 C    1.049   194 H    0.942
   171   8 O    2.004 --   170 C    1.808
   172   6 C    3.988 --   173 C    1.471   169 C    1.370   195 H    0.968
                           167 C    0.101
   173   6 C    3.986 --   172 C    1.471   166 C    1.381   196 H    0.972
   174   6 C    3.915 --   165 C    1.335   178 N    1.286   175 C    1.124
   175   6 C    3.966 --   176 C    1.711   174 C    1.124   197 H    0.973
   176   6 C    3.964 --   175 C    1.711   177 C    1.128   198 H    0.974
   177   6 C    3.907 --   178 N    1.343   139 C    1.254   176 C    1.128
   178   7 N    3.010 --   177 C    1.343   174 C    1.286
   179   1 H    1.001 --   141 C    0.975
   180   1 H    1.004 --   142 C    0.974
   181   1 H    0.987 --   144 N    0.873
   182   1 H    1.004 --   147 C    0.972
   183   1 H    1.005 --   148 C    0.968
   184   1 H    1.010 --   150 C    0.942
   185   1 H    1.000 --   152 C    0.971
   186   1 H    1.004 --   153 C    0.972
   187   1 H    1.004 --   155 C    0.973
   188   1 H    1.002 --   156 C    0.974
   189   1 H    1.001 --   161 C    0.975
   190   1 H    1.004 --   162 C    0.974
   191   1 H    0.987 --   164 N    0.874
   192   1 H    1.004 --   167 C    0.972
   193   1 H    1.000 --   168 C    0.971
   194   1 H    1.010 --   170 C    0.942
   195   1 H    1.005 --   172 C    0.968
   196   1 H    1.004 --   173 C    0.972
   197   1 H    1.004 --   175 C    0.973
   198   1 H    1.002 --   176 C    0.974
 ---------------------------------------------------------------------------

           -------------------------------------------------
          | TOTAL ENERGY             -348.714316205631 Eh   |
          | GRADIENT NORM               0.000523602125 Eh/α |
          | HOMO-LUMO GAP               0.975285991538 eV   |
           -------------------------------------------------

 * finished run on 2022/07/30 at 15:27:59.795
