   * xtb version 6.5.1 (b24c23e) compiled by 'conda@728c89f4b128' on 2022-07-12
          program call               : xtb Ni_NMA_C4_3.xyz --gfn 1 --opt -T 48

   ID    Z sym.   atoms
    1   28 Ni     1, 67, 141
    2    6 C      2-6, 8-12, 14-19, 21-26, 28-32, 34-40, 68-72, 74-78, 80-85,
                  87-92, 94-98, 100-106, 133-140, 142-146, 148-152, 154-159,
                  161-166, 168-172, 174-180
    3    7 N      7, 13, 20, 27, 33, 41, 73, 79, 86, 93, 99, 107, 147, 153,
                  160, 167, 173, 181
    4    1 H      42-66, 108-132, 182-205

          :  Hamiltonian                  GFN1-xTB          :
 * total energy  :  -326.1847697 Eh     change        0.1997734E-07 Eh
 * total energy  :  -337.5002923 Eh     change       -0.1131552E+02 Eh
 * total energy  :  -338.8469161 Eh     change       -0.1346624E+01 Eh
 * total energy  :  -339.6774636 Eh     change       -0.8305475E+00 Eh
 * total energy  :  -340.1832380 Eh     change       -0.5057744E+00 Eh
 * total energy  :  -340.4577887 Eh     change       -0.2745507E+00 Eh
 * total energy  :  -340.6425178 Eh     change       -0.1847291E+00 Eh
 * total energy  :  -340.7768132 Eh     change       -0.1342954E+00 Eh
 * total energy  :  -340.8763084 Eh     change       -0.9949517E-01 Eh
 * total energy  :  -340.9520502 Eh     change       -0.7574188E-01 Eh
 * total energy  :  -342.1938648 Eh     change       -0.1521655E-04 Eh
 * total energy  :  -342.1938754 Eh     change       -0.1058368E-04 Eh
 * total energy  :  -342.1938876 Eh     change       -0.1215373E-04 Eh
 * total energy  :  -342.1939023 Eh     change       -0.1468385E-04 Eh
 * total energy  :  -342.1939169 Eh     change       -0.1467632E-04 Eh
 * total energy  :  -342.1939317 Eh     change       -0.1477559E-04 Eh
 * total energy  :  -342.1939423 Eh     change       -0.1062938E-04 Eh
 * total energy  :  -342.1939495 Eh     change       -0.7179656E-05 Eh
 * total energy  :  -342.1939535 Eh     change       -0.3979590E-05 Eh
   *** GEOMETRY OPTIMIZATION CONVERGED AFTER 121 ITERATIONS ***

 final structure:
================
205
 xtb: 6.5.1 (b24c23e)
Ni          36.09266954435385        0.05888112555294       -0.06054562243919
C           32.70731896403746        0.16789244978591       -0.18148933975806
C           33.34742298240436        0.94001426217442        0.76633642421598
C           32.66326204889512        1.74246673618578        1.73286099973090
C           33.61466919576462        2.41758536197085        2.42075300902715
C           34.87882388901119        2.04371050374788        1.85810599031038
N           34.70626733123116        1.10142452398171        0.87481608093278
C           36.09131772847915        2.62350728181627        2.21337664630552
C           36.09864457493736        3.72248882822392        3.20471240221684
C           35.37846279431929        4.89855355017332        2.97729435864714
C           35.39989983155910        5.92937555994032        3.89753020119387
C           36.13926382604352        5.81171061535890        5.08094994738536
N           36.08818684746457        6.85016291559589        5.99873648956694
C           37.16807581826973        7.01103586313022        6.96346334485533
C           36.84668588179937        4.63023847143361        5.32158139555241
C           36.83022189687763        3.60797287532466        4.38828878033512
C           37.29992500128709        2.21849487660512        1.65931112599854
C           38.55259103784390        2.85774283348421        1.92450566889496
C           39.50524260173799        2.13472139955432        1.28665560140323
N           37.48065274533501        1.13689685846678        0.82712997905303
C           38.83256463048365        1.05960312634443        0.63119433784896
C           39.50071208270737        0.02113943447876       -0.02383742799565
C           38.82464354391902       -1.01941366612322       -0.66804923602567
C           39.48628731154356       -2.13261037162350       -1.26856616804597
C           38.52831442086975       -2.86890672473840       -1.88301517605427
C           37.28554070160970       -2.19148107470702       -1.67105571246779
N           37.47497375965822       -1.07967413782842       -0.88085878483192
C           36.08416952900080       -2.57392774848643       -2.25523946124359
C           36.08020138847704       -3.71390795646875       -3.19916704160985
C           36.86482459517175       -3.68699496064898       -4.35355274295146
C           36.86246553099097       -4.74552828525284       -5.24573604917493
C           36.08038574884226       -5.87590182259540       -4.99155910313844
N           36.00464080340833       -6.94411784979445       -5.87293593080593
C           37.10553362525040       -7.19873332487791       -6.79249374722924
C           35.28922026166080       -5.90640555996283       -3.83636200445467
C           35.28726594941423       -4.83948657712298       -2.95807827506747
C           34.88765499013401       -1.91500981837611       -1.99526244302753
C           33.64465321920652       -2.22698283909546       -2.63710485735542
C           32.69699620414360       -1.45334750288324       -2.05617015769478
C           33.36258500072358       -0.66322208693228       -1.06664217787762
N           34.71081412812465       -0.92326207820353       -1.06328303959803
H           31.62505581304134        0.20737412455391       -0.22514142843428
H           31.59233088212094        1.76880738357826        1.85789784612219
H           33.48390602825906        3.10735525280397        3.23871966917132
H           34.81760365052225        5.01238984229588        2.05602384556699
H           34.84406808562213        6.84088988895498        3.70425731322495
H           35.81175318120013        7.72970125131478        5.57928001864432
H           38.14829369999783        7.02340102660558        6.47317155948673
H           37.14193860499646        6.20008217746533        7.69264274352868
H           37.01476752406609        7.95494904187123        7.48632146948617
H           37.41065101019160        4.50136362188796        6.23722546222126
H           37.37803281948609        2.69361690498227        4.58923007812472
H           38.67697870760429        3.75025355643781        2.51580474539473
H           40.57026160665018        2.29982952617223        1.25732491881636
H           40.54739914436873       -2.31613389528394       -1.21565311677670
H           38.64376288095846       -3.79094541540726       -2.42907819829710
H           37.46867204785161       -2.81165067749051       -4.56678620925775
H           37.46917695817966       -4.68398708543242       -6.14069245219831
H           35.66584859384842       -7.79108238049169       -5.43253551669405
H           37.15012439000555       -6.41356982439071       -7.54849874915663
H           36.91623245165996       -8.15032649615174       -7.28919491125873
H           38.06648819582497       -7.24867904629862       -6.26756794162503
H           34.67600887862432       -6.77802173591750       -3.63274546040744
H           34.68230185276535       -4.88437807058406       -2.05907395415033
H           33.52587053006547       -2.94302711951840       -3.43406155824347
H           31.63956877034223       -1.40935170538567       -2.26391454396734
Ni          62.92723334050712        0.03364781087672       -0.03283075668814
C           66.31348855088514        0.10175090690174       -0.13896020836823
C           65.66899450874514       -0.99072306449913       -0.68249241617584
C           66.34816614835937       -2.11894897173252       -1.24103043293175
C           65.39460987403255       -2.92827716712583       -1.76059310714436
C           64.13436245931976       -2.28283483635176       -1.53766293313395
N           64.31043297175438       -1.11811437552116       -0.83275077859962
C           62.92316630199953       -2.74282602023079       -2.04211890803356
C           62.91565398712771       -3.94866786439941       -2.89986214042853
C           63.65881454971755       -3.99222353981431       -4.08291218509924
C           63.64363241793239       -5.11668364342486       -4.88609826326444
C           62.88766494432640       -6.23892700741982       -4.52525394045594
N           62.94898168465703       -7.36491519450012       -5.33242943682015
C           61.86398949914943       -8.33637315475382       -5.29706746092458
C           62.15433168446038       -6.20604325198792       -3.33562186233113
C           62.16508412489952       -5.07071576170550       -2.54363501334373
C           61.71724308310542       -2.10499438325553       -1.77595214461751
C           60.46486624357633       -2.49334877483425       -2.34928057162497
C           59.51307184138482       -1.71649902556487       -1.77648862236575
N           61.53782398631405       -1.06259594916830       -0.89474576350330
C           60.18646767253666       -0.85208865400637       -0.86155499887548
C           59.51993163673140        0.00871507407906        0.01541563741056
C           60.19768064588779        0.86689920053682        0.88648037368785
C           59.53823688726231        1.70097793403588        1.83890060086542
C           60.49673156322925        2.46889738604044        2.41256077200616
C           61.73788679430027        2.11182543226721        1.79587023864063
N           61.54701862766264        1.09072384216482        0.89195910515169
C           62.93979825357308        2.76743142583326        2.03398260899506
C           62.94509931830779        3.94339986653544        2.93258230201796
C           62.15981129851231        5.06237319600002        2.64962085953813
C           62.16054839913009        6.16703475376741        3.48408251773212
C           62.94143710553347        6.17032301943258        4.64345398693293
N           63.01317032297025        7.26580058561834        5.49101552811469
C           61.90764846192269        8.21339865467793        5.53776275028663
C           63.73457517725207        5.05209092282246        4.92920039320996
C           63.73803316397142        3.95913521342940        4.08359447856472
C           64.13615543953087        2.36107409476228        1.45352512769416
C           65.38178301876549        3.05131604294531        1.61564027813175
C           66.32937187522005        2.30151285475510        1.00405516647467
C           65.66094953577493        1.15980874211213        0.45982020848073
N           64.31138978805531        1.22480300137603        0.70403904314618
H           67.39641478457399        0.12577540695515       -0.17666680109028
H           67.41747215396053       -2.25876306659577       -1.22449119631203
H           65.52149372839695       -3.88021009080572       -2.25012016080343
H           64.23385075972783       -3.12381703486602       -4.38528407371049
H           64.21849838410431       -5.13410704012321       -5.80612057859602
H           63.24843809001855       -7.15414522565994       -6.27670159361278
H           60.88857231891739       -7.85692370211441       -5.43896113696117
H           61.86784761527596       -8.86637041208063       -4.34357545480045
H           62.03105819885813       -9.05731411389140       -6.09728588776869
H           61.57539676479448       -7.06536018368325       -3.02027455331196
H           61.59848551304182       -5.06054788692896       -1.61880611498594
H           60.33985064908602       -3.25708297763211       -3.09947205904265
H           58.44835522028471       -1.71942042777729       -1.94613606373956
H           58.47796570844336        1.68840578332414        2.03412525701719
H           60.38266095039115        3.20940318955228        3.18737121476618
H           61.55606536442032        5.07541924524360        1.74863057415129
H           61.55298825056801        7.02554773401473        3.22558881716547
H           63.35410936099601        7.02467994559359        6.41380809802934
H           61.86463430291577        8.78363434552549        4.60881792767275
H           62.08970057507959        8.90295873204111        6.36201586969157
H           60.94840003070253        7.70671684668794        5.69421698536826
H           64.34750499936433        5.04760062814424        5.82444413557408
H           64.34372623510700        3.09300728278349        4.32695813981626
H           65.50241429580382        3.99181265778600        2.12839750333913
H           67.38839982116355        2.48757755425168        0.92008982880579
C           42.12732556212827        0.01793395288308       -0.03178332253280
C           40.90559947435806        0.01627509289166       -0.02497115688792
C           43.47726274502246        0.02059996853356       -0.03711547970072
C           44.69907797005012        0.02583697160071       -0.04200946266703
C           55.54366928791527        0.00528157678368        0.03265758247201
C           54.32186661128123        0.00621431668151        0.02759633512208
C           56.89351894327348        0.00481289457448        0.03360745434597
C           58.11521801140120        0.00630494671140        0.02626079991564
Ni          49.51053101172555        0.02962650190623       -0.02797860489818
C           46.10323278567633        0.02914674451902       -0.04310065894148
C           46.78041432568497       -1.06149637472964       -0.59805518064438
C           46.12321938648536       -2.21269607133973       -1.12682421694862
C           47.08158556867298       -2.97309319618369       -1.71206598695391
C           48.32028574919038       -2.27650487756939       -1.54822282931332
N           48.12938284604814       -1.12730988846970       -0.81467023426111
C           49.52096305006783       -2.66996941743604       -2.12873672651631
C           49.52443064720445       -3.83453784790775       -3.04057214827253
C           50.34383376199290       -4.93870598579630       -2.78721661274785
C           50.34630840850147       -6.02747844860635       -3.63779847182617
C           49.53572232121084       -6.04058687130803       -4.77974970633899
N           49.53735437285975       -7.17514302049945       -5.57699821688238
C           49.11045601935908       -7.08269976940669       -6.96662275417371
C           48.70975734917639       -4.94203009142521       -5.03472564198963
C           48.70782012191619       -3.85864763504323       -4.17285191684504
C           50.71886674359144       -2.00962350416832       -1.87916998461350
C           51.96449666261253       -2.34102337015562       -2.49972009009142
C           52.91799891205556       -1.59413304994201       -1.88956516750524
N           50.90113054154943       -1.01962211227377       -0.93989130498382
C           52.25043475180152       -0.79828925060504       -0.91100856367807
C           52.91788223653938        0.01137608192426        0.01386527158924
C           52.23715039198550        0.83253971628363        0.91852747544401
C           52.88951524326130        1.63217549244283        1.90428860926057
C           51.93089990489879        2.40161570819020        2.47735798201903
C           50.69736410327091        2.07686681385988        1.82976360074787
N           50.89054555319622        1.07175755568432        0.90930774594924
C           49.50050644208922        2.75113365386264        2.04490471103365
C           49.49702678040060        3.92874445608926        2.93991388873190
C           48.66600512699449        3.97213220323341        4.06124305174698
C           48.66261608507624        5.06679917081727        4.90854632427780
C           49.49729305549946        6.15787171734035        4.64923871291042
N           49.49423769104227        7.30289615307706        5.43153750274848
C           49.06032099067632        7.22742581277629        6.82000210540250
C           50.32247094596108        6.12524771433583        3.51816641454615
C           50.32585356126185        5.02475951521898        2.68258258978630
C           48.30697392517921        2.35457708325816        1.45228940772465
C           47.06695689066236        3.05344643112275        1.59582163690993
C           46.11294540357081        2.28275287014804        1.01696659896714
C           46.77484375072542        1.12520513769287        0.50835215926701
N           48.12208280023051        1.19529369395887        0.73297576317506
H           45.06404464041467       -2.40087529998868       -1.05489317884537
H           46.96847504071847       -3.92415650709466       -2.20635176615262
H           50.96829617702533       -4.94813280998168       -1.90059649738289
H           50.97858293359550       -6.88256583142982       -3.42299367841628
H           50.37738266344908       -7.73011145298227       -5.46718020112971
H           48.03779745752049       -6.89089511380979       -7.01624160837482
H           49.64407853098444       -6.28821693052733       -7.50085244707614
H           49.31578956585476       -8.03983012754027       -7.44606596343959
H           48.06579236866429       -4.92573220724602       -5.90532200811289
H           48.07690819650814       -3.00440642172294       -4.39328712779349
H           52.08580649039624       -3.05078641581946       -3.30172366418636
H           53.97995301995496       -1.57453855510140       -2.07490505887839
H           53.94576079966181        1.60053068335658        2.11830323076152
H           52.04081168974027        3.12237632347065        3.27122449061538
H           48.02804632898900        3.12389213957647        4.28469599594892
H           48.00775720925004        5.06545113130994        5.77123638361675
H           50.33565681767610        7.85559229591309        5.31949655098836
H           49.59290267571073        6.44085873963922        7.36667140010659
H           49.26111556663754        8.19095264443512        7.28842233383040
H           47.98796782280039        7.03382424641912        6.86653630956924
H           50.96206563371172        6.97405064763207        3.30009407205844
H           50.96300188296689        5.01861321029573        1.80495109807779
H           46.94995032534519        4.01199182644560        2.07452090234962
H           45.05420280331636        2.46906889551395        0.93467652746900

          :  Hamiltonian                  GFN1-xTB          :
         :: total energy            -342.193953495208 Eh    ::
         :: gradient norm              0.000588396600 Eh/a0 ::
         :: HOMO-LUMO gap              0.963799478747 eV    ::
         :: SCC energy              -347.556831465792 Eh    ::
         :: repulsion energy           5.541009942523 Eh    ::

    * Orbital Energies and Occupations

         #    Occupation            Energy/Eh            Energy/eV
      -------------------------------------------------------------
         1        2.0000           -0.7787951             -21.1921
       ...           ...                  ...                  ...
       305        2.0000           -0.3884975             -10.5716
       306        2.0000           -0.3882652             -10.5652
       307        2.0000           -0.3878013             -10.5526
       308        2.0000           -0.3874790             -10.5438
       309        2.0000           -0.3870746             -10.5328
       310        2.0000           -0.3869464             -10.5293
       311        2.0000           -0.3867040             -10.5228
       312        2.0000           -0.3866545             -10.5214
       313        2.0000           -0.3863894             -10.5142
       314        2.0000           -0.3863391             -10.5128
       315        2.0000           -0.3826783             -10.4132
       316        2.0000           -0.3774868             -10.2719
       317        2.0000           -0.3699922             -10.0680 (HOMO)
       318                         -0.3345732              -9.1042 (LUMO)
       319                         -0.3246316              -8.8337
       320                         -0.3196998              -8.6995
       321                         -0.3194530              -8.6928
       322                         -0.3190927              -8.6830
       323                         -0.3180319              -8.6541
       324                         -0.3178732              -8.6498
       325                         -0.3178045              -8.6479
       326                         -0.3158072              -8.5936
       327                         -0.2937964              -7.9946
       328                         -0.2853202              -7.7640
       ...                                ...                  ...
       687                          1.5267659              41.5454
      -------------------------------------------------------------
                  HL-Gap            0.0354190 Eh            0.9638 eV

Wiberg/Mayer (AO) data.
largest (>0.10) Wiberg bond orders for each atom

     #   Z sym  total        # sym  WBO       # sym  WBO       # sym  WBO
 ---------------------------------------------------------------------------
     1  28 Ni   3.020 --    41 N    0.665     7 N    0.664    20 N    0.662
                            27 N    0.662
     2   6 C    3.932 --    40 C    1.364     3 C    1.362    42 H    0.970
     3   6 C    3.925 --     2 C    1.362     7 N    1.213     4 C    1.178
     4   6 C    3.959 --     5 C    1.645     3 C    1.178    43 H    0.975
     5   6 C    3.963 --     4 C    1.645     6 C    1.180    44 H    0.973
     6   6 C    3.918 --     8 C    1.319     7 N    1.221     5 C    1.180
     7   7 N    3.400 --     6 C    1.221     3 C    1.213     1 Ni   0.664
     8   6 C    3.939 --    17 C    1.324     6 C    1.319     9 C    1.034
     9   6 C    3.988 --    16 C    1.383    10 C    1.374     8 C    1.034
    10   6 C    3.988 --    11 C    1.476     9 C    1.374    45 H    0.972
    11   6 C    3.989 --    10 C    1.476    12 C    1.345    46 H    0.971
    12   6 C    3.952 --    15 C    1.353    11 C    1.345    13 N    1.110
    13   7 N    3.180 --    12 C    1.110    14 C    0.971    47 H    0.931
    14   6 C    3.968 --    50 H    0.990    49 H    0.986    48 H    0.984
                            13 N    0.971
    15   6 C    3.990 --    16 C    1.465    12 C    1.353    51 H    0.970
    16   6 C    3.988 --    15 C    1.465     9 C    1.383    52 H    0.973
    17   6 C    3.914 --     8 C    1.324    20 N    1.207    18 C    1.187
    18   6 C    3.959 --    19 C    1.632    17 C    1.187    53 H    0.973
    19   6 C    3.961 --    18 C    1.632    21 C    1.194    54 H    0.974
    20   7 N    3.404 --    21 C    1.237    17 C    1.207     1 Ni   0.662
    21   6 C    3.905 --    22 C    1.263    20 N    1.237    19 C    1.194
    22   6 C    3.941 --    21 C    1.263    23 C    1.261   134 C    1.184
    23   6 C    3.905 --    22 C    1.261    27 N    1.239    24 C    1.195
    24   6 C    3.961 --    25 C    1.631    23 C    1.195    55 H    0.974
    25   6 C    3.959 --    24 C    1.631    26 C    1.187    56 H    0.973
    26   6 C    3.914 --    28 C    1.326    27 N    1.205    25 C    1.187
    27   7 N    3.404 --    23 C    1.239    26 C    1.205     1 Ni   0.662
    28   6 C    3.939 --    26 C    1.326    37 C    1.318    29 C    1.034
    29   6 C    3.988 --    30 C    1.384    36 C    1.374    28 C    1.034
    30   6 C    3.988 --    31 C    1.464    29 C    1.384    57 H    0.972
    31   6 C    3.990 --    30 C    1.464    32 C    1.353    58 H    0.970
    32   6 C    3.952 --    31 C    1.353    35 C    1.345    33 N    1.110
    33   7 N    3.180 --    32 C    1.110    34 C    0.971    59 H    0.931
    34   6 C    3.968 --    61 H    0.990    60 H    0.986    62 H    0.984
                            33 N    0.971
    35   6 C    3.989 --    36 C    1.477    32 C    1.345    63 H    0.971
    36   6 C    3.988 --    35 C    1.477    29 C    1.374    64 H    0.973
    37   6 C    3.918 --    28 C    1.318    41 N    1.222    38 C    1.180
    38   6 C    3.963 --    39 C    1.645    37 C    1.180    65 H    0.973
    39   6 C    3.959 --    38 C    1.645    40 C    1.178    66 H    0.975
    40   6 C    3.925 --     2 C    1.364    41 N    1.211    39 C    1.178
    41   7 N    3.400 --    37 C    1.222    40 C    1.211     1 Ni   0.665
    42   1 H    1.001 --     2 C    0.970
    43   1 H    0.998 --     4 C    0.975
    44   1 H    1.005 --     5 C    0.973
    45   1 H    1.005 --    10 C    0.972
    46   1 H    0.999 --    11 C    0.971
    47   1 H    0.966 --    13 N    0.931
    48   1 H    1.003 --    14 C    0.984
    49   1 H    1.012 --    14 C    0.986
    50   1 H    1.007 --    14 C    0.990
    51   1 H    1.001 --    15 C    0.970
    52   1 H    1.005 --    16 C    0.973
    53   1 H    1.005 --    18 C    0.973
    54   1 H    1.002 --    19 C    0.974
    55   1 H    1.002 --    24 C    0.974
    56   1 H    1.005 --    25 C    0.973
    57   1 H    1.005 --    30 C    0.972
    58   1 H    1.001 --    31 C    0.970
    59   1 H    0.966 --    33 N    0.931
    60   1 H    1.012 --    34 C    0.986
    61   1 H    1.007 --    34 C    0.990
    62   1 H    1.003 --    34 C    0.984
    63   1 H    0.999 --    35 C    0.971
    64   1 H    1.005 --    36 C    0.973
    65   1 H    1.005 --    38 C    0.973
    66   1 H    0.998 --    39 C    0.975
    67  28 Ni   3.021 --   107 N    0.665    73 N    0.665    86 N    0.662
                            93 N    0.662
    68   6 C    3.932 --   106 C    1.363    69 C    1.362   108 H    0.970
    69   6 C    3.925 --    68 C    1.362    73 N    1.212    70 C    1.178
    70   6 C    3.959 --    71 C    1.644    69 C    1.178   109 H    0.975
    71   6 C    3.963 --    70 C    1.644    72 C    1.180   110 H    0.973
    72   6 C    3.918 --    74 C    1.319    73 N    1.221    71 C    1.180
    73   7 N    3.400 --    72 C    1.221    69 C    1.212    67 Ni   0.665
    74   6 C    3.939 --    83 C    1.324    72 C    1.319    75 C    1.035
    75   6 C    3.988 --    82 C    1.383    76 C    1.373    74 C    1.035
    76   6 C    3.988 --    77 C    1.477    75 C    1.373   111 H    0.972
    77   6 C    3.989 --    76 C    1.477    78 C    1.345   112 H    0.971
    78   6 C    3.952 --    81 C    1.353    77 C    1.345    79 N    1.110
    79   7 N    3.180 --    78 C    1.110    80 C    0.971   113 H    0.931
    80   6 C    3.968 --   116 H    0.990   115 H    0.986   114 H    0.984
                            79 N    0.971
    81   6 C    3.990 --    82 C    1.465    78 C    1.353   117 H    0.970
    82   6 C    3.988 --    81 C    1.465    75 C    1.383   118 H    0.972
    83   6 C    3.914 --    74 C    1.324    86 N    1.206    84 C    1.187
    84   6 C    3.959 --    85 C    1.631    83 C    1.187   119 H    0.973
    85   6 C    3.961 --    84 C    1.631    87 C    1.195   120 H    0.974
    86   7 N    3.404 --    87 C    1.237    83 C    1.206    67 Ni   0.662
    87   6 C    3.905 --    88 C    1.262    86 N    1.237    85 C    1.195
    88   6 C    3.941 --    87 C    1.262    89 C    1.261   140 C    1.184
    89   6 C    3.905 --    88 C    1.261    93 N    1.238    90 C    1.195
    90   6 C    3.961 --    91 C    1.631    89 C    1.195   121 H    0.974
    91   6 C    3.959 --    90 C    1.631    92 C    1.187   122 H    0.973
    92   6 C    3.914 --    94 C    1.325    93 N    1.205    91 C    1.187
    93   7 N    3.404 --    89 C    1.238    92 C    1.205    67 Ni   0.662
    94   6 C    3.939 --    92 C    1.325   103 C    1.318    95 C    1.034
    95   6 C    3.988 --    96 C    1.384   102 C    1.374    94 C    1.034
    96   6 C    3.988 --    97 C    1.464    95 C    1.384   123 H    0.972
    97   6 C    3.990 --    96 C    1.464    98 C    1.353   124 H    0.970
    98   6 C    3.952 --    97 C    1.353   101 C    1.345    99 N    1.110
    99   7 N    3.180 --    98 C    1.110   100 C    0.971   125 H    0.931
   100   6 C    3.968 --   127 H    0.990   126 H    0.986   128 H    0.984
                            99 N    0.971
   101   6 C    3.989 --   102 C    1.477    98 C    1.345   129 H    0.971
   102   6 C    3.988 --   101 C    1.477    95 C    1.374   130 H    0.973
   103   6 C    3.918 --    94 C    1.318   107 N    1.222   104 C    1.180
   104   6 C    3.963 --   105 C    1.645   103 C    1.180   131 H    0.973
   105   6 C    3.959 --   104 C    1.645   106 C    1.178   132 H    0.975
   106   6 C    3.925 --    68 C    1.363   107 N    1.211   105 C    1.178
   107   7 N    3.400 --   103 C    1.222   106 C    1.211    67 Ni   0.665
   108   1 H    1.001 --    68 C    0.970
   109   1 H    0.998 --    70 C    0.975
   110   1 H    1.005 --    71 C    0.973
   111   1 H    1.005 --    76 C    0.972
   112   1 H    0.999 --    77 C    0.971
   113   1 H    0.966 --    79 N    0.931
   114   1 H    1.003 --    80 C    0.984
   115   1 H    1.012 --    80 C    0.986
   116   1 H    1.007 --    80 C    0.990
   117   1 H    1.001 --    81 C    0.970
   118   1 H    1.005 --    82 C    0.972
   119   1 H    1.005 --    84 C    0.973
   120   1 H    1.002 --    85 C    0.974
   121   1 H    1.002 --    90 C    0.974
   122   1 H    1.005 --    91 C    0.973
   123   1 H    1.005 --    96 C    0.972
   124   1 H    1.001 --    97 C    0.970
   125   1 H    0.966 --    99 N    0.931
   126   1 H    1.012 --   100 C    0.986
   127   1 H    1.007 --   100 C    0.990
   128   1 H    1.004 --   100 C    0.984
   129   1 H    0.999 --   101 C    0.971
   130   1 H    1.005 --   102 C    0.973
   131   1 H    1.005 --   104 C    0.973
   132   1 H    0.998 --   105 C    0.975
   133   6 C    3.937 --   134 C    2.480   135 C    1.306
   134   6 C    3.925 --   133 C    2.480    22 C    1.184   136 C    0.200
   135   6 C    3.934 --   136 C    2.479   133 C    1.306
   136   6 C    3.927 --   135 C    2.479   142 C    1.187   134 C    0.200
   137   6 C    3.934 --   138 C    2.478   139 C    1.306
   138   6 C    3.927 --   137 C    2.478   162 C    1.187   140 C    0.200
   139   6 C    3.937 --   140 C    2.480   137 C    1.306
   140   6 C    3.925 --   139 C    2.480    88 C    1.184   138 C    0.200
   141  28 Ni   3.013 --   147 N    0.662   181 N    0.661   160 N    0.661
                           167 N    0.661
   142   6 C    3.931 --   143 C    1.260   180 C    1.259   136 C    1.187
   143   6 C    3.906 --   142 C    1.260   147 N    1.237   144 C    1.196
   144   6 C    3.959 --   145 C    1.628   143 C    1.196   182 H    0.974
   145   6 C    3.960 --   144 C    1.628   146 C    1.190   183 H    0.973
   146   6 C    3.911 --   148 C    1.320   147 N    1.205   145 C    1.190
   147   7 N    3.397 --   143 C    1.237   146 C    1.205   141 Ni   0.662
   148   6 C    3.934 --   157 C    1.320   146 C    1.320   149 C    1.038
   149   6 C    3.987 --   156 C    1.382   150 C    1.372   148 C    1.038
   150   6 C    3.987 --   151 C    1.478   149 C    1.372   184 H    0.972
   151   6 C    3.989 --   150 C    1.478   152 C    1.344   185 H    0.971
   152   6 C    3.952 --   155 C    1.353   151 C    1.344   153 N    1.110
   153   7 N    3.181 --   152 C    1.110   154 C    0.971   186 H    0.931
   154   6 C    3.968 --   189 H    0.990   187 H    0.986   188 H    0.984
                           153 N    0.971
   155   6 C    3.989 --   156 C    1.465   152 C    1.353   190 H    0.970
   156   6 C    3.986 --   155 C    1.465   149 C    1.382   191 H    0.972
   157   6 C    3.911 --   148 C    1.320   160 N    1.205   158 C    1.190
   158   6 C    3.960 --   159 C    1.628   157 C    1.190   192 H    0.973
   159   6 C    3.957 --   158 C    1.628   161 C    1.197   193 H    0.974
   160   7 N    3.397 --   161 C    1.238   157 C    1.205   141 Ni   0.661
   161   6 C    3.906 --   162 C    1.259   160 N    1.238   159 C    1.197
   162   6 C    3.931 --   163 C    1.259   161 C    1.259   138 C    1.187
   163   6 C    3.906 --   162 C    1.259   167 N    1.238   164 C    1.197
   164   6 C    3.959 --   165 C    1.628   163 C    1.197   194 H    0.974
   165   6 C    3.960 --   164 C    1.628   166 C    1.190   195 H    0.973
   166   6 C    3.911 --   168 C    1.320   167 N    1.205   165 C    1.190
   167   7 N    3.397 --   163 C    1.238   166 C    1.205   141 Ni   0.661
   168   6 C    3.934 --   177 C    1.321   166 C    1.320   169 C    1.037
   169   6 C    3.987 --   170 C    1.382   176 C    1.372   168 C    1.037
   170   6 C    3.987 --   171 C    1.465   169 C    1.382   196 H    0.972
   171   6 C    3.989 --   170 C    1.465   172 C    1.353   197 H    0.970
   172   6 C    3.952 --   171 C    1.353   175 C    1.344   173 N    1.110
   173   7 N    3.180 --   172 C    1.110   174 C    0.971   198 H    0.931
   174   6 C    3.968 --   200 H    0.990   201 H    0.986   199 H    0.984
                           173 N    0.971
   175   6 C    3.989 --   176 C    1.477   172 C    1.344   202 H    0.971
   176   6 C    3.986 --   175 C    1.477   169 C    1.372   203 H    0.972
   177   6 C    3.911 --   168 C    1.321   181 N    1.204   178 C    1.189
   178   6 C    3.960 --   179 C    1.628   177 C    1.189   204 H    0.973
   179   6 C    3.957 --   178 C    1.628   180 C    1.196   205 H    0.974
   180   6 C    3.906 --   142 C    1.259   181 N    1.238   179 C    1.196
   181   7 N    3.397 --   180 C    1.238   177 C    1.204   141 Ni   0.661
   182   1 H    1.002 --   144 C    0.974
   183   1 H    1.005 --   145 C    0.973
   184   1 H    1.005 --   150 C    0.972
   185   1 H    0.999 --   151 C    0.971
   186   1 H    0.966 --   153 N    0.931
   187   1 H    1.012 --   154 C    0.986
   188   1 H    1.003 --   154 C    0.984
   189   1 H    1.007 --   154 C    0.990
   190   1 H    1.001 --   155 C    0.970
   191   1 H    1.006 --   156 C    0.972
   192   1 H    1.005 --   158 C    0.973
   193   1 H    1.002 --   159 C    0.974
   194   1 H    1.002 --   164 C    0.974
   195   1 H    1.005 --   165 C    0.973
   196   1 H    1.006 --   170 C    0.972
   197   1 H    1.001 --   171 C    0.970
   198   1 H    0.966 --   173 N    0.931
   199   1 H    1.003 --   174 C    0.984
   200   1 H    1.007 --   174 C    0.990
   201   1 H    1.012 --   174 C    0.986
   202   1 H    0.999 --   175 C    0.971
   203   1 H    1.005 --   176 C    0.972
   204   1 H    1.005 --   178 C    0.973
   205   1 H    1.002 --   179 C    0.974
 ---------------------------------------------------------------------------

           -------------------------------------------------
          | TOTAL ENERGY             -342.193953495208 Eh   |
          | GRADIENT NORM               0.000588396600 Eh/α |
          | HOMO-LUMO GAP               0.963799478747 eV   |
           -------------------------------------------------

 * finished run on 2022/07/30 at 02:52:48.199
