   * xtb version 6.5.1 (b24c23e) compiled by 'conda@728c89f4b128' on 2022-07-12
          program call               : xtb NMA_C4_2.xyz --gfn 1 --opt -T 48

   ID    Z sym.   atoms
    1    6 C      1-5, 7-11, 13-18, 20-25, 27-31, 33-39, 68-72, 74-78, 80-85,
                  87-92, 94-98, 100-106, 135-138
    2    7 N      6, 12, 19, 26, 32, 40, 73, 79, 86, 93, 99, 107
    3    1 H      41-67, 108-134
########################################################################
[WARNING] Please study the warnings concerning your input carefully
-1- prog_main_parseArguments: Unknown option '-T' provided
########################################################################

          :  Hamiltonian                  GFN1-xTB          :
 * total energy  :  -219.1441920 Eh     change        0.2634692E-10 Eh
 * total energy  :  -219.2973430 Eh     change       -0.1531510E+00 Eh
 * total energy  :  -219.3611846 Eh     change       -0.6384162E-01 Eh
 * total energy  :  -219.3882776 Eh     change       -0.2709299E-01 Eh
 * total energy  :  -219.4040342 Eh     change       -0.1575655E-01 Eh
 * total energy  :  -219.4159757 Eh     change       -0.1194155E-01 Eh
 * total energy  :  -219.4259132 Eh     change       -0.9937469E-02 Eh
 * total energy  :  -219.4332760 Eh     change       -0.7362854E-02 Eh
 * total energy  :  -219.4397331 Eh     change       -0.6457099E-02 Eh
 * total energy  :  -219.4449997 Eh     change       -0.5266526E-02 Eh
 * total energy  :  -219.4872745 Eh     change       -0.3366587E-04 Eh
 * total energy  :  -219.4873015 Eh     change       -0.2690779E-04 Eh
 * total energy  :  -219.4873215 Eh     change       -0.2006624E-04 Eh
 * total energy  :  -219.4873387 Eh     change       -0.1716515E-04 Eh
 * total energy  :  -219.4873574 Eh     change       -0.1876617E-04 Eh
 * total energy  :  -219.4873807 Eh     change       -0.2322601E-04 Eh
 * total energy  :  -219.4874075 Eh     change       -0.2686208E-04 Eh
 * total energy  :  -219.4874338 Eh     change       -0.2625051E-04 Eh
 * total energy  :  -219.4874381 Eh     change       -0.4272839E-05 Eh
   *** GEOMETRY OPTIMIZATION CONVERGED AFTER 94 ITERATIONS ***

 final structure:
================
138
 xtb: 6.5.1 (b24c23e)
C           14.24221186818551        0.67156398982849       -0.00429627033327
C           14.84307337822652        0.69713209563802       -1.25635113678210
C           14.18681523284393        0.85317242397668       -2.50908383868405
C           15.12920819908286        0.75142861729752       -3.49393708862682
C           16.39445818584611        0.54703588815477       -2.87394808588294
N           16.17117270026596        0.52260104680529       -1.52594260309661
C           17.63591781899591        0.36871643619711       -3.49633235425610
C           17.65234500555370        0.41661825000789       -4.97739400286487
C           18.08202735226581       -0.68598292381079       -5.71795018468335
C           18.07713986300699       -0.66486839460734       -7.10226342546495
C           17.64111875575238        0.47411901735497       -7.78516173177084
N           17.66039732863470        0.56772090239112       -9.16957282340040
C           17.58544751965467       -0.64583524969372       -9.97236702637786
C           17.22980192102767        1.59042712216896       -7.04684842161545
C           17.22930795508290        1.55730766128899       -5.66499960534471
C           18.84173985940158        0.15626044400247       -2.82261910446688
C           20.13304702488703        0.08689930039058       -3.48157517229861
C           21.05366139107262       -0.05805284334021       -2.50549674527271
N           18.99951911408455        0.04878693647575       -1.47435907232812
C           20.32325226667265       -0.08327422812473       -1.25344747639341
C           20.96222863292517       -0.21296104227789       -0.00329059084906
C           20.33044478177635       -0.27208429222330        1.25413711692765
C           20.97655035375994       -0.42088761420281        2.50919207742607
C           20.01303586657234       -0.43980200548203        3.48030409700635
C           18.74771183436694       -0.30270713156714        2.84648947679036
N           18.99193998788238       -0.20239703805313        1.50190559184520
C           17.49275996235251       -0.23005159369895        3.46385560526664
C           17.45519273769423       -0.42949038765376        4.93010072989461
C           16.92834425927715        0.54759940217976        5.77721841065886
C           16.88063811476309        0.35820634754651        7.14780956024608
C           17.36321665954248       -0.82708577836011        7.71039013755152
N           17.28193427213441       -1.09783072900466        9.06782479578423
C           17.19287164945943       -0.00062337022911       10.02144750855983
C           17.88904584795907       -1.81217211684461        6.86512078113632
C           17.93899191816061       -1.61168754889438        5.49892671543081
C           16.29028117520378        0.01887877976154        2.79169554407133
C           14.98507977238912        0.05771052404961        3.43236527825586
C           14.08992366704776        0.33254153042032        2.46188860182310
C           14.84366173772269        0.43818356029473        1.22567853997655
N           16.16392146915574        0.24092956656009        1.46150677030736
H           13.16682407270065        0.81944435749391        0.00053303527362
H           13.12635882694853        1.00880056997013       -2.62864223359175
H           14.96475360008729        0.80160417841782       -4.55811795251336
H           16.89416687568022        0.37145843507495       -0.83038376525189
H           18.40493660808280       -1.58223640982603       -5.19939774979762
H           18.41286216694712       -1.53951421160715       -7.64579660300111
H           17.04992414268544        1.29689370170447       -9.51875510781150
H           16.73841949956105       -1.27448381246666       -9.67442970873723
H           17.46713518605644       -0.35275056170725      -11.01553862832653
H           18.50892644047651       -1.21764990194144       -9.87327831913848
H           16.90873662971111        2.48612334512323       -7.56823765437052
H           16.91650091866520        2.43321757698398       -5.10703249280377
H           20.29420135176570        0.16611041310828       -4.54456002776351
H           22.12495605725444       -0.13968166373572       -2.59801086709318
H           22.04343902856126       -0.49962792984402        2.64319076610079
H           20.16485368868155       -0.52221275751287        4.54422667007230
H           18.27100614137491       -0.07583980583232        0.79911447390052
H           16.56917648717293        1.48046522291754        5.35637227915822
H           16.46522992360357        1.13757859161235        7.77480916716098
H           17.93039144449360       -1.81697979677032        9.36456750869395
H           16.22895251800079        0.50075925742097        9.92515106445919
H           17.99610707432792        0.73006590428000        9.87233258059850
H           17.26887617377914       -0.41982502846091       11.02477622631758
H           18.25486766499000       -2.74054480417952        7.29110266414945
H           18.33545563047103       -2.39046813666371        4.85646066344445
H           14.79859549292030       -0.12043142458450        4.47917186703523
H           13.01937968010009        0.44077327520833        2.54139675756455
C           34.29781181017324        0.58691097507678       -0.02359665404520
C           33.69640717221591        0.68796417483439        1.22440403735471
C           34.35295763688266        0.90559826856870        2.46769467674952
C           33.40718662983149        0.87694541963480        3.45418870801616
C           32.14014966633751        0.65551897476636        2.84383326796602
N           32.36536328397894        0.54888571621693        1.50022170452392
C           30.89577340996563        0.53071235440905        3.47346469054277
C           30.87809235061559        0.67645962582769        4.94813932385849
C           30.43607346376096       -0.36862813095423        5.76112219651398
C           30.43624250742154       -0.25190414321125        7.14073077759482
C           30.87992924868714        0.92771629096995        7.74520586836407
N           30.85458930458215        1.11805529630732        9.11951130936419
C           30.91139787973301       -0.03669327583883       10.00604298773028
C           31.30569954749145        1.98608324396558        6.93338989681102
C           31.31073271458991        1.85752665164891        5.55721273860532
C           29.68859759986027        0.28806168488568        2.81271432882056
C           28.39666340756475        0.26503327110486        3.47377051895153
C           27.47567464021146        0.06635282369619        2.50761426412188
N           29.53048886402053        0.10268742329612        1.47287253734871
C           28.20611363773297       -0.03435899435018        1.25936518947763
C           27.56587865814599       -0.22707770283872        0.01797753980322
C           28.19631032780030       -0.35020170727075       -1.23540263357443
C           27.54787174883071       -0.55087208669660       -2.48203410842797
C           28.50992395741510       -0.61616319449797       -3.45248301070595
C           29.77688873304515       -0.45902622597611       -2.82650743132657
N           29.53491791981329       -0.29935675406823       -1.48720398356597
C           31.03154622784379       -0.42182327935753       -3.44731906168406
C           31.06514911720713       -0.67418835399158       -4.90552079541790
C           31.59809339285330        0.26956906147552       -5.78598591800314
C           31.63864793900901        0.03510997554227       -7.14975561826963
C           31.14257185890236       -1.16321495520105       -7.67143378058593
N           31.21383359334877       -1.47743068475668       -9.02018603407325
C           31.30139592386672       -0.41045042772568      -10.00781091884406
C           30.61280992272235       -2.11601598222521       -6.79235960285340
C           30.56999717369349       -1.87056941957820       -5.43321362262845
C           32.23774914503772       -0.15988347004249       -2.78678017126101
C           33.54246262693212       -0.16726619276719       -3.42960615203286
C           34.44305638046838        0.13361175964771       -2.47197785651796
C           33.69247877040277        0.30410755715862       -1.24113176400100
N           32.36906683430357        0.11595852691642       -1.46733532578166
H           35.37538667212751        0.71747449317167       -0.03471025824559
H           35.41549716753506        1.05150821271617        2.58085096562371
H           33.57026871834907        0.98698362472637        4.51407552758522
H           31.64157356503149        0.36902242578596        0.81238245322079
H           30.10678615400158       -1.29567171415885        5.30441119002424
H           30.09044748549585       -1.08385886623097        7.74190426384565
H           31.47077284894458        1.86366958272189        9.42059056723314
H           31.75439778996695       -0.69263972645837        9.76006700564539
H           31.02459251734657        0.32789638212666       11.02700802291360
H           29.98305687078291       -0.60533645456266        9.93963676577826
H           31.63383517520666        2.91249379022236        7.39304840528314
H           31.63451554449430        2.68952563722490        4.94130221113447
H           28.23541945442486        0.40748359034267        4.53010802334466
H           26.40399760242194       -0.00475194636363        2.60424264046730
H           26.48041761855249       -0.62973946421395       -2.61134124881180
H           28.35610460481483       -0.74351420300701       -4.51167179439989
H           30.25724428915720       -0.14576008853988       -0.79127667348308
H           31.96770857426589        1.21212226257627       -5.39696263547314
H           32.05871139055951        0.78965698373426       -7.80344153629142
H           30.55811005106458       -2.20078065051254       -9.28965877698926
H           32.26919227476961        0.08741725451369       -9.93522861070671
H           30.50405649980126        0.32961248619936       -9.87408833174030
H           31.21389974334499       -0.85957860541455      -10.99714184630835
H           30.23751822614120       -3.05467901414297       -7.18634687195279
H           30.16973612823323       -2.62456290993370       -4.76409964913934
H           33.72451614837337       -0.39160978240831       -4.46828872321077
H           35.51499825218663        0.22221550719465       -2.55667490494898
C           23.58912662308024       -0.30052133619601        0.00845483715999
C           22.36682144685448       -0.27771614023671        0.00350031406565
C           24.93862075844129       -0.30398225896122        0.01156640800881
C           26.16099001345322       -0.28562030646632        0.01493294987233

          :  Hamiltonian                  GFN1-xTB          :
         :: total energy            -219.487438059928 Eh    ::
         :: gradient norm              0.000319269866 Eh/a0 ::
         :: HOMO-LUMO gap              0.956455184803 eV    ::
         :: SCC energy              -223.030120096582 Eh    ::
         :: repulsion energy           3.653564811875 Eh    ::

    * Orbital Energies and Occupations

         #    Occupation            Energy/Eh            Energy/eV
      -------------------------------------------------------------
         1        2.0000           -0.7935291             -21.5930
       ...           ...                  ...                  ...
       189        2.0000           -0.4078662             -11.0986
       190        2.0000           -0.4059684             -11.0470
       191        2.0000           -0.4058233             -11.0430
       192        2.0000           -0.4051454             -11.0246
       193        2.0000           -0.4050821             -11.0228
       194        2.0000           -0.3931465             -10.6981
       195        2.0000           -0.3922538             -10.6738
       196        2.0000           -0.3898867             -10.6094
       197        2.0000           -0.3898552             -10.6085
       198        2.0000           -0.3886169             -10.5748
       199        2.0000           -0.3876444             -10.5483
       200        2.0000           -0.3755020             -10.2179
       201        2.0000           -0.3659303              -9.9575 (HOMO)
       202                         -0.3307812              -9.0010 (LUMO)
       203                         -0.3200282              -8.7084
       204                         -0.3198360              -8.7032
       205                         -0.3174772              -8.6390
       206                         -0.2890075              -7.8643
       207                         -0.2815805              -7.6622
       208                         -0.2547729              -6.9327
       209                         -0.2547569              -6.9323
       210                         -0.2545602              -6.9269
       211                         -0.2545515              -6.9267
       212                         -0.2491060              -6.7785
       ...                                ...                  ...
       444                          1.5247235              41.4898
      -------------------------------------------------------------
                  HL-Gap            0.0351491 Eh            0.9565 eV

Wiberg/Mayer (AO) data.
largest (>0.10) Wiberg bond orders for each atom

     #   Z sym  total        # sym  WBO       # sym  WBO       # sym  WBO
 ---------------------------------------------------------------------------
     1   6 C    3.922 --    39 C    1.365     2 C    1.345    41 H    0.971
     2   6 C    3.903 --     1 C    1.345     3 C    1.231     6 N    1.169
     3   6 C    3.952 --     4 C    1.592     2 C    1.231    42 H    0.977
     4   6 C    3.959 --     3 C    1.592     5 C    1.238    43 H    0.974
     5   6 C    3.894 --     7 C    1.300     4 C    1.238     6 N    1.176
     6   7 N    3.468 --     5 C    1.176     2 C    1.169    44 H    0.873
     7   6 C    3.939 --    16 C    1.333     5 C    1.300     8 C    1.034
     8   6 C    3.988 --     9 C    1.384    15 C    1.375     7 C    1.034
     9   6 C    3.988 --    10 C    1.464     8 C    1.384    45 H    0.973
                            14 C    0.100
    10   6 C    3.990 --     9 C    1.464    11 C    1.354    46 H    0.970
    11   6 C    3.952 --    10 C    1.354    14 C    1.346    12 N    1.108
    12   7 N    3.178 --    11 C    1.108    13 C    0.971    47 H    0.932
    13   6 C    3.968 --    49 H    0.990    50 H    0.986    48 H    0.984
                            12 N    0.971
    14   6 C    3.989 --    15 C    1.475    11 C    1.346    51 H    0.971
                             9 C    0.100
    15   6 C    3.987 --    14 C    1.475     8 C    1.375    52 H    0.973
    16   6 C    3.914 --     7 C    1.333    19 N    1.286    17 C    1.127
    17   6 C    3.965 --    18 C    1.707    16 C    1.127    53 H    0.974
    18   6 C    3.964 --    17 C    1.707    20 C    1.130    54 H    0.974
    19   7 N    3.021 --    20 C    1.343    16 C    1.286
    20   6 C    3.910 --    19 N    1.343    21 C    1.254    18 C    1.130
    21   6 C    3.934 --    20 C    1.254    22 C    1.250   136 C    1.191
    22   6 C    3.887 --    23 C    1.252    21 C    1.250    26 N    1.189
    23   6 C    3.957 --    24 C    1.578    22 C    1.252    55 H    0.975
    24   6 C    3.955 --    23 C    1.578    25 C    1.245    56 H    0.974
    25   6 C    3.897 --    27 C    1.304    24 C    1.245    26 N    1.165
    26   7 N    3.474 --    22 C    1.189    25 C    1.165    57 H    0.873
    27   6 C    3.925 --    36 C    1.318    25 C    1.304    28 C    1.039
    28   6 C    3.987 --    29 C    1.382    35 C    1.372    27 C    1.039
    29   6 C    3.985 --    30 C    1.465    28 C    1.382    58 H    0.972
    30   6 C    3.989 --    29 C    1.465    31 C    1.352    59 H    0.970
    31   6 C    3.951 --    30 C    1.352    34 C    1.344    32 N    1.110
    32   7 N    3.180 --    31 C    1.110    33 C    0.971    60 H    0.931
    33   6 C    3.968 --    63 H    0.990    61 H    0.986    62 H    0.984
                            32 N    0.971
    34   6 C    3.989 --    35 C    1.478    31 C    1.344    64 H    0.971
    35   6 C    3.986 --    34 C    1.478    28 C    1.372    65 H    0.973
    36   6 C    3.927 --    27 C    1.318    40 N    1.317    37 C    1.120
    37   6 C    3.967 --    38 C    1.719    36 C    1.120    66 H    0.973
    38   6 C    3.965 --    37 C    1.719    39 C    1.119    67 H    0.976
    39   6 C    3.930 --     1 C    1.365    40 N    1.300    38 C    1.119
    40   7 N    3.010 --    36 C    1.317    39 C    1.300
    41   1 H    1.002 --     1 C    0.971
    42   1 H    0.998 --     3 C    0.977
    43   1 H    1.006 --     4 C    0.974
    44   1 H    0.986 --     6 N    0.873
    45   1 H    1.005 --     9 C    0.973
    46   1 H    1.001 --    10 C    0.970
    47   1 H    0.966 --    12 N    0.932
    48   1 H    1.004 --    13 C    0.984
    49   1 H    1.007 --    13 C    0.990
    50   1 H    1.012 --    13 C    0.986
    51   1 H    0.999 --    14 C    0.971
    52   1 H    1.005 --    15 C    0.973
    53   1 H    1.005 --    17 C    0.974
    54   1 H    1.003 --    18 C    0.974
    55   1 H    1.003 --    23 C    0.975
    56   1 H    1.005 --    24 C    0.974
    57   1 H    0.988 --    26 N    0.873
    58   1 H    1.006 --    29 C    0.972
    59   1 H    1.001 --    30 C    0.970
    60   1 H    0.965 --    32 N    0.931
    61   1 H    1.012 --    33 C    0.986
    62   1 H    1.003 --    33 C    0.984
    63   1 H    1.007 --    33 C    0.990
    64   1 H    0.999 --    34 C    0.971
    65   1 H    1.005 --    35 C    0.973
    66   1 H    1.006 --    37 C    0.973
    67   1 H    0.999 --    38 C    0.976
    68   6 C    3.922 --   106 C    1.365    69 C    1.345   108 H    0.971
    69   6 C    3.903 --    68 C    1.345    70 C    1.232    73 N    1.169
    70   6 C    3.952 --    71 C    1.591    69 C    1.232   109 H    0.977
    71   6 C    3.959 --    70 C    1.591    72 C    1.238   110 H    0.974
    72   6 C    3.894 --    74 C    1.300    71 C    1.238    73 N    1.176
    73   7 N    3.468 --    72 C    1.176    69 C    1.169   111 H    0.873
    74   6 C    3.939 --    83 C    1.334    72 C    1.300    75 C    1.033
    75   6 C    3.988 --    76 C    1.385    82 C    1.375    74 C    1.033
    76   6 C    3.988 --    77 C    1.464    75 C    1.385   112 H    0.973
                            81 C    0.100
    77   6 C    3.990 --    76 C    1.464    78 C    1.354   113 H    0.970
    78   6 C    3.952 --    77 C    1.354    81 C    1.346    79 N    1.108
    79   7 N    3.178 --    78 C    1.108    80 C    0.971   114 H    0.932
    80   6 C    3.968 --   116 H    0.990   117 H    0.986   115 H    0.984
                            79 N    0.971
    81   6 C    3.989 --    82 C    1.475    78 C    1.346   118 H    0.971
                            76 C    0.100
    82   6 C    3.987 --    81 C    1.475    75 C    1.375   119 H    0.973
    83   6 C    3.914 --    74 C    1.334    86 N    1.286    84 C    1.127
    84   6 C    3.965 --    85 C    1.707    83 C    1.127   120 H    0.974
    85   6 C    3.964 --    84 C    1.707    87 C    1.130   121 H    0.974
    86   7 N    3.021 --    87 C    1.344    83 C    1.286
    87   6 C    3.910 --    86 N    1.344    88 C    1.254    85 C    1.130
    88   6 C    3.934 --    87 C    1.254    89 C    1.250   138 C    1.191
    89   6 C    3.887 --    90 C    1.252    88 C    1.250    93 N    1.189
    90   6 C    3.958 --    91 C    1.579    89 C    1.252   122 H    0.975
    91   6 C    3.955 --    90 C    1.579    92 C    1.245   123 H    0.974
    92   6 C    3.897 --    94 C    1.305    91 C    1.245    93 N    1.165
    93   7 N    3.473 --    89 C    1.189    92 C    1.165   124 H    0.873
    94   6 C    3.925 --   103 C    1.318    92 C    1.305    95 C    1.039
    95   6 C    3.987 --    96 C    1.382   102 C    1.372    94 C    1.039
    96   6 C    3.987 --    97 C    1.465    95 C    1.382   125 H    0.972
    97   6 C    3.989 --    96 C    1.465    98 C    1.353   126 H    0.970
    98   6 C    3.951 --    97 C    1.353   101 C    1.344    99 N    1.110
    99   7 N    3.180 --    98 C    1.110   100 C    0.971   127 H    0.931
   100   6 C    3.968 --   130 H    0.990   128 H    0.986   129 H    0.984
                            99 N    0.971
   101   6 C    3.989 --   102 C    1.477    98 C    1.344   131 H    0.971
   102   6 C    3.986 --   101 C    1.477    95 C    1.372   132 H    0.973
   103   6 C    3.927 --   107 N    1.318    94 C    1.318   104 C    1.120
   104   6 C    3.967 --   105 C    1.719   103 C    1.120   133 H    0.973
   105   6 C    3.965 --   104 C    1.719   106 C    1.119   134 H    0.976
   106   6 C    3.930 --    68 C    1.365   107 N    1.300   105 C    1.119
   107   7 N    3.010 --   103 C    1.318   106 C    1.300
   108   1 H    1.002 --    68 C    0.971
   109   1 H    0.998 --    70 C    0.977
   110   1 H    1.006 --    71 C    0.974
   111   1 H    0.986 --    73 N    0.873
   112   1 H    1.005 --    76 C    0.973
   113   1 H    1.001 --    77 C    0.970
   114   1 H    0.966 --    79 N    0.932
   115   1 H    1.003 --    80 C    0.984
   116   1 H    1.007 --    80 C    0.990
   117   1 H    1.012 --    80 C    0.986
   118   1 H    0.999 --    81 C    0.971
   119   1 H    1.005 --    82 C    0.973
   120   1 H    1.005 --    84 C    0.974
   121   1 H    1.004 --    85 C    0.974
   122   1 H    1.003 --    90 C    0.975
   123   1 H    1.005 --    91 C    0.974
   124   1 H    0.988 --    93 N    0.873
   125   1 H    1.006 --    96 C    0.972
   126   1 H    1.001 --    97 C    0.970
   127   1 H    0.966 --    99 N    0.931
   128   1 H    1.012 --   100 C    0.986
   129   1 H    1.003 --   100 C    0.984
   130   1 H    1.007 --   100 C    0.990
   131   1 H    0.999 --   101 C    0.971
   132   1 H    1.005 --   102 C    0.973
   133   1 H    1.006 --   104 C    0.973
   134   1 H    0.999 --   105 C    0.976
   135   6 C    3.932 --   136 C    2.472   137 C    1.310
   136   6 C    3.925 --   135 C    2.472    21 C    1.191   138 C    0.199
   137   6 C    3.932 --   138 C    2.472   135 C    1.310
   138   6 C    3.925 --   137 C    2.472    88 C    1.191   136 C    0.199
 ---------------------------------------------------------------------------

           -------------------------------------------------
          | TOTAL ENERGY             -219.487438059928 Eh   |
          | GRADIENT NORM               0.000319269866 Eh/α |
          | HOMO-LUMO GAP               0.956455184803 eV   |
           -------------------------------------------------

 * finished run on 2022/07/30 at 22:58:31.331
