   * xtb version 6.5.1 (b24c23e) compiled by 'conda@728c89f4b128' on 2022-07-12
          program call               : xtb Ni_NMA_C6_3.xyz --gfn 1 --opt -T 48

   ID    Z sym.   atoms
    1   28 Ni     1, 67, 145
    2    6 C      2-6, 8-12, 14-19, 21-26, 28-32, 34-40, 68-72, 74-78, 80-85,
                  87-92, 94-98, 100-106, 133-144, 146-150, 152-156, 158-163,
                  165-170, 172-176, 178-184
    3    7 N      7, 13, 20, 27, 33, 41, 73, 79, 86, 93, 99, 107, 151, 157,
                  164, 171, 177, 185
    4    1 H      42-66, 108-132, 186-209

          :  Hamiltonian                  GFN1-xTB          :
 * total energy  :  -334.4382255 Eh     change        0.1111999E-07 Eh
 * total energy  :  -345.8111175 Eh     change       -0.1137289E+02 Eh
 * total energy  :  -347.2825453 Eh     change       -0.1471428E+01 Eh
 * total energy  :  -348.1233412 Eh     change       -0.8407959E+00 Eh
 * total energy  :  -348.6397805 Eh     change       -0.5164394E+00 Eh
 * total energy  :  -348.9444163 Eh     change       -0.3046358E+00 Eh
 * total energy  :  -349.1682807 Eh     change       -0.2238644E+00 Eh
 * total energy  :  -349.3491237 Eh     change       -0.1808429E+00 Eh
 * total energy  :  -349.4867391 Eh     change       -0.1376154E+00 Eh
 * total energy  :  -349.5826127 Eh     change       -0.9587366E-01 Eh
 * total energy  :  -350.5403924 Eh     change       -0.1550748E-04 Eh
 * total energy  :  -350.5404054 Eh     change       -0.1295761E-04 Eh
 * total energy  :  -350.5404152 Eh     change       -0.9813629E-05 Eh
 * total energy  :  -350.5404255 Eh     change       -0.1030980E-04 Eh
 * total energy  :  -350.5404343 Eh     change       -0.8823134E-05 Eh
 * total energy  :  -350.5404442 Eh     change       -0.9827962E-05 Eh
 * total energy  :  -350.5404530 Eh     change       -0.8796630E-05 Eh
 * total energy  :  -350.5404594 Eh     change       -0.6388259E-05 Eh
 * total energy  :  -350.5404620 Eh     change       -0.2653796E-05 Eh
   *** GEOMETRY OPTIMIZATION CONVERGED AFTER 122 ITERATIONS ***

 final structure:
================
209
 xtb: 6.5.1 (b24c23e)
Ni          33.52092997035527        0.05822867240648       -0.06225782651463
C           30.13445000288784        0.13534350481719       -0.12879719455935
C           30.78265587826693        0.89633788847932        0.82257734747474
C           30.10882492479018        1.67406906609192        1.81605709073965
C           31.06491801566669        2.35941697681061        2.48733938908826
C           32.32104985342451        2.01569495899897        1.88866938374498
N           32.14096916758199        1.07891659665230        0.90179025148255
C           33.53105272667614        2.61937017575119        2.21304939714722
C           33.53878359342517        3.71868479342909        3.20351873320688
C           32.77728412629552        4.87282480000167        2.99833884439371
C           32.78867500320490        5.90063349070647        3.92191562537006
C           33.55921320826693        5.80180619689808        5.08708139472170
N           33.49365107952937        6.83237317214606        6.01261941716759
C           34.59165462219245        7.02937860616457        6.94977671785385
C           34.31136022545230        4.64356573829443        5.30410236648762
C           34.30424602189957        3.62436161063036        4.36734923087800
C           34.73304440128510        2.23219798912032        1.63254567244714
C           35.98325747099796        2.88660887118762        1.87076602879219
C           36.93357010317304        2.16334519957514        1.22938070189462
N           34.91168705616739        1.14458252077680        0.80738852197381
C           36.26144210265599        1.07478002321106        0.59594784076840
C           36.92829589996924        0.03019838962263       -0.05186478239196
C           36.24916016118723       -1.01283256560436       -0.68959446187861
C           36.90688385379856       -2.12746961935898       -1.29184552968938
C           35.94626745149579       -2.86006713070806       -1.90672298886783
C           34.70539164219292       -2.18000019717378       -1.69214285540829
N           34.89894878692161       -1.07026964441879       -0.89986070088722
C           33.50177322760365       -2.55623376833844       -2.27597878890584
C           33.49017760595284       -3.69408151284222       -3.22191104095752
C           34.27753388226773       -3.67478139903154       -4.37469884696257
C           34.26879255646736       -4.73451020847972       -5.26536748588397
C           33.47727369834149       -5.85852293673267       -5.01151214799947
N           33.39802792285783       -6.92816215031415       -5.89032377437701
C           34.50544729456239       -7.19810812062428       -6.79771119010736
C           32.68142076354131       -5.88029116699510       -3.85939654801499
C           32.68628024055405       -4.81237051319409       -2.98249122818701
C           32.30700393897239       -1.89752544065990       -2.00590550556361
C           31.06025189273882       -2.20173778293982       -2.64408682290921
C           30.11421936957988       -1.44299128603018       -2.04100131977010
C           30.78461073670289       -0.66896317091938       -1.04216583332861
N           32.13429880614009       -0.92127338093603       -1.05721739797333
H           29.05126154415685        0.16337121418702       -0.15352642989602
H           29.04115089692310        1.67900952860410        1.96846172725494
H           30.94220266940199        3.03700806602258        3.31662454915997
H           32.19039796143802        4.97167717799227        2.09167229708899
H           32.19934155093036        6.79448826114836        3.74632824292904
H           33.17255599829839        7.70296917954387        5.60644169754797
H           35.55755890044014        7.07704687402116        6.43411530301864
H           34.61295664514785        6.21683323925950        7.67721206066429
H           34.41871602473893        7.96652658835350        7.47880693584523
H           34.90151221986364        4.52997283589346        6.20516394908223
H           34.88494027257337        2.72693866617037        4.55150028823887
H           36.10767282939413        3.78775807274342        2.44884336384569
H           37.99655995453014        2.33738043307523        1.18301466575224
H           37.96758766804503       -2.31372958689451       -1.24084171149019
H           36.05878393470066       -3.78145034884888       -2.45449396613731
H           34.88873639743337       -2.80447575209866       -4.58791305795941
H           34.87788856029560       -4.67935329499679       -6.15926254619551
H           33.04472813152693       -7.76995905905462       -5.45157448810837
H           34.56093888936720       -6.42136731493232       -7.56156807975593
H           34.31564485327530       -8.15409201062013       -7.28566323844274
H           35.46113596144286       -7.24722029168343       -6.26347403280678
H           32.05979630089561       -6.74610841022733       -3.65675320509862
H           32.07844047110819       -4.85099129789738       -2.08509206869956
H           30.93770045572010       -2.90298326592967       -3.45352708709985
H           29.05501806381574       -1.39954138258222       -2.23944993022105
Ni          65.50129734198029        0.01274899318839       -0.00583399701076
C           68.88657400062100        0.08155027962893       -0.12384180045895
C           68.24053730863359       -1.01471573129435       -0.65767074893961
C           68.91718703304949       -2.14459641763168       -1.21593597652479
C           67.96207222874952       -2.94997735308971       -1.73884680466878
C           66.70327280578036       -2.30219888596505       -1.51493152509289
N           66.88158865467079       -1.13948670075469       -0.80780658163828
C           65.49100561259515       -2.75913374949512       -2.02001097233038
C           65.48468688395042       -3.95538282959794       -2.89126236164489
C           66.22260256208523       -3.97844691146208       -4.07820818402005
C           66.20816296919905       -5.09085148495855       -4.89791744207376
C           65.45851664259730       -6.22129219240899       -4.54995934836100
N           65.51828524562058       -7.33438675565340       -5.37519722781540
C           64.42832153525984       -8.30117774591186       -5.35816055900056
C           64.73264490938479       -6.20995618827930       -3.35528349421200
C           64.74213249309295       -5.08631451146763       -2.54669289997599
C           64.28537460931861       -2.12519157633727       -1.74457466650505
C           63.03009373030392       -2.51447773318024       -2.31099516709136
C           62.08019587447559       -1.74273777614064       -1.72836913607942
N           64.10897571224152       -1.08703101956441       -0.85748771798402
C           62.75751290036590       -0.87979913662726       -0.81480383655661
C           62.09483116091128       -0.02166676960659        0.06819682574117
C           62.77755021704161        0.83613247337146        0.93638277989047
C           62.12457394970154        1.66627298358106        1.89662696097948
C           63.08510189701182        2.44092541920156        2.45788870330591
C           64.32076065593486        2.09181984165678        1.82584973849848
N           64.12555332222038        1.06705261970730        0.92685176192295
C           65.52007913376823        2.75975808727806        2.04212435257924
C           65.52800692385779        3.94620496576231        2.92636476862651
C           64.72370892337621        5.05199898728413        2.64398951206439
C           64.73030016235890        6.16947777040743        3.46096429597998
C           65.53711570566539        6.20001409288563        4.60220644672624
N           65.61649463345884        7.31010343767303        5.42941545739557
C           64.50019048684582        8.24429779486503        5.49026891680364
C           66.34834385363358        5.09478217416030        4.88787069976819
C           66.34522351666854        3.98859294507980        4.05965809973665
C           66.71216959451282        2.35633215986668        1.45031150930149
C           67.95570875412965        3.05488118616256        1.59128493051973
C           68.90226147096317        2.29912719939955        0.98530244120833
C           68.23480670807244        1.14672525599623        0.46320089173910
N           66.88654328829226        1.21089796550700        0.71476966803060
H           69.96938482604611        0.10547996156050       -0.16435112864239
H           69.98608823620363       -2.28714841813357       -1.19855093311364
H           68.08663474868041       -3.90088226756516       -2.23098899351583
H           66.79253832150019       -3.10310595348449       -4.37012000634147
H           66.77802849373052       -5.09203303229201       -5.82116004698647
H           65.81653697980575       -7.10706733130911       -6.31620835352744
H           63.45525290418557       -7.81307798368192       -5.48487889838454
H           64.43286334539756       -8.85359501102390       -4.41760355596167
H           64.58853453683156       -9.00370188833939       -6.17597093948037
H           64.16066713230508       -7.07732947542666       -3.04931059567775
H           64.18123045645362       -5.09268338885859       -1.61834687519042
H           62.90189565309628       -3.27600268069356       -3.06287946139649
H           61.01434302715364       -1.74809500678894       -1.89050359310721
H           61.06694431153190        1.64658468131571        2.10507582437408
H           62.97608963686673        3.18089818470204        3.23394221189352
H           64.10071893973345        5.04465425669735        1.75612517263088
H           64.10791576520759        7.01738282068468        3.20254296596810
H           65.98500365572949        7.08918200367954        6.34667556834114
H           64.42264602749265        8.79601676074608        4.55249791802822
H           64.69672695573284        8.95181428380593        6.29576659877447
H           63.55303032673640        7.72809273584865        5.68421691138267
H           66.98109202477384        5.11114789263598        5.76905425215091
H           66.96542798902793        3.13292345152959        4.30347022464799
H           68.07614246657539        4.00430050069216        2.08729533002613
H           69.95975778913936        2.48856210851400        0.89053128719811
C           42.12898180593880       -0.00408211013367       -0.03156160208294
C           40.90078913680475        0.00310775201546       -0.04177746218067
C           39.55614717803725        0.01126262087126       -0.04934075796925
C           38.33247475399217        0.02138841335724       -0.05084812425912
C           43.47351773014950       -0.00866713230014       -0.02485804091909
C           44.69735113457321       -0.01008383210531       -0.01892039334100
C           58.12264078649493       -0.01356455655933        0.08184949344757
C           56.89444360828440       -0.00593417800595        0.07063534556920
C           55.55010949308887        0.00130826965233        0.05567585327702
C           54.32647630402520        0.00806444330827        0.03790258293499
C           59.46720588532560       -0.01629281775108        0.08572628444837
C           60.69082112863246       -0.02196087516426        0.08323528394978
Ni          49.51202565644744        0.01892318495335       -0.01468948350149
C           46.10095582949796       -0.00307359431542       -0.01632662739208
C           46.78242004833185       -1.08226184375088       -0.58854558207644
C           46.12685914019347       -2.22611307189386       -1.13502951512730
C           47.08730613200814       -2.97927661862831       -1.72571780860191
C           48.32561121347873       -2.28588182712098       -1.54634430401027
N           48.13200681147613       -1.14418198379860       -0.80179023433776
C           49.52970204981094       -2.68224825593313       -2.11692687977967
C           49.53641340442464       -3.84395590033610       -3.03303165864749
C           50.33672305861035       -4.95928457639710       -2.76837887792355
C           50.34469265270774       -6.04290554059356       -3.62554350014948
C           49.56007384533406       -6.03900833122405       -4.78574191236670
N           49.56715586030736       -7.16797306024420       -5.59033494179124
C           49.17612302706572       -7.06219808583762       -6.98947237696021
C           48.75251869979719       -4.92916572245533       -5.05142887127005
C           48.74376126195232       -3.85162847032131       -4.18242200165267
C           50.72856796587564       -2.02876625191278       -1.85600765958757
C           51.97731816131760       -2.37201943162016       -2.46371984685834
C           52.92910360597625       -1.62244971145684       -1.85472568727954
N           50.90769396858968       -1.03105513679174       -0.92420698173446
C           52.25724438500375       -0.81268293330690       -0.89070869375723
C           52.92312545782448        0.01451365956310        0.01977879490780
C           52.24123973690441        0.85307455521557        0.90750269719752
C           52.89657848367801        1.67964208893961        1.86878752850749
C           51.93635730736668        2.44887693149736        2.43874269667154
C           50.69848228843730        2.09533945727157        1.81504780873866
N           50.89223257120071        1.07824253020628        0.90786012261363
C           49.49430080798141        2.74910265768397        2.04940682419054
C           49.48891811897872        3.93210174821041        2.93813426937945
C           48.69596171389843        3.96031742116770        4.08693076519092
C           48.69304265367238        5.05975787447815        4.92812203003121
C           49.48873110915126        6.17100571717107        4.63397706333429
N           49.48243065722150        7.31998624225678        5.40974241178962
C           49.09860394633144        7.24265384082348        6.81283934943578
C           50.27470638666060        6.15327752089314        3.47489295781677
C           50.27896008924907        5.04779517981954        2.64600901039909
C           48.29608964172230        2.32965156310647        1.48353143935088
C           47.04848638014036        3.00838481910718        1.65459861939107
C           46.09711149639671        2.23047058060151        1.08173000924923
C           46.76781668911594        1.08833800649675        0.55018527776652
N           48.11679249527980        1.17275853463469        0.75870811019067
H           45.06735254389658       -2.41454778948951       -1.06956134370278
H           46.97617883641012       -3.92346918810839       -2.23338182825116
H           50.94179519690644       -4.98144338986450       -1.86861878655268
H           50.96176055711658       -6.90687130896340       -3.40215128666785
H           50.39677252491265       -7.73500615320762       -5.46322133890237
H           48.11034006522545       -6.84285861338666       -7.06424551257996
H           49.74271724508164       -6.28071929788651       -7.50876720081383
H           49.36827964245283       -8.02348835103312       -7.46605741726287
H           48.12873717175012       -4.89945172580058       -5.93624947918679
H           48.12765588576823       -2.98859292921819       -4.41036007061635
H           52.10177282172558       -3.09134605419823       -3.25661372981957
H           53.99231780168728       -1.60827176013408       -2.03274013616140
H           53.95583173942776        1.66500413763268        2.06905976000417
H           52.04760472641949        3.18710678363699        3.21610652920027
H           48.08854761368683        3.09701478254581        4.33635977708291
H           48.06888836897638        5.04663330440276        5.81316773615310
H           50.30328772378267        7.89541664872679        5.26500879570691
H           49.66894649617339        6.47266045086934        7.34491501153355
H           49.29197324203957        8.21369300320877        7.26866843581246
H           48.03350021842871        7.02335979498856        6.89773684172237
H           50.88324935090337        7.01745656515401        3.23003628695982
H           50.88589598226862        5.05209479421927        1.74722844698844
H           46.92517741163604        3.95948439359571        2.14628034896276
H           45.03470567410681        2.40213340367541        1.01748123636409

          :  Hamiltonian                  GFN1-xTB          :
         :: total energy            -350.540462005008 Eh    ::
         :: gradient norm              0.000509153881 Eh/a0 ::
         :: HOMO-LUMO gap              0.972983752526 eV    ::
         :: SCC energy              -356.167956598095 Eh    ::
         :: repulsion energy           5.807183080965 Eh    ::

    * Orbital Energies and Occupations

         #    Occupation            Energy/Eh            Energy/eV
      -------------------------------------------------------------
         1        2.0000           -0.7789325             -21.1958
       ...           ...                  ...                  ...
       313        2.0000           -0.3895353             -10.5998
       314        2.0000           -0.3892909             -10.5931
       315        2.0000           -0.3886353             -10.5753
       316        2.0000           -0.3884200             -10.5694
       317        2.0000           -0.3882811             -10.5657
       318        2.0000           -0.3882717             -10.5654
       319        2.0000           -0.3875221             -10.5450
       320        2.0000           -0.3874718             -10.5436
       321        2.0000           -0.3871561             -10.5351
       322        2.0000           -0.3871051             -10.5337
       323        2.0000           -0.3821513             -10.3989
       324        2.0000           -0.3776235             -10.2757
       325        2.0000           -0.3714128             -10.1067 (HOMO)
       326                         -0.3356563              -9.1337 (LUMO)
       327                         -0.3266579              -8.8888
       328                         -0.3207735              -8.7287
       329                         -0.3202399              -8.7142
       330                         -0.3198909              -8.7047
       331                         -0.3198632              -8.7039
       332                         -0.3197891              -8.7019
       333                         -0.3186602              -8.6712
       334                         -0.3182302              -8.6595
       335                         -0.2976697              -8.1000
       336                         -0.2883079              -7.8453
       ...                                ...                  ...
       703                          1.5865568              43.1724
      -------------------------------------------------------------
                  HL-Gap            0.0357565 Eh            0.9730 eV

Wiberg/Mayer (AO) data.
largest (>0.10) Wiberg bond orders for each atom

     #   Z sym  total        # sym  WBO       # sym  WBO       # sym  WBO
 ---------------------------------------------------------------------------
     1  28 Ni   3.022 --    41 N    0.665     7 N    0.665    20 N    0.662
                            27 N    0.662
     2   6 C    3.932 --    40 C    1.364     3 C    1.362    42 H    0.970
     3   6 C    3.925 --     2 C    1.362     7 N    1.212     4 C    1.178
     4   6 C    3.959 --     5 C    1.644     3 C    1.178    43 H    0.975
     5   6 C    3.963 --     4 C    1.644     6 C    1.180    44 H    0.973
     6   6 C    3.918 --     8 C    1.318     7 N    1.221     5 C    1.180
     7   7 N    3.400 --     6 C    1.221     3 C    1.212     1 Ni   0.665
     8   6 C    3.939 --    17 C    1.324     6 C    1.318     9 C    1.035
     9   6 C    3.987 --    16 C    1.383    10 C    1.373     8 C    1.035
    10   6 C    3.988 --    11 C    1.477     9 C    1.373    45 H    0.972
    11   6 C    3.989 --    10 C    1.477    12 C    1.345    46 H    0.971
    12   6 C    3.952 --    15 C    1.353    11 C    1.345    13 N    1.110
    13   7 N    3.180 --    12 C    1.110    14 C    0.971    47 H    0.931
    14   6 C    3.968 --    50 H    0.990    49 H    0.986    48 H    0.984
                            13 N    0.971
    15   6 C    3.990 --    16 C    1.465    12 C    1.353    51 H    0.970
    16   6 C    3.988 --    15 C    1.465     9 C    1.383    52 H    0.972
    17   6 C    3.914 --     8 C    1.324    20 N    1.205    18 C    1.187
    18   6 C    3.959 --    19 C    1.631    17 C    1.187    53 H    0.973
    19   6 C    3.961 --    18 C    1.631    21 C    1.194    54 H    0.974
    20   7 N    3.404 --    21 C    1.237    17 C    1.205     1 Ni   0.662
    21   6 C    3.904 --    22 C    1.261    20 N    1.237    19 C    1.194
    22   6 C    3.941 --    21 C    1.261    23 C    1.260   136 C    1.187
    23   6 C    3.904 --    22 C    1.260    27 N    1.239    24 C    1.195
    24   6 C    3.961 --    25 C    1.631    23 C    1.195    55 H    0.974
    25   6 C    3.959 --    24 C    1.631    26 C    1.187    56 H    0.973
    26   6 C    3.914 --    28 C    1.326    27 N    1.204    25 C    1.187
    27   7 N    3.404 --    23 C    1.239    26 C    1.204     1 Ni   0.662
    28   6 C    3.939 --    26 C    1.326    37 C    1.316    29 C    1.035
    29   6 C    3.987 --    30 C    1.383    36 C    1.373    28 C    1.035
    30   6 C    3.988 --    31 C    1.465    29 C    1.383    57 H    0.972
    31   6 C    3.990 --    30 C    1.465    32 C    1.353    58 H    0.970
    32   6 C    3.952 --    31 C    1.353    35 C    1.344    33 N    1.110
    33   7 N    3.181 --    32 C    1.110    34 C    0.971    59 H    0.931
    34   6 C    3.968 --    61 H    0.990    60 H    0.986    62 H    0.984
                            33 N    0.971
    35   6 C    3.989 --    36 C    1.477    32 C    1.344    63 H    0.971
    36   6 C    3.988 --    35 C    1.477    29 C    1.373    64 H    0.973
    37   6 C    3.918 --    28 C    1.316    41 N    1.223    38 C    1.180
    38   6 C    3.963 --    39 C    1.644    37 C    1.180    65 H    0.973
    39   6 C    3.959 --    38 C    1.644    40 C    1.178    66 H    0.975
    40   6 C    3.925 --     2 C    1.364    41 N    1.210    39 C    1.178
    41   7 N    3.400 --    37 C    1.223    40 C    1.210     1 Ni   0.665
    42   1 H    1.001 --     2 C    0.970
    43   1 H    0.998 --     4 C    0.975
    44   1 H    1.005 --     5 C    0.973
    45   1 H    1.005 --    10 C    0.972
    46   1 H    0.999 --    11 C    0.971
    47   1 H    0.966 --    13 N    0.931
    48   1 H    1.003 --    14 C    0.984
    49   1 H    1.012 --    14 C    0.986
    50   1 H    1.007 --    14 C    0.990
    51   1 H    1.001 --    15 C    0.970
    52   1 H    1.005 --    16 C    0.972
    53   1 H    1.005 --    18 C    0.973
    54   1 H    1.002 --    19 C    0.974
    55   1 H    1.002 --    24 C    0.974
    56   1 H    1.005 --    25 C    0.973
    57   1 H    1.005 --    30 C    0.972
    58   1 H    1.001 --    31 C    0.970
    59   1 H    0.966 --    33 N    0.931
    60   1 H    1.012 --    34 C    0.986
    61   1 H    1.007 --    34 C    0.990
    62   1 H    1.003 --    34 C    0.984
    63   1 H    0.999 --    35 C    0.971
    64   1 H    1.005 --    36 C    0.973
    65   1 H    1.005 --    38 C    0.973
    66   1 H    0.998 --    39 C    0.975
    67  28 Ni   3.022 --   107 N    0.665    73 N    0.665    86 N    0.662
                            93 N    0.662
    68   6 C    3.932 --   106 C    1.363    69 C    1.363   108 H    0.970
    69   6 C    3.925 --    68 C    1.363    73 N    1.211    70 C    1.178
    70   6 C    3.959 --    71 C    1.645    69 C    1.178   109 H    0.975
    71   6 C    3.963 --    70 C    1.645    72 C    1.180   110 H    0.973
    72   6 C    3.918 --    74 C    1.318    73 N    1.222    71 C    1.180
    73   7 N    3.400 --    72 C    1.222    69 C    1.211    67 Ni   0.665
    74   6 C    3.939 --    83 C    1.325    72 C    1.318    75 C    1.035
    75   6 C    3.988 --    82 C    1.383    76 C    1.373    74 C    1.035
    76   6 C    3.988 --    77 C    1.477    75 C    1.373   111 H    0.972
    77   6 C    3.989 --    76 C    1.477    78 C    1.345   112 H    0.971
    78   6 C    3.952 --    81 C    1.353    77 C    1.345    79 N    1.110
    79   7 N    3.180 --    78 C    1.110    80 C    0.971   113 H    0.931
    80   6 C    3.968 --   116 H    0.990   115 H    0.986   114 H    0.984
                            79 N    0.971
    81   6 C    3.990 --    82 C    1.465    78 C    1.353   117 H    0.970
    82   6 C    3.988 --    81 C    1.465    75 C    1.383   118 H    0.973
    83   6 C    3.914 --    74 C    1.325    86 N    1.205    84 C    1.187
    84   6 C    3.959 --    85 C    1.632    83 C    1.187   119 H    0.973
    85   6 C    3.961 --    84 C    1.632    87 C    1.194   120 H    0.974
    86   7 N    3.404 --    87 C    1.238    83 C    1.205    67 Ni   0.662
    87   6 C    3.904 --    88 C    1.261    86 N    1.238    85 C    1.194
    88   6 C    3.941 --    87 C    1.261    89 C    1.260   144 C    1.187
    89   6 C    3.904 --    88 C    1.260    93 N    1.238    90 C    1.195
    90   6 C    3.961 --    91 C    1.631    89 C    1.195   121 H    0.974
    91   6 C    3.959 --    90 C    1.631    92 C    1.187   122 H    0.973
    92   6 C    3.914 --    94 C    1.325    93 N    1.205    91 C    1.187
    93   7 N    3.404 --    89 C    1.238    92 C    1.205    67 Ni   0.662
    94   6 C    3.939 --    92 C    1.325   103 C    1.317    95 C    1.036
    95   6 C    3.987 --    96 C    1.383   102 C    1.373    94 C    1.036
    96   6 C    3.988 --    97 C    1.465    95 C    1.383   123 H    0.972
    97   6 C    3.990 --    96 C    1.465    98 C    1.353   124 H    0.970
    98   6 C    3.952 --    97 C    1.353   101 C    1.344    99 N    1.110
    99   7 N    3.180 --    98 C    1.110   100 C    0.971   125 H    0.931
   100   6 C    3.968 --   127 H    0.990   126 H    0.986   128 H    0.984
                            99 N    0.971
   101   6 C    3.989 --   102 C    1.477    98 C    1.344   129 H    0.971
   102   6 C    3.988 --   101 C    1.477    95 C    1.373   130 H    0.972
   103   6 C    3.918 --    94 C    1.317   107 N    1.222   104 C    1.180
   104   6 C    3.963 --   105 C    1.644   103 C    1.180   131 H    0.973
   105   6 C    3.959 --   104 C    1.644   106 C    1.178   132 H    0.975
   106   6 C    3.925 --    68 C    1.363   107 N    1.211   105 C    1.178
   107   7 N    3.400 --   103 C    1.222   106 C    1.211    67 Ni   0.665
   108   1 H    1.001 --    68 C    0.970
   109   1 H    0.998 --    70 C    0.975
   110   1 H    1.005 --    71 C    0.973
   111   1 H    1.005 --    76 C    0.972
   112   1 H    0.999 --    77 C    0.971
   113   1 H    0.966 --    79 N    0.931
   114   1 H    1.003 --    80 C    0.984
   115   1 H    1.012 --    80 C    0.986
   116   1 H    1.007 --    80 C    0.990
   117   1 H    1.001 --    81 C    0.970
   118   1 H    1.005 --    82 C    0.973
   119   1 H    1.005 --    84 C    0.973
   120   1 H    1.002 --    85 C    0.974
   121   1 H    1.002 --    90 C    0.974
   122   1 H    1.005 --    91 C    0.973
   123   1 H    1.005 --    96 C    0.972
   124   1 H    1.001 --    97 C    0.970
   125   1 H    0.966 --    99 N    0.931
   126   1 H    1.012 --   100 C    0.986
   127   1 H    1.007 --   100 C    0.990
   128   1 H    1.003 --   100 C    0.984
   129   1 H    0.999 --   101 C    0.971
   130   1 H    1.005 --   102 C    0.972
   131   1 H    1.005 --   104 C    0.973
   132   1 H    0.998 --   105 C    0.975
   133   6 C    3.927 --   134 C    2.371   137 C    1.334   136 C    0.191
   134   6 C    3.926 --   133 C    2.371   135 C    1.333   138 C    0.191
   135   6 C    3.936 --   136 C    2.453   134 C    1.333
   136   6 C    3.890 --   135 C    2.453    22 C    1.187   133 C    0.191
   137   6 C    3.934 --   138 C    2.451   133 C    1.334
   138   6 C    3.891 --   137 C    2.451   146 C    1.190   134 C    0.191
   139   6 C    3.926 --   140 C    2.370   143 C    1.333   142 C    0.191
   140   6 C    3.927 --   139 C    2.370   141 C    1.334   144 C    0.191
   141   6 C    3.934 --   142 C    2.450   140 C    1.334
   142   6 C    3.891 --   141 C    2.450   166 C    1.190   139 C    0.191
   143   6 C    3.936 --   144 C    2.452   139 C    1.333
   144   6 C    3.890 --   143 C    2.452    88 C    1.187   140 C    0.191
   145  28 Ni   3.008 --   185 N    0.661   151 N    0.661   164 N    0.661
                           171 N    0.661
   146   6 C    3.931 --   147 C    1.258   184 C    1.258   138 C    1.190
   147   6 C    3.904 --   146 C    1.258   151 N    1.238   148 C    1.196
   148   6 C    3.959 --   149 C    1.629   147 C    1.196   186 H    0.974
   149   6 C    3.960 --   148 C    1.629   150 C    1.189   187 H    0.973
   150   6 C    3.911 --   152 C    1.321   151 N    1.205   149 C    1.189
   151   7 N    3.398 --   147 C    1.238   150 C    1.205   145 Ni   0.661
   152   6 C    3.934 --   161 C    1.321   150 C    1.321   153 C    1.037
   153   6 C    3.987 --   160 C    1.383   154 C    1.372   152 C    1.037
   154   6 C    3.988 --   155 C    1.478   153 C    1.372   188 H    0.972
   155   6 C    3.989 --   154 C    1.478   156 C    1.344   189 H    0.971
   156   6 C    3.952 --   159 C    1.352   155 C    1.344   157 N    1.111
   157   7 N    3.182 --   156 C    1.111   158 C    0.971   190 H    0.931
   158   6 C    3.968 --   193 H    0.990   191 H    0.986   192 H    0.984
                           157 N    0.971
   159   6 C    3.989 --   160 C    1.465   156 C    1.352   194 H    0.970
   160   6 C    3.987 --   159 C    1.465   153 C    1.383   195 H    0.972
   161   6 C    3.911 --   152 C    1.321   164 N    1.205   162 C    1.189
   162   6 C    3.960 --   163 C    1.628   161 C    1.189   196 H    0.973
   163   6 C    3.959 --   162 C    1.628   165 C    1.196   197 H    0.974
   164   7 N    3.397 --   165 C    1.239   161 C    1.205   145 Ni   0.661
   165   6 C    3.904 --   166 C    1.258   164 N    1.239   163 C    1.196
   166   6 C    3.931 --   167 C    1.258   165 C    1.258   142 C    1.190
   167   6 C    3.904 --   166 C    1.258   171 N    1.238   168 C    1.196
   168   6 C    3.959 --   169 C    1.628   167 C    1.196   198 H    0.974
   169   6 C    3.960 --   168 C    1.628   170 C    1.189   199 H    0.973
   170   6 C    3.911 --   172 C    1.320   171 N    1.205   169 C    1.189
   171   7 N    3.398 --   167 C    1.238   170 C    1.205   145 Ni   0.661
   172   6 C    3.934 --   181 C    1.322   170 C    1.320   173 C    1.036
   173   6 C    3.987 --   174 C    1.383   180 C    1.372   172 C    1.036
   174   6 C    3.988 --   175 C    1.465   173 C    1.383   200 H    0.972
   175   6 C    3.989 --   174 C    1.465   176 C    1.352   201 H    0.970
   176   6 C    3.952 --   175 C    1.352   179 C    1.344   177 N    1.111
   177   7 N    3.181 --   176 C    1.111   178 C    0.971   202 H    0.931
   178   6 C    3.968 --   204 H    0.990   205 H    0.986   203 H    0.984
                           177 N    0.971
   179   6 C    3.989 --   180 C    1.478   176 C    1.344   206 H    0.971
   180   6 C    3.988 --   179 C    1.478   173 C    1.372   207 H    0.972
   181   6 C    3.911 --   172 C    1.322   185 N    1.204   182 C    1.189
   182   6 C    3.960 --   183 C    1.629   181 C    1.189   208 H    0.973
   183   6 C    3.959 --   182 C    1.629   184 C    1.196   209 H    0.974
   184   6 C    3.904 --   146 C    1.258   185 N    1.239   183 C    1.196
   185   7 N    3.398 --   184 C    1.239   181 C    1.204   145 Ni   0.661
   186   1 H    1.002 --   148 C    0.974
   187   1 H    1.005 --   149 C    0.973
   188   1 H    1.005 --   154 C    0.972
   189   1 H    0.999 --   155 C    0.971
   190   1 H    0.965 --   157 N    0.931
   191   1 H    1.012 --   158 C    0.986
   192   1 H    1.003 --   158 C    0.984
   193   1 H    1.007 --   158 C    0.990
   194   1 H    1.001 --   159 C    0.970
   195   1 H    1.005 --   160 C    0.972
   196   1 H    1.005 --   162 C    0.973
   197   1 H    1.002 --   163 C    0.974
   198   1 H    1.002 --   168 C    0.974
   199   1 H    1.005 --   169 C    0.973
   200   1 H    1.005 --   174 C    0.972
   201   1 H    1.001 --   175 C    0.970
   202   1 H    0.965 --   177 N    0.931
   203   1 H    1.003 --   178 C    0.984
   204   1 H    1.007 --   178 C    0.990
   205   1 H    1.012 --   178 C    0.986
   206   1 H    0.999 --   179 C    0.971
   207   1 H    1.005 --   180 C    0.972
   208   1 H    1.005 --   182 C    0.973
   209   1 H    1.002 --   183 C    0.974
 ---------------------------------------------------------------------------

           -------------------------------------------------
          | TOTAL ENERGY             -350.540462005008 Eh   |
          | GRADIENT NORM               0.000509153881 Eh/α |
          | HOMO-LUMO GAP               0.972983752526 eV   |
           -------------------------------------------------

 * finished run on 2022/07/30 at 03:14:22.210
