   * xtb version 6.5.1 (b24c23e) compiled by 'conda@728c89f4b128' on 2022-07-12
          program call               : xtb Co_H_C4_2.xyz --gfn 1 --opt -T 48

   ID    Z sym.   atoms
    1   27 Co     1, 37
    2    6 C      2-6, 8-11, 13-18, 20-24, 38-42, 44-47, 49-54, 56-60, 73-76
    3    7 N      7, 12, 19, 25, 43, 48, 55, 61
    4    1 H      26-36, 62-72
########################################################################
[WARNING] Please study the warnings concerning your input carefully
-1- prog_main_parseArguments: Unknown option '-T' provided
########################################################################

          :  Hamiltonian                  GFN1-xTB          :
 * total energy  :  -137.1205648 Eh     change       -0.5627498E-10 Eh
 * total energy  :  -137.2462482 Eh     change       -0.1256834E+00 Eh
 * total energy  :  -137.2835366 Eh     change       -0.3728841E-01 Eh
 * total energy  :  -137.3087409 Eh     change       -0.2520434E-01 Eh
 * total energy  :  -137.3168191 Eh     change       -0.8078176E-02 Eh
 * total energy  :  -137.3202030 Eh     change       -0.3383916E-02 Eh
 * total energy  :  -137.3232654 Eh     change       -0.3062398E-02 Eh
 * total energy  :  -137.3250959 Eh     change       -0.1830447E-02 Eh
 * total energy  :  -137.3263388 Eh     change       -0.1242912E-02 Eh
 * total energy  :  -137.3272504 Eh     change       -0.9116649E-03 Eh
 * total energy  :  -137.3305445 Eh     change       -0.5273211E-04 Eh
 * total energy  :  -137.3305766 Eh     change       -0.3204159E-04 Eh
 * total energy  :  -137.3306130 Eh     change       -0.3640327E-04 Eh
 * total energy  :  -137.3306575 Eh     change       -0.4454343E-04 Eh
 * total energy  :  -137.3306643 Eh     change       -0.6729046E-05 Eh
 * total energy  :  -137.3306331 Eh     change        0.3114298E-04 Eh
 * total energy  :  -137.3306721 Eh     change       -0.3899074E-04 Eh
 * total energy  :  -137.3306826 Eh     change       -0.1052941E-04 Eh
 * total energy  :  -137.3306870 Eh     change       -0.4415554E-05 Eh
   *** GEOMETRY OPTIMIZATION CONVERGED AFTER 98 ITERATIONS ***

 final structure:
================
76
 xtb: 6.5.1 (b24c23e)
Co           7.86063585103876       -0.03558592425106        0.02393771996819
C            4.69346778949948       -0.63196567601946        0.99641923585140
C            5.23331248091081       -1.43306968149875        0.01059354704808
C            4.51197338346134       -2.47044283985736       -0.66579100749292
C            5.32777404742321       -2.94262616805741       -1.63807014801012
C            6.56702332665856       -2.23293412194636       -1.51670635310025
N            6.48762902322027       -1.29253462580767       -0.52318996223431
C            7.71726614105601       -2.56923383602449       -2.20119479809953
C            8.95479713878668       -2.05237213192762       -1.88085664830696
C           10.19404106612994       -2.57923458841469       -2.36572181130038
C           11.18019001079747       -1.90171254849751       -1.72918849012296
N            9.18242339737073       -1.03347687973986       -0.98741661562193
C           10.54057813508199       -0.92346671751368       -0.90370701496357
C           11.23008412492900        0.10399638838999       -0.25185563604145
C           10.55461304323032        1.19898537422809        0.29834483166351
C           11.20394051753186        2.40538041651555        0.70987215433780
C           10.22691497122053        3.26398966889711        1.09048567298631
C            8.98828849007910        2.55732184506740        0.96454793373857
N            9.20236866334044        1.30192606240140        0.44483154793136
C            7.78686743241943        3.01972364263685        1.45640147509546
C            6.66431681807515        2.22232211562883        1.56009453797034
C            5.49230181122700        2.57559888121189        2.30501034188842
C            4.66529634895194        1.50404105089292        2.26193125871837
C            5.30908768160265        0.51898292991839        1.44328521753621
N            6.54234204782692        0.96211755334205        1.03914280416644
H            3.69874081501253       -0.86048632609140        1.36065713542877
H            3.50259106835483       -2.76643397902200       -0.42725796167612
H            5.13930237747416       -3.72123500133463       -2.36025596346059
H            7.66274746803746       -3.35086615235794       -2.94984766290767
H           10.27863354204880       -3.38313838148056       -3.07954761968558
H           12.24814463611921       -2.01758372339250       -1.82287552907664
H           12.26993715728204        2.56533594435747        0.68087656265582
H           10.31975812572992        4.27350818846950        1.45831590634642
H            7.75093079473578        4.01907259425529        1.87409612066027
H            5.35137830615767        3.51865794642432        2.80913586470183
H            3.69165224788092        1.38278427425595        2.70987361492416
Co          21.19873072216295        0.01046695502004        0.04556766312311
C           24.36158763829804       -0.19035310356794        1.18021944767470
C           23.80521245901404        1.06243453331169        1.02035767663026
C           24.50935766235951        2.28825392271629        1.25638882488265
C           23.69518850201254        3.29037565602749        0.84806696784414
C           22.47243177126653        2.67871089701120        0.41847042807801
N           22.55886951153063        1.31446350749566        0.50871837364239
C           21.32939587207967        3.38283090784197        0.09772029441095
C           20.09806340650282        2.78028719134934       -0.04870859623718
C           18.85818324455577        3.49392461277692       -0.09468784914887
C           17.87328448109036        2.56317441923403       -0.07722326476116
N           19.87273740781391        1.42447596730676       -0.05324445251913
C           18.51537253825182        1.28447684901825       -0.08192934730634
C           17.82893736053405        0.07794920800523       -0.25380417658808
C           18.50699096076547       -1.10992089955849       -0.54815657974223
C           17.85822783195870       -2.29531741352260       -1.01773909957564
C           18.83737598960628       -3.18265246351973       -1.31854455603466
C           20.07796917338547       -2.55611156004028       -0.97577091763449
N           19.86126378450921       -1.27409662704957       -0.52806366524552
C           21.29088377542919       -3.21051934996624       -0.96003196342728
C           22.42173632031209       -2.67579242570809       -0.37578722713321
C           23.61133109909239       -3.42421574650317       -0.09608856613738
C           24.43240597302373       -2.60427013575190        0.60212435739258
C           23.76724152723381       -1.33808587977134        0.69723575381653
N           22.53072309150388       -1.39941802351210        0.10805293945969
H           25.35415589608796       -0.26381272158901        1.60893619690977
H           25.50838643874869        2.34990382877094        1.65825852081675
H           23.87453283042479        4.35389537043996        0.85725956488908
H           21.38110989706075        4.46486523653145        0.06666832108121
H           18.77198257018522        4.56881896318026       -0.10708839815377
H           16.80514468063543        2.71018058699296       -0.09149102121838
H           16.79075371905638       -2.40644481492171       -1.12220740294806
H           18.74555494049618       -4.18506859402401       -1.70552003857384
H           21.33186077463714       -4.22936777466556       -1.32705823073187
H           23.76637472083290       -4.45241886601528       -0.38264632108808
H           25.41425972603560       -2.80859191174664        0.99905937244841
C           13.85511612626023        0.08706257351750       -0.24493425218784
C           12.63266027048508        0.09666243735153       -0.25204096455719
C           15.20380407409695        0.08373581097057       -0.24235935647637
C           16.42630395017052        0.08175630243932       -0.25171971731676

          :  Hamiltonian                  GFN1-xTB          :
         :: total energy            -137.330687044343 Eh    ::
         :: gradient norm              0.000482994382 Eh/a0 ::
         :: HOMO-LUMO gap              0.012137862851 eV    ::
         :: SCC energy              -139.507191854057 Eh    ::
         :: repulsion energy           2.240812445239 Eh    ::

    * Orbital Energies and Occupations

         #    Occupation            Energy/Eh            Energy/eV
      -------------------------------------------------------------
         1        2.0000           -0.7723464             -21.0166
       ...           ...                  ...                  ...
       116        2.0000           -0.4293271             -11.6826
       117        2.0000           -0.4277851             -11.6406
       118        2.0000           -0.4038472             -10.9892
       119        2.0000           -0.3979925             -10.8299
       120        2.0000           -0.3979345             -10.8283
       121        2.0000           -0.3975486             -10.8178
       122        1.9999           -0.3933142             -10.7026
       123        1.9999           -0.3932802             -10.7017
       124        1.9999           -0.3932643             -10.7013
       125        1.9999           -0.3931838             -10.6991
       126        1.9999           -0.3931380             -10.6978
       127        1.9137           -0.3867857             -10.5250
       128        1.1600           -0.3841486             -10.4532 (HOMO)
       129        0.9268           -0.3837026             -10.4411 (LUMO)
       130                         -0.3400861              -9.2542
       131                         -0.3289577              -8.9514
       132                         -0.3288942              -8.9497
       133                         -0.3261180              -8.8741
       134                         -0.2984641              -8.1216
       135                         -0.2906615              -7.9093
       136                         -0.2899048              -7.8887
       137                         -0.2898978              -7.8885
       138                         -0.2633497              -7.1661
       139                         -0.2445490              -6.6545
       ...                                ...                  ...
       270                          1.5137581              41.1915
      -------------------------------------------------------------
                  HL-Gap            0.0004461 Eh            0.0121 eV

Wiberg/Mayer (AO) data.
largest (>0.10) Wiberg bond orders for each atom

     #   Z sym  total        # sym  WBO       # sym  WBO       # sym  WBO
 ---------------------------------------------------------------------------
     1  27 Co   3.045 --     7 N    0.639    25 N    0.638    19 N    0.634
                            12 N    0.633
     2   6 C    3.931 --    24 C    1.366     3 C    1.361    26 H    0.971
     3   6 C    3.924 --     2 C    1.361     7 N    1.208     4 C    1.171
     4   6 C    3.960 --     5 C    1.654     3 C    1.171    27 H    0.975
     5   6 C    3.962 --     4 C    1.654     6 C    1.170    28 H    0.975
     6   6 C    3.922 --     8 C    1.360     7 N    1.208     5 C    1.170
     7   7 N    3.351 --     3 C    1.208     6 C    1.208     1 Co   0.639
     8   6 C    3.937 --     9 C    1.369     6 C    1.360    29 H    0.971
     9   6 C    3.917 --     8 C    1.369    12 N    1.193    10 C    1.176
    10   6 C    3.958 --    11 C    1.642     9 C    1.176    30 H    0.975
    11   6 C    3.961 --    10 C    1.642    13 C    1.185    31 H    0.974
    12   7 N    3.353 --    13 C    1.235     9 C    1.193     1 Co   0.633
    13   6 C    3.904 --    14 C    1.259    12 N    1.235    11 C    1.185
    14   6 C    3.936 --    13 C    1.259    15 C    1.255    74 C    1.193
    15   6 C    3.904 --    14 C    1.255    19 N    1.240    16 C    1.186
    16   6 C    3.962 --    17 C    1.643    15 C    1.186    32 H    0.974
    17   6 C    3.957 --    16 C    1.643    18 C    1.175    33 H    0.975
    18   6 C    3.917 --    20 C    1.375    19 N    1.187    17 C    1.175
    19   7 N    3.353 --    15 C    1.240    18 C    1.187     1 Co   0.634
    20   6 C    3.937 --    18 C    1.375    21 C    1.355    34 H    0.970
    21   6 C    3.922 --    20 C    1.355    25 N    1.213    22 C    1.172
    22   6 C    3.962 --    23 C    1.654    21 C    1.172    35 H    0.975
    23   6 C    3.960 --    22 C    1.654    24 C    1.170    36 H    0.975
    24   6 C    3.924 --     2 C    1.366    25 N    1.204    23 C    1.170
    25   7 N    3.352 --    21 C    1.213    24 C    1.204     1 Co   0.638
    26   1 H    1.000 --     2 C    0.971
    27   1 H    0.997 --     4 C    0.975
    28   1 H    0.997 --     5 C    0.975
    29   1 H    1.000 --     8 C    0.971
    30   1 H    0.997 --    10 C    0.975
    31   1 H    1.001 --    11 C    0.974
    32   1 H    1.001 --    16 C    0.974
    33   1 H    0.997 --    17 C    0.975
    34   1 H    1.000 --    20 C    0.970
    35   1 H    0.997 --    22 C    0.975
    36   1 H    0.997 --    23 C    0.975
    37  27 Co   3.044 --    43 N    0.639    61 N    0.638    55 N    0.634
                            48 N    0.633
    38   6 C    3.931 --    60 C    1.364    39 C    1.362    62 H    0.971
    39   6 C    3.924 --    38 C    1.362    43 N    1.207    40 C    1.171
    40   6 C    3.960 --    41 C    1.654    39 C    1.171    63 H    0.975
    41   6 C    3.962 --    40 C    1.654    42 C    1.171    64 H    0.975
    42   6 C    3.922 --    44 C    1.359    43 N    1.209    41 C    1.171
    43   7 N    3.351 --    42 C    1.209    39 C    1.207    37 Co   0.639
    44   6 C    3.937 --    45 C    1.371    42 C    1.359    65 H    0.971
    45   6 C    3.917 --    44 C    1.371    48 N    1.191    46 C    1.176
    46   6 C    3.957 --    47 C    1.642    45 C    1.176    66 H    0.975
    47   6 C    3.961 --    46 C    1.642    49 C    1.185    67 H    0.974
    48   7 N    3.353 --    49 C    1.237    45 C    1.191    37 Co   0.633
    49   6 C    3.904 --    50 C    1.258    48 N    1.237    47 C    1.185
    50   6 C    3.936 --    49 C    1.258    51 C    1.256    76 C    1.193
    51   6 C    3.904 --    50 C    1.256    55 N    1.239    52 C    1.186
    52   6 C    3.961 --    53 C    1.642    51 C    1.186    68 H    0.974
    53   6 C    3.957 --    52 C    1.642    54 C    1.175    69 H    0.975
    54   6 C    3.917 --    56 C    1.374    55 N    1.189    53 C    1.175
    55   7 N    3.353 --    51 C    1.239    54 C    1.189    37 Co   0.634
    56   6 C    3.937 --    54 C    1.374    57 C    1.356    70 H    0.971
    57   6 C    3.922 --    56 C    1.356    61 N    1.212    58 C    1.171
    58   6 C    3.962 --    59 C    1.654    57 C    1.171    71 H    0.975
    59   6 C    3.960 --    58 C    1.654    60 C    1.170    72 H    0.975
    60   6 C    3.924 --    38 C    1.364    61 N    1.206    59 C    1.170
    61   7 N    3.351 --    57 C    1.212    60 C    1.206    37 Co   0.638
    62   1 H    1.000 --    38 C    0.971
    63   1 H    0.997 --    40 C    0.975
    64   1 H    0.997 --    41 C    0.975
    65   1 H    1.000 --    44 C    0.971
    66   1 H    0.997 --    46 C    0.975
    67   1 H    1.001 --    47 C    0.974
    68   1 H    1.001 --    52 C    0.974
    69   1 H    0.997 --    53 C    0.975
    70   1 H    1.000 --    56 C    0.971
    71   1 H    0.997 --    58 C    0.975
    72   1 H    0.997 --    59 C    0.975
    73   6 C    3.930 --    74 C    2.468    75 C    1.313
    74   6 C    3.921 --    73 C    2.468    14 C    1.193    76 C    0.198
    75   6 C    3.930 --    76 C    2.468    73 C    1.313
    76   6 C    3.921 --    75 C    2.468    50 C    1.193    74 C    0.198
 ---------------------------------------------------------------------------

           -------------------------------------------------
          | TOTAL ENERGY             -137.330687044343 Eh   |
          | GRADIENT NORM               0.000482994382 Eh/α |
          | HOMO-LUMO GAP               0.012137862851 eV   |
           -------------------------------------------------

 * finished run on 2022/07/29 at 22:05:27.250
