   * xtb version 6.5.1 (b24c23e) compiled by 'conda@728c89f4b128' on 2022-07-12
          program call               : xtb Fe_H_C4_3.xyz --gfn 1 --opt -T 48

   ID    Z sym.   atoms
    1   26 Fe     1, 37, 81
    2    6 C      2-6, 8-11, 13-18, 20-24, 38-42, 44-47, 49-54, 56-60, 73-80,
                  82-86, 88-91, 93-98, 100-104
    3    7 N      7, 12, 19, 25, 43, 48, 55, 61, 87, 92, 99, 105
    4    1 H      26-36, 62-72, 106-115

          :  Hamiltonian                  GFN1-xTB          :
 * total energy  :  -205.8798062 Eh     change       -0.9117883E-08 Eh
 * total energy  :  -207.4212461 Eh     change       -0.1541440E+01 Eh
 * total energy  :  -207.6446065 Eh     change       -0.2233604E+00 Eh
 * total energy  :  -207.7642034 Eh     change       -0.1195970E+00 Eh
 * total energy  :  -207.8612459 Eh     change       -0.9704251E-01 Eh
 * total energy  :  -207.9424357 Eh     change       -0.8118976E-01 Eh
 * total energy  :  -207.9999232 Eh     change       -0.5748750E-01 Eh
 * total energy  :  -208.0282434 Eh     change       -0.2832026E-01 Eh
 * total energy  :  -208.0461517 Eh     change       -0.1790826E-01 Eh
 * total energy  :  -208.0534794 Eh     change       -0.7327689E-02 Eh
 * total energy  :  -208.1094030 Eh     change       -0.2096723E-04 Eh
 * total energy  :  -208.1094233 Eh     change       -0.2031287E-04 Eh
 * total energy  :  -208.1094391 Eh     change       -0.1582777E-04 Eh
 * total energy  :  -208.1094512 Eh     change       -0.1201727E-04 Eh
 * total energy  :  -208.1094622 Eh     change       -0.1105069E-04 Eh
 * total energy  :  -208.1094753 Eh     change       -0.1307271E-04 Eh
 * total energy  :  -208.1094932 Eh     change       -0.1788398E-04 Eh
 * total energy  :  -208.1095146 Eh     change       -0.2146082E-04 Eh
 * total energy  :  -208.1095174 Eh     change       -0.2800569E-05 Eh
   *** GEOMETRY OPTIMIZATION CONVERGED AFTER 68 ITERATIONS ***

 final structure:
================
115
 xtb: 6.5.1 (b24c23e)
Fe          16.17200502716232       -0.02693045021583       -0.01063295785635
C           12.76087544827832       -0.10467222739510        0.06458821993787
C           13.40917075813174       -0.96203555430810       -0.80095265384554
C           12.73204238849499       -1.87912947533195       -1.67070811977292
C           13.69082512294734       -2.53587923383045       -2.36504359154202
C           14.95055315030809       -2.02023863059589       -1.91504588604995
N           14.76572689615772       -1.05879098434922       -0.95979273991090
C           16.17165374342389       -2.45668644281632       -2.39112845990485
C           17.39022846623669       -1.98227285504190       -1.95708581972612
C           18.64797491353484       -2.45942600496696       -2.44874496794462
C           19.60904226043517       -1.77339373142455       -1.78515421082814
N           17.58295543013161       -1.01079988641087       -1.00423419346146
C           18.93387118681052       -0.87816276495522       -0.89494955468320
C           19.60419900321489        0.01123911484535       -0.04525028957745
C           18.93124460858114        0.89738862674819        0.80558420605431
C           19.60407080741146        1.82572874449004        1.66320095827554
C           18.64127109753843        2.51274112781870        2.32322107671883
C           17.38485003267717        1.99745837085644        1.86795231486781
N           17.58015168294251        1.00748701669269        0.93471066918162
C           16.16485684629935        2.44308073721190        2.32758134577709
C           14.94549946209361        1.94510948672107        1.91087787707082
C           13.68453749908940        2.40860939733857        2.41147088477547
C           12.72771112629994        1.68872035368967        1.77994097894492
C           13.40711831487008        0.78980737315287        0.89314932205567
N           14.76345589025621        0.95572152145864        0.98417519613339
H           11.67735171444227       -0.13137658601191        0.09086111613912
H           11.66048567039259       -1.98833267438759       -1.72718115992740
H           13.57809869433023       -3.30272017766866       -3.11511852485919
H           16.17151965402889       -3.22896084848208       -3.15225138605278
H           18.75990450736209       -3.22217094921194       -3.20287392364478
H           20.68043819174571       -1.85128430839314       -1.87819304231157
H           20.67527418274651        1.92528214726520        1.73571876612398
H           18.75114735515865        3.29726310549120        3.05500383688953
H           16.16151046233671        3.23268648755104        3.07070624778238
H           13.56990974551268        3.18470268322277        3.15167001466781
H           11.65600758567284        1.74547111025548        1.88758245097486
Fe          43.09143588660717       -0.00003042903947        0.00230370090064
C           46.50138230931947       -0.00744810002637        0.04832667877516
C           45.85594023529706        1.21241463933783        0.05290602766781
C           46.53526233543498        2.47504737494095        0.07161704403068
C           45.57783834592648        3.43075879910683        0.12368963592154
C           44.31654100550548        2.74935375912824        0.13783767163071
N           44.49910110767408        1.39485204253095        0.07762408464742
C           43.09822897750490        3.39179040117335        0.24305476322275
C           41.87998537966904        2.74796578355402        0.26207516365293
C           40.62441771689939        3.42549237777197        0.38744711702090
C           39.66206929361621        2.47477356566040        0.31773324171348
N           41.68503506389065        1.39407699640715        0.13022000495297
C           40.33401012719627        1.22208067935940        0.14734909212227
C           39.66181943558378        0.00684413410884       -0.03329210606453
C           40.33226145418774       -1.21080177423930       -0.20364468047434
C           39.65876887951853       -2.46037858324296       -0.39059722210514
C           40.61874423923881       -3.41433703304351       -0.44796273043517
C           41.87437147550668       -2.74220339323547       -0.29629187486512
N           41.68206172508870       -1.38797181781451       -0.16347433576917
C           43.08952238097585       -3.39064387461263       -0.25305387230319
C           44.30731307354814       -2.75352555717421       -0.11369194927975
C           45.56463560163205       -3.44085289196503       -0.06592421799253
C           46.52438296726204       -2.48987362384563        0.01912626870095
C           45.85059787428204       -1.22412951938423        0.02283051290959
N           44.49415135927886       -1.40020327582788       -0.04344430055708
H           47.58540833749177       -0.00999498900819        0.06434378692229
H           47.60734098845880        2.59144045609009        0.05049332239310
H           45.69256752701988        4.50276958710004        0.15484787417956
H           43.10072957142453        4.47332530495572        0.31996547751641
H           40.51431839622050        4.49132153822080        0.50945827485078
H           38.59151006387477        2.59263311939224        0.36920833450228
H           38.58879925470316       -2.57361212658748       -0.46139706870656
H           40.50696802490813       -4.47928976694549       -0.57619916283711
H           43.09010008647491       -4.47184320012660       -0.33466512377700
H           45.67522523019955       -4.51327036532089       -0.09811928682786
H           47.59482505334966       -2.61122057235067        0.07187822680954
C           22.22879628431054        0.01920453440684       -0.06228001690162
C           21.00469085620110        0.01865150962208       -0.05185837745048
C           23.57464854521510        0.01758028686638       -0.06275191411501
C           24.79901309720616        0.01148101931551       -0.06426701271209
C           35.69068490131273        0.01977663107478       -0.05629119337973
C           34.46667855592007        0.01966230944759       -0.05027519926076
C           37.03698114285609        0.02230512294630       -0.05179332987849
C           38.26076968058003        0.01058319855502       -0.04329446769036
Fe          29.63264366183993       -0.01027484878730       -0.02086988655746
C           26.19834981799389        0.00416086375847       -0.05131987306790
C           26.86895581990623        0.91712623481804        0.77474748377653
C           26.19749177672457        1.85097918172673        1.62607120029421
C           27.16003168068238        2.60722020416159        2.20799406797424
C           28.41289042330655        2.13249156399464        1.70427227705575
N           28.21880115048209        1.07915241701649        0.84476484056394
C           29.62786961267982        2.71823588491598        1.99399281085746
C           30.84347134013148        2.28282286463157        1.50722249627409
C           32.09143430663641        2.92301213980738        1.79235593092702
C           33.05513916674909        2.16932377150772        1.20903250617830
N           31.04089171731493        1.16112047185212        0.74077456541036
C           32.38981067838816        1.07145568416953        0.57660385123144
C           33.06677261271310        0.01139377436500       -0.04142449248797
C           32.39678596013774       -1.06451625437546       -0.63970088694010
C           33.06848045696324       -2.16734586758640       -1.25635120116780
C           32.10655630502680       -2.95413693807966       -1.79737136029653
C           30.85385572697722       -2.32471625476079       -1.50884873836463
N           31.04706340367670       -1.17911540725967       -0.77714847558106
C           29.63892650231439       -2.78288741810679       -1.97554073794262
C           28.42308346681684       -2.18587394115924       -1.71311575174688
C           27.17501417588006       -2.66126314605523       -2.22793241412323
C           26.21062252050878       -1.87250706027720       -1.69425162913744
C           26.87565948592671       -0.92425195603103       -0.85383892819531
N           28.22468043170111       -1.10526625395344       -0.88953747746780
H           25.12777083178120        1.90893348264766        1.74793549505877
H           27.05034459422561        3.41923015047846        2.90907569483152
H           29.62665075228943        3.58717307371124        2.64282866621934
H           32.19737676564721        3.82818755689499        2.36884242555721
H           34.12241442652892        2.32242074807903        1.20525304394847
H           34.13804485712180       -2.30299126524354       -1.26933594649466
H           32.21676854617800       -3.87380266611519       -2.34963644590220
H           29.64042094498523       -3.67117020438264       -2.59764765753227
H           27.06972299029727       -3.49385988631932       -2.90514137277052
H           25.14316631400809       -1.91944559630128       -1.83879394244264

          :  Hamiltonian                  GFN1-xTB          :
         :: total energy            -208.109517430821 Eh    ::
         :: gradient norm              0.000847728593 Eh/a0 ::
         :: HOMO-LUMO gap              0.056772023279 eV    ::
         :: SCC energy              -211.487264710569 Eh    ::
         :: repulsion energy           3.478465972569 Eh    ::

    * Orbital Energies and Occupations

         #    Occupation            Energy/Eh            Energy/eV
      -------------------------------------------------------------
         1        2.0000           -0.7741837             -21.0666
       ...           ...                  ...                  ...
       182        2.0000           -0.3986096             -10.8467
       183        2.0000           -0.3983205             -10.8389
       184        1.9998           -0.3953588             -10.7583
       185        1.9922           -0.3918116             -10.6617
       186        1.9915           -0.3917270             -10.6594
       187        1.9912           -0.3916961             -10.6586
       188        1.9688           -0.3904792             -10.6255
       189        1.9505           -0.3900303             -10.6133
       190        1.9501           -0.3900229             -10.6131
       191        1.9479           -0.3899813             -10.6119
       192        1.9390           -0.3898265             -10.6077
       193        1.9361           -0.3897811             -10.6065
       194        1.3229           -0.3871765             -10.5356 (HOMO)
       195        0.3571           -0.3850902             -10.4788 (LUMO)
       196        0.3272           -0.3849902             -10.4761
       197        0.3255           -0.3849840             -10.4759
       198                         -0.3466930              -9.4340
       199                         -0.3349735              -9.1151
       200                         -0.3320684              -9.0360
       201                         -0.3291324              -8.9561
       202                         -0.3288592              -8.9487
       203                         -0.3267040              -8.8901
       204                         -0.3055109              -8.3134
       205                         -0.3051723              -8.3042
       ...                                ...                  ...
       411                          1.5071147              41.0107
      -------------------------------------------------------------
                  HL-Gap            0.0020863 Eh            0.0568 eV

Wiberg/Mayer (AO) data.
largest (>0.10) Wiberg bond orders for each atom

     #   Z sym  total        # sym  WBO       # sym  WBO       # sym  WBO
 ---------------------------------------------------------------------------
     1  26 Fe   3.096 --    25 N    0.667     7 N    0.666    12 N    0.659
                            19 N    0.659
     2   6 C    3.921 --    24 C    1.364     3 C    1.364    26 H    0.971
     3   6 C    3.925 --     2 C    1.364     7 N    1.214     4 C    1.169
     4   6 C    3.958 --     5 C    1.655     3 C    1.169    27 H    0.975
     5   6 C    3.961 --     4 C    1.655     6 C    1.170    28 H    0.975
     6   6 C    3.920 --     8 C    1.353     7 N    1.220     5 C    1.170
     7   7 N    3.383 --     6 C    1.220     3 C    1.214     1 Fe   0.666
     8   6 C    3.926 --     9 C    1.378     6 C    1.353    29 H    0.970
     9   6 C    3.918 --     8 C    1.378    12 N    1.193    10 C    1.173
    10   6 C    3.955 --    11 C    1.645     9 C    1.173    30 H    0.975
    11   6 C    3.960 --    10 C    1.645    13 C    1.183    31 H    0.974
    12   7 N    3.381 --    13 C    1.253     9 C    1.193     1 Fe   0.659
    13   6 C    3.903 --    12 N    1.253    14 C    1.250    11 C    1.183
    14   6 C    3.921 --    15 C    1.250    13 C    1.250    74 C    1.205
    15   6 C    3.904 --    19 N    1.253    14 C    1.250    16 C    1.183
    16   6 C    3.960 --    17 C    1.645    15 C    1.183    32 H    0.974
    17   6 C    3.955 --    16 C    1.645    18 C    1.173    33 H    0.975
    18   6 C    3.918 --    20 C    1.378    19 N    1.193    17 C    1.173
    19   7 N    3.381 --    15 C    1.253    18 C    1.193     1 Fe   0.659
    20   6 C    3.926 --    18 C    1.378    21 C    1.353    34 H    0.970
    21   6 C    3.920 --    20 C    1.353    25 N    1.220    22 C    1.170
    22   6 C    3.961 --    23 C    1.655    21 C    1.170    35 H    0.975
    23   6 C    3.958 --    22 C    1.655    24 C    1.169    36 H    0.975
    24   6 C    3.925 --     2 C    1.364    25 N    1.214    23 C    1.169
    25   7 N    3.383 --    21 C    1.220    24 C    1.214     1 Fe   0.667
    26   1 H    1.000 --     2 C    0.971
    27   1 H    0.998 --     4 C    0.975
    28   1 H    0.997 --     5 C    0.975
    29   1 H    1.001 --     8 C    0.970
    30   1 H    0.997 --    10 C    0.975
    31   1 H    1.002 --    11 C    0.974
    32   1 H    1.002 --    16 C    0.974
    33   1 H    0.997 --    17 C    0.975
    34   1 H    1.001 --    20 C    0.970
    35   1 H    0.997 --    22 C    0.975
    36   1 H    0.998 --    23 C    0.975
    37  26 Fe   3.104 --    61 N    0.668    43 N    0.668    48 N    0.661
                            55 N    0.661
    38   6 C    3.922 --    60 C    1.364    39 C    1.364    62 H    0.971
    39   6 C    3.924 --    38 C    1.364    43 N    1.214    40 C    1.169
    40   6 C    3.958 --    41 C    1.655    39 C    1.169    63 H    0.975
    41   6 C    3.961 --    40 C    1.655    42 C    1.170    64 H    0.975
    42   6 C    3.920 --    44 C    1.354    43 N    1.219    41 C    1.170
    43   7 N    3.384 --    42 C    1.219    39 C    1.214    37 Fe   0.668
    44   6 C    3.927 --    45 C    1.377    42 C    1.354    65 H    0.970
    45   6 C    3.917 --    44 C    1.377    48 N    1.194    46 C    1.173
    46   6 C    3.955 --    47 C    1.645    45 C    1.173    66 H    0.975
    47   6 C    3.960 --    46 C    1.645    49 C    1.183    67 H    0.974
    48   7 N    3.382 --    49 C    1.251    45 C    1.194    37 Fe   0.661
    49   6 C    3.904 --    50 C    1.252    48 N    1.251    47 C    1.183
    50   6 C    3.922 --    51 C    1.252    49 C    1.252    80 C    1.202
    51   6 C    3.904 --    50 C    1.252    55 N    1.251    52 C    1.183
    52   6 C    3.960 --    53 C    1.645    51 C    1.183    68 H    0.974
    53   6 C    3.955 --    52 C    1.645    54 C    1.173    69 H    0.975
    54   6 C    3.917 --    56 C    1.377    55 N    1.194    53 C    1.173
    55   7 N    3.382 --    51 C    1.251    54 C    1.194    37 Fe   0.661
    56   6 C    3.927 --    54 C    1.377    57 C    1.354    70 H    0.970
    57   6 C    3.920 --    56 C    1.354    61 N    1.219    58 C    1.170
    58   6 C    3.961 --    59 C    1.655    57 C    1.170    71 H    0.975
    59   6 C    3.958 --    58 C    1.655    60 C    1.169    72 H    0.975
    60   6 C    3.924 --    38 C    1.364    61 N    1.213    59 C    1.169
    61   7 N    3.384 --    57 C    1.219    60 C    1.213    37 Fe   0.668
    62   1 H    1.000 --    38 C    0.971
    63   1 H    0.998 --    40 C    0.975
    64   1 H    0.998 --    41 C    0.975
    65   1 H    1.000 --    44 C    0.970
    66   1 H    0.997 --    46 C    0.975
    67   1 H    1.002 --    47 C    0.974
    68   1 H    1.002 --    52 C    0.974
    69   1 H    0.997 --    53 C    0.975
    70   1 H    1.000 --    56 C    0.970
    71   1 H    0.998 --    58 C    0.975
    72   1 H    0.998 --    59 C    0.975
    73   6 C    3.924 --    74 C    2.445    75 C    1.329
    74   6 C    3.910 --    73 C    2.445    14 C    1.205    76 C    0.195
    75   6 C    3.918 --    76 C    2.442    73 C    1.329
    76   6 C    3.913 --    75 C    2.442    82 C    1.210    74 C    0.195
    77   6 C    3.918 --    78 C    2.445    79 C    1.326
    78   6 C    3.913 --    77 C    2.445    94 C    1.207    80 C    0.195
    79   6 C    3.924 --    80 C    2.448    77 C    1.326
    80   6 C    3.910 --    79 C    2.448    50 C    1.202    78 C    0.195
    81  26 Fe   3.060 --    92 N    0.651    87 N    0.651   105 N    0.651
                            99 N    0.651
    82   6 C    3.904 --   104 C    1.246    83 C    1.245    76 C    1.210
    83   6 C    3.905 --    87 N    1.255    82 C    1.245    84 C    1.186
    84   6 C    3.959 --    85 C    1.640    83 C    1.186   106 H    0.974
    85   6 C    3.957 --    84 C    1.640    86 C    1.177   107 H    0.975
    86   6 C    3.916 --    88 C    1.366    87 N    1.197    85 C    1.177
    87   7 N    3.370 --    83 C    1.255    86 C    1.197    81 Fe   0.651
    88   6 C    3.917 --    86 C    1.366    89 C    1.364   108 H    0.970
    89   6 C    3.916 --    88 C    1.364    92 N    1.199    90 C    1.178
    90   6 C    3.957 --    91 C    1.640    89 C    1.178   109 H    0.975
    91   6 C    3.959 --    90 C    1.640    93 C    1.186   110 H    0.974
    92   7 N    3.371 --    93 C    1.252    89 C    1.199    81 Fe   0.651
    93   6 C    3.905 --    92 N    1.252    94 C    1.248    91 C    1.186
    94   6 C    3.905 --    93 C    1.248    95 C    1.247    78 C    1.207
    95   6 C    3.905 --    99 N    1.253    94 C    1.247    96 C    1.186
    96   6 C    3.959 --    97 C    1.640    95 C    1.186   111 H    0.974
    97   6 C    3.957 --    96 C    1.640    98 C    1.177   112 H    0.975
    98   6 C    3.916 --   100 C    1.365    99 N    1.199    97 C    1.177
    99   7 N    3.370 --    95 C    1.253    98 C    1.199    81 Fe   0.651
   100   6 C    3.917 --   101 C    1.365    98 C    1.365   113 H    0.970
   101   6 C    3.916 --   100 C    1.365   105 N    1.198   102 C    1.177
   102   6 C    3.957 --   103 C    1.640   101 C    1.177   114 H    0.975
   103   6 C    3.959 --   102 C    1.640   104 C    1.186   115 H    0.974
   104   6 C    3.905 --   105 N    1.254    82 C    1.246   103 C    1.186
   105   7 N    3.370 --   104 C    1.254   101 C    1.198    81 Fe   0.651
   106   1 H    1.002 --    84 C    0.974
   107   1 H    0.997 --    85 C    0.975
   108   1 H    1.000 --    88 C    0.970
   109   1 H    0.997 --    90 C    0.975
   110   1 H    1.002 --    91 C    0.974
   111   1 H    1.002 --    96 C    0.974
   112   1 H    0.997 --    97 C    0.975
   113   1 H    1.001 --   100 C    0.970
   114   1 H    0.997 --   102 C    0.975
   115   1 H    1.002 --   103 C    0.974
 ---------------------------------------------------------------------------

           -------------------------------------------------
          | TOTAL ENERGY             -208.109517430821 Eh   |
          | GRADIENT NORM               0.000847728593 Eh/α |
          | HOMO-LUMO GAP               0.056772023279 eV   |
           -------------------------------------------------

 * finished run on 2022/07/29 at 15:58:46.495
