   * xtb version 6.5.1 (b24c23e) compiled by 'conda@728c89f4b128' on 2022-07-12
          program call               : xtb Co_m-CP_C2_3.xyz --gfn 1 --opt -T 48

   ID    Z sym.   atoms
    1   27 Co     1, 63, 129
    2    6 C      2-6, 8-12, 15-20, 22-27, 29-35, 38-42, 64-68, 70-74, 77-82,
                  84-89, 91-97, 100-104, 125-128, 130-134, 136-140, 143-148,
                  150-155, 157-163, 166-170
    3    7 N      7, 21, 28, 43, 69, 83, 90, 105, 135, 149, 156, 171
    4    8 O      13, 14, 36, 37, 75, 76, 98, 99, 141, 142, 164, 165
    5    1 H      44-62, 106-124, 172-189
########################################################################
[WARNING] Please study the warnings concerning your input carefully
-1- prog_main_parseArguments: Unknown option '-T' provided
########################################################################

          :  Hamiltonian                  GFN1-xTB          :
 * total energy  :  -358.3889910 Eh     change        0.1686828E-08 Eh
 * total energy  :  -358.7927856 Eh     change       -0.4037947E+00 Eh
 * total energy  :  -358.9813008 Eh     change       -0.1885151E+00 Eh
 * total energy  :  -359.1009987 Eh     change       -0.1196979E+00 Eh
 * total energy  :  -359.1685312 Eh     change       -0.6753250E-01 Eh
 * total energy  :  -359.2169938 Eh     change       -0.4846262E-01 Eh
 * total energy  :  -359.2560807 Eh     change       -0.3908690E-01 Eh
 * total energy  :  -359.2961082 Eh     change       -0.4002749E-01 Eh
 * total energy  :  -359.3380860 Eh     change       -0.4197786E-01 Eh
 * total energy  :  -359.3653687 Eh     change       -0.2728266E-01 Eh
 * total energy  :  -359.5272110 Eh     change       -0.1894082E-04 Eh
 * total energy  :  -359.5272265 Eh     change       -0.1554661E-04 Eh
 * total energy  :  -359.5272420 Eh     change       -0.1548763E-04 Eh
 * total energy  :  -359.5272583 Eh     change       -0.1627676E-04 Eh
 * total energy  :  -359.5272732 Eh     change       -0.1490252E-04 Eh
 * total energy  :  -359.5272784 Eh     change       -0.5260062E-05 Eh
 * total energy  :  -359.5272858 Eh     change       -0.7366456E-05 Eh
 * total energy  :  -359.5272912 Eh     change       -0.5401768E-05 Eh
 * total energy  :  -359.5272946 Eh     change       -0.3407628E-05 Eh
   *** GEOMETRY OPTIMIZATION CONVERGED AFTER 125 ITERATIONS ***

 final structure:
================
189
 xtb: 6.5.1 (b24c23e)
Co          34.34910837821595        0.01593701191064       -0.21347097539180
C           31.05561916550013       -0.23882218603814        0.43124178284266
C           31.57145980088368        1.01012465175939        0.15242891920179
C           30.78910594758191        2.20445069164672        0.05463943091417
C           31.66045626978918        3.22826245245856       -0.10699534385991
C           32.97736477755125        2.66131144519381       -0.06558574985759
N           32.90590163263822        1.29357760986955        0.01445611767203
C           34.14811311807006        3.39782153954581        0.05968133039787
C           34.07396215096160        4.87416517305523        0.14214882736620
C           33.31980460041278        5.49571368480327        1.13361444111857
C           33.25542166260002        6.88651682994308        1.20579374437925
C           32.43208641988990        7.48815829560132        2.28504057513088
O           32.44361900463361        8.82887345024464        2.28409839588743
O           31.80369517779896        6.85426485592028        3.09364825825972
C           33.94875770261793        7.66785009855975        0.28154123757786
C           34.70311597309838        7.05156117828790       -0.70465497945402
C           34.76872682490590        5.66731428113290       -0.77473313133445
C           35.38991987470957        2.78520872614239        0.16025590314724
C           36.60868962368906        3.47265537095223        0.46256910406724
C           37.60777023900413        2.56349883517780        0.35239158999687
N           35.63932294710385        1.45553907345840       -0.08226425125857
C           36.99982169310080        1.32815790935648       -0.02903251177778
C           37.71645519090281        0.22320911663047       -0.49815683216898
C           37.06919913093559       -0.93454199371856       -0.94375994507771
C           37.73464269572208       -2.02930393380443       -1.57532183857761
C           36.81303325544738       -3.01007745414173       -1.73201796689284
C           35.59377202791921       -2.52443549984910       -1.15802602294556
N           35.74856087515422       -1.21900811547278       -0.74640019939157
C           34.48284078453043       -3.31107874421721       -0.89590390015908
C           34.51461328697464       -4.75333495609475       -1.23019940645367
C           35.49145824127953       -5.59184791535260       -0.68816941991492
C           35.51467035364995       -6.94389295562284       -1.00070213842841
C           34.56554906735364       -7.47539713855539       -1.85767586312381
C           33.58235098075770       -6.64841705234734       -2.40337611542263
C           32.58102984775707       -7.25629041949634       -3.31532629505909
O           31.67489005379410       -6.38226131980827       -3.77726393037479
O           32.56205836438983       -8.42020834545927       -3.62445072957943
C           33.55693143690925       -5.29172970965961       -2.08752867740328
C           33.34459431490990       -2.79099808015209       -0.28905950376813
C           32.22775794641184       -3.57650975742562        0.14810574386752
C           31.27575052299309       -2.70748728523236        0.56315962715669
C           31.80696335954887       -1.39255435729887        0.36671344555683
N           33.09948442000645       -1.45850123644248       -0.09329343616923
H           30.00130819671594       -0.32143726192456        0.66726702956613
H           29.71217845133625        2.23523797911487        0.09996345093265
H           31.44375382105772        4.27684621673136       -0.23061152594491
H           32.78872217516832        4.90570434907799        1.87253337987162
H           31.88448375710969        9.14172485968415        3.01382470609208
H           33.89558935057534        8.74831165414142        0.33806599670462
H           35.24394080799721        7.65255549377901       -1.42695746332006
H           35.35135796888299        5.19152664114138       -1.55569369039782
H           36.67914869335908        4.51383990166492        0.73245150920367
H           38.66647981760882        2.70890797400769        0.49236923759249
H           38.77418021375113       -2.03433200488431       -1.85901085785750
H           36.94086001377346       -3.98060574028207       -2.18283768447452
H           36.22517309299128       -5.18200080002283       -0.00322859971288
H           36.27673835027687       -7.58298298222260       -0.56962600433131
H           34.56982980800638       -8.52911119165392       -2.11272295775712
H           31.06092460138819       -6.85514308298141       -4.36228860084678
H           32.79985241508021       -4.64919644905426       -2.52137028598873
H           32.19282590131570       -4.65390131695957        0.13888183375327
H           30.29114939972144       -2.91729585001900        0.94960058459415
Co          55.86611709748718        0.13238585592447       -0.10815703720006
C           59.17265929546300       -0.03461945469339        0.49315703430403
C           58.56441811395371       -1.10868355401828       -0.12313673734370
C           59.25412389127147       -2.27601264441334       -0.58170313097002
C           58.30623093424980       -3.15513373801654       -0.98442992838998
C           57.03593958270633       -2.53667881076743       -0.73647027965429
N           57.21023810812983       -1.25293362659818       -0.28512713145327
C           55.81592150466196       -3.19957155574485       -0.77111949973818
C           55.78188640811264       -4.64618381187576       -1.08289087277195
C           56.51012842488031       -5.55634942281638       -0.32158704485223
C           56.47143555460568       -6.91792727626664       -0.61868364943055
C           57.26934929914185       -7.83736076914204        0.23151083464327
O           57.15788427075471       -9.12600495377012       -0.12168507112968
O           57.95882242368116       -7.48389018969790        1.15350753136905
C           55.70076249892732       -7.37955336943372       -1.68562483370980
C           54.97283363040579       -6.47592052641832       -2.44390281057170
C           55.00928471659572       -5.12125317939928       -2.14597871574032
C           54.62400535423937       -2.55012095966548       -0.47859006989783
C           53.35772888922239       -3.20277106704977       -0.33785230179956
C           52.42827091988445       -2.22575238442768       -0.20030484544229
N           54.47352000589049       -1.18829143660799       -0.36898803984197
C           53.12522323360441       -0.98107385474509       -0.27186272114171
C           52.49589502971979        0.25836513611806       -0.42342550771266
C           53.23360226125615        1.44304140062183       -0.52688066236009
C           52.66641811133459        2.71569162077283       -0.84005916554690
C           53.65378527746937        3.63213422815116       -0.68989398046355
C           54.81700060218741        2.91657694505954       -0.25852732664788
N           54.56378559605248        1.56314768360421       -0.24248046252112
C           55.96865520081312        3.51084998296415        0.23543516286222
C           56.03180370729898        4.98489565726451        0.35745803743602
C           55.08592096812740        5.67840089494223        1.11626569995250
C           55.14990079700397        7.05967441564162        1.23531175350963
C           56.15643216720191        7.76606039046979        0.59841635876366
C           57.10864023338486        7.08459840936376       -0.16132554385047
C           58.17387339267928        7.87726723135217       -0.82552927483745
O           59.04266815720037        7.13122518171196       -1.52324885944749
O           58.27047205765622        9.07579371224264       -0.75792549298167
C           57.04615715031213        5.69785045429725       -0.27903244018967
C           57.06032842502282        2.75599544354249        0.65024260441607
C           58.22649954337145        3.29389450348421        1.28787935143568
C           59.12063597234213        2.28173265989864        1.38800932195043
C           58.50266997889155        1.12895050901721        0.80580302430294
N           57.21599516123175        1.41495723562182        0.42054412034403
H           60.23273141016981       -0.09492086085214        0.70921278761970
H           60.32647709664519       -2.38900703623581       -0.58893134880947
H           58.44176775115321       -4.13969564180593       -1.40168280856385
H           57.10080979625744       -5.21915619698296        0.52314265753183
H           57.70503991693010       -9.65833119266182        0.47856479243532
H           55.67388647891793       -8.43762013803606       -1.91627307271512
H           54.37250529978342       -6.82758715534740       -3.27537794755109
H           54.44649455952396       -4.41861653383849       -2.75037094783339
H           53.21048731935031       -4.27057418154131       -0.33499361259071
H           51.36292564591803       -2.32553239872199       -0.07266583876762
H           51.64429892000747        2.87336038604068       -1.14324201954141
H           53.60669039454033        4.69715978757954       -0.84875758128656
H           54.30709647389364        5.12628767619271        1.63031725333537
H           54.41121252358086        7.58355738690365        1.83114268970868
H           56.22100466523576        8.84512046666335        0.68099276962770
H           59.70233432847555        7.72086609019887       -1.92333335710197
H           57.77906185646168        5.17245019782775       -0.87986069494644
H           58.33298864296643        4.31560860762213        1.61471663358290
H           60.11786243521664        2.29935633866001        1.79789760009549
C           39.11662417784213        0.29774207922660       -0.58079007638969
C           40.33038076978112        0.36603805869877       -0.65931280028702
C           49.88107018848869        0.35757667834560       -0.60803693229079
C           51.09539180827947        0.31159065875604       -0.51994537053474
Co          45.10593084640412        0.48371421963993       -0.88454479673658
C           41.72864440882172        0.43141114124915       -0.76285509141944
C           42.39010247320617       -0.46403744595215       -1.61305318250045
C           41.73046838049988       -1.36105518267325       -2.50692515926416
C           42.68970420807487       -2.15532474702594       -3.04300061732332
C           43.92935660094344       -1.76234478022599       -2.44372171410236
N           43.73996412665421       -0.66104760445443       -1.63896259724908
C           45.10399337261627       -2.49901187717474       -2.49733509422156
C           45.12298045595161       -3.78919671489157       -3.22040047740380
C           44.21598301914453       -4.79758419470856       -2.90538635545190
C           44.24111261332047       -6.01107200263184       -3.59114017511715
C           43.24375277705687       -7.04402461735427       -3.21205328629014
O           43.36232937589114       -8.18322535624598       -3.90813051950341
O           42.39900645211422       -6.89456199390003       -2.36662643128756
C           45.17944790955723       -6.22477536163880       -4.60072556150148
C           46.08583583486087       -5.22388865306273       -4.91428385620173
C           46.06142556281578       -4.01684108620328       -4.23075882200035
C           46.26038871240113       -2.07953956045069       -1.84808619006113
C           47.44954445124086       -2.86232921250989       -1.71010621501264
C           48.38953969987067       -2.05045992107519       -1.16480647981625
N           46.45696047074730       -0.81947748054477       -1.34116124290323
C           47.77596844310896       -0.77402768494483       -0.98255649894468
C           48.48260636811936        0.40589525586342       -0.72328188186106
C           47.82880052385992        1.64191562393908       -0.63858995821103
C           48.49750028336129        2.89956005891481       -0.53926543516187
C           47.54182151157042        3.83581143021586       -0.31909286150449
C           46.29377092802167        3.13813389206153       -0.24452447093096
N           46.47780284909568        1.80336238933576       -0.52857171307244
C           45.11267123915232        3.68177587992055        0.24055265588678
C           45.09442569786881        5.08446674659797        0.71179512778309
C           44.19227978444277        5.99791543599761        0.16064413570651
C           44.16742086766816        7.31602084842953        0.59382285542128
C           45.03667475099823        7.73739104972432        1.58629514127019
C           45.93697323743913        6.83232278359695        2.15045065793327
C           46.84736383707089        7.32052406380802        3.21719634161544
O           47.67461966326255        6.37711795811512        3.68972599749236
O           46.86102384471074        8.45055715205203        3.63301071043477
C           45.96538604701010        5.50996034538717        1.71288289638517
C           43.94699038645211        2.93019720141283        0.34098161694150
C           42.75041791228254        3.36157267422443        0.99596626912483
C           41.80928607618223        2.41540266294189        0.75198409774048
C           42.42837554291050        1.42184304775519       -0.06580226612708
N           43.75179190736204        1.70971678019341       -0.25512889277198
H           40.67043632136879       -1.36491499061516       -2.70090387953600
H           42.57456297499829       -2.94400922982800       -3.76830457114454
H           43.49239547754206       -4.65844992033999       -2.10962204282734
H           42.67898075743594       -8.80344949070741       -3.60593286263826
H           45.19609871082920       -7.16767846570145       -5.13369157384915
H           46.81702453607396       -5.38251046272743       -5.69883136282577
H           46.76445513251689       -3.23322980308714       -4.49029797914051
H           47.54283033745478       -3.89951517190728       -1.98827494451367
H           49.41454148944329       -2.27956529806901       -0.92441331166864
H           49.56246093435502        3.03686774668801       -0.62969055271951
H           47.66427024867325        4.90014880191104       -0.20193754313647
H           43.51836326851912        5.67183631904846       -0.62370232694132
H           43.46615692269248        8.01493807718378        0.15238676926398
H           45.03005766859275        8.76318689566284        1.93716436679252
H           48.22915015370815        6.77207076704991        4.38216403625817
H           46.65255893338674        4.80550661678238        2.16630599203716
H           42.65551789339244        4.26574445754107        1.57510191750123
H           40.78178139712127        2.38998772946639        1.07646066782556

          :  Hamiltonian                  GFN1-xTB          :
         :: total energy            -359.527294622779 Eh    ::
         :: gradient norm              0.000586589161 Eh/a0 ::
         :: HOMO-LUMO gap              0.016277789463 eV    ::
         :: SCC energy              -364.623865042047 Eh    ::
         :: repulsion energy           5.272384111105 Eh    ::

    * Orbital Energies and Occupations

         #    Occupation            Energy/Eh            Energy/eV
      -------------------------------------------------------------
         1        2.0000           -0.8379272             -22.8012
       ...           ...                  ...                  ...
       308        2.0000           -0.4022337             -10.9453
       309        2.0000           -0.4013896             -10.9224
       310        2.0000           -0.4007987             -10.9063
       311        1.9999           -0.3988497             -10.8533
       312        1.9999           -0.3982711             -10.8375
       313        1.9999           -0.3979969             -10.8300
       314        1.9998           -0.3977767             -10.8241
       315        1.9998           -0.3977712             -10.8239
       316        1.9998           -0.3976448             -10.8205
       317        1.9998           -0.3976399             -10.8203
       318        1.8252           -0.3911636             -10.6441
       319        1.1604           -0.3891193             -10.5885
       320        1.1492           -0.3890954             -10.5878 (HOMO)
       321        0.8663           -0.3884972             -10.5715 (LUMO)
       322                         -0.3513815              -9.5616
       323                         -0.3392262              -9.2308
       324                         -0.3386996              -9.2165
       325                         -0.3362290              -9.1493
       326                         -0.3358026              -9.1377
       327                         -0.3275862              -8.9141
       328                         -0.3168600              -8.6222
       329                         -0.3152326              -8.5779
       330                         -0.3143556              -8.5541
       331                         -0.3137747              -8.5382
       ...                                ...                  ...
       659                          1.3288190              36.1590
      -------------------------------------------------------------
                  HL-Gap            0.0005982 Eh            0.0163 eV

Wiberg/Mayer (AO) data.
largest (>0.10) Wiberg bond orders for each atom

     #   Z sym  total        # sym  WBO       # sym  WBO       # sym  WBO
 ---------------------------------------------------------------------------
     1  27 Co   3.036 --    43 N    0.636     7 N    0.636    28 N    0.631
                            21 N    0.630
     2   6 C    3.924 --    42 C    1.369     3 C    1.359    44 H    0.970
     3   6 C    3.923 --     2 C    1.359     7 N    1.205     4 C    1.175
     4   6 C    3.959 --     5 C    1.649     3 C    1.175    45 H    0.975
     5   6 C    3.963 --     4 C    1.649     6 C    1.174    46 H    0.972
     6   6 C    3.921 --     8 C    1.321     7 N    1.210     5 C    1.174
     7   7 N    3.343 --     6 C    1.210     3 C    1.205     1 Co   0.636
     8   6 C    3.927 --    18 C    1.325     6 C    1.321     9 C    1.031
     9   6 C    3.988 --    10 C    1.406    17 C    1.386     8 C    1.031
                            15 C    0.102
    10   6 C    3.983 --     9 C    1.406    11 C    1.397    47 H    0.967
                            16 C    0.104
    11   6 C    3.988 --    10 C    1.397    15 C    1.391    12 C    1.004
    12   6 C    3.836 --    14 O    1.693    13 O    1.091    11 C    1.004
    13   8 O    2.099 --    12 C    1.091    48 H    0.838    14 O    0.129
    14   8 O    1.962 --    12 C    1.693    13 O    0.129
    15   6 C    3.986 --    16 C    1.447    11 C    1.391    49 H    0.970
                             9 C    0.102
    16   6 C    3.994 --    15 C    1.447    17 C    1.442    50 H    0.972
                            10 C    0.104
    17   6 C    3.985 --    16 C    1.442     9 C    1.386    51 H    0.972
    18   6 C    3.918 --     8 C    1.325    21 N    1.199    19 C    1.183
    19   6 C    3.958 --    20 C    1.635    18 C    1.183    52 H    0.973
    20   6 C    3.961 --    19 C    1.635    22 C    1.190    53 H    0.970
    21   7 N    3.344 --    22 C    1.227    18 C    1.199     1 Co   0.630
    22   6 C    3.908 --    23 C    1.261    21 N    1.227    20 C    1.190
    23   6 C    3.929 --    22 C    1.261    24 C    1.254   125 C    1.189
    24   6 C    3.907 --    23 C    1.254    28 N    1.237    25 C    1.190
    25   6 C    3.961 --    26 C    1.637    24 C    1.190    54 H    0.969
    26   6 C    3.958 --    25 C    1.637    27 C    1.179    55 H    0.972
    27   6 C    3.918 --    29 C    1.338    28 N    1.188    26 C    1.179
    28   7 N    3.342 --    24 C    1.237    27 C    1.188     1 Co   0.631
    29   6 C    3.927 --    27 C    1.338    39 C    1.309    30 C    1.031
    30   6 C    3.988 --    38 C    1.404    31 C    1.387    29 C    1.031
                            33 C    0.102
    31   6 C    3.986 --    32 C    1.440    30 C    1.387    56 H    0.972
    32   6 C    3.994 --    33 C    1.450    31 C    1.440    57 H    0.972
                            38 C    0.104
    33   6 C    3.985 --    32 C    1.450    34 C    1.387    58 H    0.969
                            30 C    0.102
    34   6 C    3.988 --    38 C    1.401    33 C    1.387    35 C    1.005
    35   6 C    3.836 --    37 O    1.693    36 O    1.090    34 C    1.005
    36   8 O    2.099 --    35 C    1.090    59 H    0.838    37 O    0.129
    37   8 O    1.961 --    35 C    1.693    36 O    0.129
    38   6 C    3.983 --    30 C    1.404    34 C    1.401    60 H    0.969
                            32 C    0.104
    39   6 C    3.920 --    29 C    1.309    43 N    1.220    40 C    1.177
    40   6 C    3.964 --    41 C    1.649    39 C    1.177    61 H    0.973
    41   6 C    3.959 --    40 C    1.649    42 C    1.173    62 H    0.975
    42   6 C    3.923 --     2 C    1.369    43 N    1.195    41 C    1.173
    43   7 N    3.345 --    39 C    1.220    42 C    1.195     1 Co   0.636
    44   1 H    1.000 --     2 C    0.970
    45   1 H    0.997 --     4 C    0.975
    46   1 H    1.003 --     5 C    0.972
    47   1 H    1.008 --    10 C    0.967
    48   1 H    0.872 --    13 O    0.838
    49   1 H    1.005 --    15 C    0.970
    50   1 H    1.002 --    16 C    0.972
    51   1 H    1.004 --    17 C    0.972
    52   1 H    1.003 --    19 C    0.973
    53   1 H    1.005 --    20 C    0.970
    54   1 H    1.005 --    25 C    0.969
    55   1 H    1.003 --    26 C    0.972
    56   1 H    1.005 --    31 C    0.972
    57   1 H    1.001 --    32 C    0.972
    58   1 H    1.005 --    33 C    0.969
    59   1 H    0.873 --    36 O    0.838
    60   1 H    1.007 --    38 C    0.969
    61   1 H    1.003 --    40 C    0.973
    62   1 H    0.997 --    41 C    0.975
    63  27 Co   3.041 --    69 N    0.637   105 N    0.637    83 N    0.630
                            90 N    0.630
    64   6 C    3.933 --   104 C    1.368    65 C    1.361   106 H    0.970
    65   6 C    3.923 --    64 C    1.361    69 N    1.203    66 C    1.174
    66   6 C    3.959 --    67 C    1.650    65 C    1.174   107 H    0.975
    67   6 C    3.963 --    66 C    1.650    68 C    1.174   108 H    0.972
    68   6 C    3.922 --    70 C    1.321    69 N    1.210    67 C    1.174
    69   7 N    3.343 --    68 C    1.210    65 C    1.203    63 Co   0.637
    70   6 C    3.928 --    80 C    1.325    68 C    1.321    71 C    1.032
    71   6 C    3.988 --    72 C    1.406    79 C    1.385    70 C    1.032
                            77 C    0.102
    72   6 C    3.983 --    71 C    1.406    73 C    1.397   109 H    0.967
                            78 C    0.103
    73   6 C    3.988 --    72 C    1.397    77 C    1.391    74 C    1.004
    74   6 C    3.836 --    76 O    1.693    75 O    1.090    73 C    1.004
    75   8 O    2.099 --    74 C    1.090   110 H    0.838    76 O    0.129
    76   8 O    1.962 --    74 C    1.693    75 O    0.129
    77   6 C    3.986 --    78 C    1.447    73 C    1.391   111 H    0.970
                            71 C    0.102
    78   6 C    3.994 --    77 C    1.447    79 C    1.442   112 H    0.972
                            72 C    0.103
    79   6 C    3.985 --    78 C    1.442    71 C    1.385   113 H    0.972
    80   6 C    3.926 --    70 C    1.325    83 N    1.198    81 C    1.183
    81   6 C    3.958 --    82 C    1.634    80 C    1.183   114 H    0.973
    82   6 C    3.962 --    81 C    1.634    84 C    1.191   115 H    0.968
    83   7 N    3.344 --    84 C    1.227    80 C    1.198    63 Co   0.630
    84   6 C    3.907 --    85 C    1.261    83 N    1.227    82 C    1.191
    85   6 C    3.930 --    84 C    1.261    86 C    1.254   128 C    1.189
    86   6 C    3.907 --    85 C    1.254    90 N    1.236    87 C    1.192
    87   6 C    3.961 --    88 C    1.635    86 C    1.192   116 H    0.969
    88   6 C    3.957 --    87 C    1.635    89 C    1.181   117 H    0.973
    89   6 C    3.919 --    91 C    1.335    90 N    1.190    88 C    1.181
    90   7 N    3.342 --    86 C    1.236    89 C    1.190    63 Co   0.630
    91   6 C    3.928 --    89 C    1.335   101 C    1.311    92 C    1.032
    92   6 C    3.988 --   100 C    1.403    93 C    1.387    91 C    1.032
                            95 C    0.102
    93   6 C    3.986 --    94 C    1.440    92 C    1.387   118 H    0.972
    94   6 C    3.994 --    95 C    1.450    93 C    1.440   119 H    0.972
                           100 C    0.104
    95   6 C    3.984 --    94 C    1.450    96 C    1.387   120 H    0.969
                            92 C    0.102
    96   6 C    3.988 --   100 C    1.401    95 C    1.387    97 C    1.005
    97   6 C    3.836 --    99 O    1.693    98 O    1.090    96 C    1.005
    98   8 O    2.099 --    97 C    1.090   121 H    0.838    99 O    0.129
    99   8 O    1.962 --    97 C    1.693    98 O    0.129
   100   6 C    3.983 --    92 C    1.403    96 C    1.401   122 H    0.969
                            94 C    0.104
   101   6 C    3.921 --    91 C    1.311   105 N    1.218   102 C    1.177
   102   6 C    3.964 --   103 C    1.649   101 C    1.177   123 H    0.973
   103   6 C    3.959 --   102 C    1.649   104 C    1.173   124 H    0.975
   104   6 C    3.924 --    64 C    1.368   105 N    1.196   103 C    1.173
   105   7 N    3.344 --   101 C    1.218   104 C    1.196    63 Co   0.637
   106   1 H    1.000 --    64 C    0.970
   107   1 H    0.997 --    66 C    0.975
   108   1 H    1.003 --    67 C    0.972
   109   1 H    1.008 --    72 C    0.967
   110   1 H    0.872 --    75 O    0.838
   111   1 H    1.005 --    77 C    0.970
   112   1 H    1.002 --    78 C    0.972
   113   1 H    1.005 --    79 C    0.972
   114   1 H    1.003 --    81 C    0.973
   115   1 H    1.005 --    82 C    0.968
   116   1 H    1.004 --    87 C    0.969
   117   1 H    1.003 --    88 C    0.973
   118   1 H    1.005 --    93 C    0.972
   119   1 H    1.001 --    94 C    0.972
   120   1 H    1.005 --    95 C    0.969
   121   1 H    0.873 --    98 O    0.838
   122   1 H    1.008 --   100 C    0.969
   123   1 H    1.003 --   102 C    0.973
   124   1 H    0.997 --   103 C    0.975
   125   6 C    3.922 --   126 C    2.557    23 C    1.189
   126   6 C    3.932 --   125 C    2.557   130 C    1.193
   127   6 C    3.932 --   128 C    2.558   151 C    1.193
   128   6 C    3.923 --   127 C    2.558    85 C    1.189
   129  27 Co   3.092 --   135 N    0.634   156 N    0.633   149 N    0.627
                           171 N    0.627
   130   6 C    3.921 --   170 C    1.259   131 C    1.248   126 C    1.193
   131   6 C    3.909 --   130 C    1.248   135 N    1.240   132 C    1.193
   132   6 C    3.960 --   133 C    1.633   131 C    1.193   172 H    0.969
   133   6 C    3.960 --   132 C    1.633   134 C    1.182   173 H    0.972
   134   6 C    3.917 --   136 C    1.331   135 N    1.189   133 C    1.182
   135   7 N    3.338 --   131 C    1.240   134 C    1.189   129 Co   0.634
   136   6 C    3.927 --   134 C    1.331   146 C    1.310   137 C    1.035
   137   6 C    3.988 --   138 C    1.405   145 C    1.384   136 C    1.035
                           143 C    0.101
   138   6 C    3.982 --   137 C    1.405   139 C    1.397   174 H    0.967
                           144 C    0.103
   139   6 C    3.988 --   138 C    1.397   143 C    1.391   140 C    1.004
   140   6 C    3.836 --   142 O    1.692   141 O    1.092   139 C    1.004
   141   8 O    2.100 --   140 C    1.092   175 H    0.837   142 O    0.129
   142   8 O    1.961 --   140 C    1.692   141 O    0.129
   143   6 C    3.985 --   144 C    1.446   139 C    1.391   176 H    0.970
                           137 C    0.101
   144   6 C    3.994 --   143 C    1.446   145 C    1.443   177 H    0.972
                           138 C    0.103
   145   6 C    3.984 --   144 C    1.443   137 C    1.384   178 H    0.972
   146   6 C    3.917 --   136 C    1.310   149 N    1.205   147 C    1.188
   147   6 C    3.960 --   148 C    1.629   146 C    1.188   179 H    0.973
   148   6 C    3.960 --   147 C    1.629   150 C    1.194   180 H    0.968
   149   7 N    3.339 --   150 C    1.226   146 C    1.205   129 Co   0.627
   150   6 C    3.909 --   151 C    1.258   149 N    1.226   148 C    1.194
   151   6 C    3.922 --   150 C    1.258   152 C    1.250   127 C    1.193
   152   6 C    3.910 --   151 C    1.250   156 N    1.239   153 C    1.193
   153   6 C    3.960 --   154 C    1.633   152 C    1.193   181 H    0.969
   154   6 C    3.960 --   153 C    1.633   155 C    1.182   182 H    0.973
   155   6 C    3.917 --   157 C    1.331   156 N    1.190   154 C    1.182
   156   7 N    3.338 --   152 C    1.239   155 C    1.190   129 Co   0.633
   157   6 C    3.926 --   155 C    1.331   167 C    1.312   158 C    1.033
   158   6 C    3.988 --   166 C    1.403   159 C    1.386   157 C    1.033
                           161 C    0.102
   159   6 C    3.984 --   160 C    1.441   158 C    1.386   183 H    0.972
   160   6 C    3.994 --   161 C    1.449   159 C    1.441   184 H    0.972
                           166 C    0.103
   161   6 C    3.984 --   160 C    1.449   162 C    1.388   185 H    0.969
                           158 C    0.102
   162   6 C    3.988 --   166 C    1.401   161 C    1.388   163 C    1.004
   163   6 C    3.836 --   165 O    1.694   164 O    1.090   162 C    1.004
   164   8 O    2.099 --   163 C    1.090   186 H    0.838   165 O    0.129
   165   8 O    1.962 --   163 C    1.694   164 O    0.129
   166   6 C    3.984 --   158 C    1.403   162 C    1.401   187 H    0.968
                           160 C    0.103
   167   6 C    3.917 --   157 C    1.312   171 N    1.205   168 C    1.188
   168   6 C    3.960 --   169 C    1.629   167 C    1.188   188 H    0.974
   169   6 C    3.960 --   168 C    1.629   170 C    1.194   189 H    0.970
   170   6 C    3.909 --   130 C    1.259   171 N    1.226   169 C    1.194
   171   7 N    3.339 --   170 C    1.226   167 C    1.205   129 Co   0.627
   172   1 H    1.004 --   132 C    0.969
   173   1 H    1.003 --   133 C    0.972
   174   1 H    1.008 --   138 C    0.967
   175   1 H    0.872 --   141 O    0.837
   176   1 H    1.005 --   143 C    0.970
   177   1 H    1.001 --   144 C    0.972
   178   1 H    1.005 --   145 C    0.972
   179   1 H    1.003 --   147 C    0.973
   180   1 H    1.005 --   148 C    0.968
   181   1 H    1.005 --   153 C    0.969
   182   1 H    1.003 --   154 C    0.973
   183   1 H    1.004 --   159 C    0.972
   184   1 H    1.001 --   160 C    0.972
   185   1 H    1.005 --   161 C    0.969
   186   1 H    0.872 --   164 O    0.838
   187   1 H    1.008 --   166 C    0.968
   188   1 H    1.003 --   168 C    0.974
   189   1 H    1.004 --   169 C    0.970
 ---------------------------------------------------------------------------

           -------------------------------------------------
          | TOTAL ENERGY             -359.527294622779 Eh   |
          | GRADIENT NORM               0.000586589161 Eh/α |
          | HOMO-LUMO GAP               0.016277789463 eV   |
           -------------------------------------------------

 * finished run on 2022/07/29 at 23:04:06.987
