   * xtb version 6.5.1 (b24c23e) compiled by 'conda@728c89f4b128' on 2022-07-12
          program call               : xtb Zn_BSA_C4_2.xyz --gfn 1 --opt -T 48

   ID    Z sym.   atoms
    1   30 Zn     1, 65
    2    6 C      2-6, 8-12, 17-21, 23-28, 30-34, 39-44, 66-70, 72-76, 81-85,
                  87-92, 94-98, 103-108, 129-132
    3    7 N      7, 22, 29, 45, 71, 86, 93, 109
    4   16 S      13, 35, 77, 99
    5    8 O      14-16, 36-38, 78-80, 100-102
    6    1 H      46-64, 110-128
########################################################################
[WARNING] Please study the warnings concerning your input carefully
-1- prog_main_parseArguments: Unknown option '-T' provided
########################################################################

          :  Hamiltonian                  GFN1-xTB          :
 * total energy  :  -261.7493508 Eh     change       -0.6149889E-09 Eh
 * total energy  :  -261.9168899 Eh     change       -0.1675391E+00 Eh
 * total energy  :  -261.9884401 Eh     change       -0.7155022E-01 Eh
 * total energy  :  -262.0165546 Eh     change       -0.2811451E-01 Eh
 * total energy  :  -262.0296500 Eh     change       -0.1309532E-01 Eh
 * total energy  :  -262.0374924 Eh     change       -0.7842413E-02 Eh
 * total energy  :  -262.0434049 Eh     change       -0.5912576E-02 Eh
 * total energy  :  -262.0481846 Eh     change       -0.4779707E-02 Eh
 * total energy  :  -262.0524010 Eh     change       -0.4216356E-02 Eh
 * total energy  :  -262.0549471 Eh     change       -0.2546144E-02 Eh
 * total energy  :  -262.0646999 Eh     change       -0.8592773E-05 Eh
 * total energy  :  -262.0647170 Eh     change       -0.1706697E-04 Eh
 * total energy  :  -262.0647256 Eh     change       -0.8561803E-05 Eh
 * total energy  :  -262.0647352 Eh     change       -0.9597724E-05 Eh
 * total energy  :  -262.0647476 Eh     change       -0.1245793E-04 Eh
 * total energy  :  -262.0647543 Eh     change       -0.6663430E-05 Eh
 * total energy  :  -262.0647623 Eh     change       -0.8028838E-05 Eh
 * total energy  :  -262.0647677 Eh     change       -0.5329166E-05 Eh
 * total energy  :  -262.0647707 Eh     change       -0.3068648E-05 Eh
   *** GEOMETRY OPTIMIZATION CONVERGED AFTER 58 ITERATIONS ***

 final structure:
================
132
 xtb: 6.5.1 (b24c23e)
Zn          16.99653334526407        0.02015041029170        0.05352322760404
C           13.58845068848306        0.11463040371325        0.09826885349890
C           14.21480854552572       -0.19880520741186        1.29835608962996
C           13.53668274752015       -0.50982400600848        2.52580641423600
C           14.49227841271122       -0.75612714547786        3.45599516683188
C           15.76757540381502       -0.58680209248772        2.80996146323357
N           15.56373913181671       -0.25959502760224        1.50181177941989
C           17.01770848313307       -0.75633897792832        3.41777773195677
C           17.02646025739884       -1.09472541150446        4.86206437480135
C           16.48130545877080       -0.21164847931775        5.79779965211153
C           16.49022628827417       -0.52197065039807        7.14763884484462
C           17.04461679215135       -1.72651492706724        7.54941273737615
S           17.06907395112968       -2.12072749589791        9.25694377388254
O           17.00026645068592       -0.93147067376127       10.05396343241755
O           15.63398670251228       -2.87803323616473        9.34633901234409
O           18.09485723293984       -3.07964223598417        9.54692942325850
C           17.59368883419789       -2.62259937755611        6.64642389320045
C           17.58311313371205       -2.29953132343476        5.29971628742398
C           18.25978852133672       -0.63501433877416        2.78392830114895
C           19.53813291431402       -0.75278570727705        3.43017082476551
C           20.48630437516799       -0.55692394627282        2.47887603034302
N           18.45574088730311       -0.35581937984478        1.45843045992276
C           19.79846508095190       -0.30959026937573        1.24572015743249
C           20.43176747229328       -0.06367311192029        0.01115170335150
C           19.78025595968780        0.20660681339046       -1.20887469575389
C           20.44817710924937        0.41626407287687       -2.45975855819766
C           19.48704828634917        0.65506977547261       -3.38804901965385
C           18.22124772883801        0.60348671739061       -2.70942741489091
N           18.43648463389195        0.31722936770274       -1.38836075002688
C           16.97176277765438        0.79127249363241       -3.31167247376824
C           16.96246841678499        1.12948675270932       -4.75612023572665
C           16.34435863391841        0.27979861043280       -5.67706606004777
C           16.33302394256929        0.59256322637256       -7.02642245199592
C           16.94397159494789        1.76417341553492       -7.44280008285678
S           16.92243831822462        2.17143292760885       -9.14829799776162
O           17.06839233603947        3.58490003758730       -9.34493362995713
O           18.32295571625730        1.47667148698762       -9.58949279388311
O           15.84572125547364        1.49274732272138       -9.80492935079918
C           17.56059739081584        2.62971150978306       -6.55369270412137
C           17.56853786736209        2.30510485315308       -5.20733225841185
C           15.73038823304031        0.69195434832949       -2.67143324448197
C           14.44990193313358        0.93249248634174       -3.28388162832002
C           13.50699450778148        0.74099827405359       -2.32829040271043
C           14.19888052327907        0.39263529167767       -1.11861290232182
N           15.54317815920350        0.37715772091629       -1.35774031972712
H           12.50343030620097        0.14537742672749        0.11305133456291
H           12.46523231051827       -0.54094756632436        2.64633966223328
H           14.35063677033547       -1.03931619444013        4.48669090425804
H           16.06450074126962        0.73153730861786        5.46419353588191
H           16.08069279909854        0.16040321195906        7.88182216495497
H           15.49804324945366       -3.22951689984414       10.23459003709323
H           18.02350960491251       -3.55301831603248        6.99566166505085
H           17.99769467093895       -2.99150498681449        4.57588222893573
H           19.69001461640398       -0.94601784964116        4.47985377209723
H           21.55821997683812       -0.57064897491783        2.59576250117917
H           21.51611364632182        0.37612688877451       -2.60381392710449
H           19.62157953802340        0.83684263213301       -4.44214738278264
H           15.88253033286364       -0.63811547408266       -5.33248827524093
H           15.85620225086989       -0.05860172918042       -7.74817500737686
H           18.65848893799950        1.88832496699335      -10.39540407537457
H           18.01792548386241        3.54360755829484       -6.91162077103150
H           18.03367043198985        2.97510959900408       -4.49361510646662
H           14.29701980288521        1.22265140557089       -4.31099916308767
H           12.43621329721328        0.83254404983491       -2.42055917431633
Zn          30.47316595219425        0.03824275975094       -0.04228879664336
C           33.88128853554713        0.14260229065496       -0.04871817092729
C           33.25495438374117        0.29452991011218       -1.27974016844843
C           33.93312931947401        0.45885149417677       -2.53524242675534
C           32.97757748351500        0.57361784086291       -3.49066465913047
C           31.70224957329096        0.49241826196893       -2.82782334662392
N           31.90602704769933        0.31324446131029       -1.49131505602197
C           30.45216635642010        0.55954463182130       -3.45534693848705
C           30.44353283668023        0.77853824035390       -4.92250022741679
C           30.98860909505399        1.94483093396778       -5.46588562564879
C           30.97978500744011        2.15495753339954       -6.83490682713780
C           30.42558858281302        1.18387430253879       -7.65317681831127
S           30.40126226151389        1.44813266096450       -9.38558113375439
O           30.46953129092743        2.84768793995489       -9.68705680161648
O           31.83669198991232        0.77799796827404       -9.74814786370239
O           29.37589111001195        0.66366358529402      -10.00932632522194
C           29.87659725917459        0.01759119739572       -7.14502064169393
C           29.88706229086049       -0.17952988521253       -5.77420221170441
C           29.21001862177643        0.43825368879694       -2.82161578450218
C           27.93172405752751        0.56765247136653       -3.46573048362183
C           26.98348420589334        0.39812117258056       -2.50944507072920
N           29.01397064396766        0.20789711067974       -1.48678585732228
C           27.67123958722945        0.17232910024046       -1.27212656909124
C           27.03790088414473       -0.05538745399610       -0.03409563663658
C           27.68940444054859       -0.25498891017567        1.19947481392780
C           27.02146358341101       -0.52240156448247        2.43928720311047
C           27.98255059157348       -0.64330958913313        3.39017537571215
C           29.24836361092735       -0.44043835547163        2.74055945107982
N           29.03318921429170       -0.21847343968390        1.40718204976950
C           30.49777525276426       -0.48823109219443        3.36971454411381
C           30.50691883657705       -0.70739291736598        4.83695340346658
C           31.12492826807835       -1.83714718244946        5.37905771075504
C           31.13621308788921       -2.04473420863724        6.74853593511772
C           30.52529378184162       -1.10966158005022        7.56812975147218
S           30.54708645806384       -1.36115452152039        9.30349290813998
O           30.40076810552818       -0.12041055949812       10.00847849041606
O           29.14687800721065       -2.17008547648525        9.45764634967187
O           31.62416116493193       -2.23420049422363        9.66220600849510
C           29.90872887902985        0.02303960156124        7.06144911236465
C           29.90085080060610        0.21853275937948        5.69037404880766
C           31.73920731422565       -0.34391003329481        2.73822294519688
C           33.01962931324857       -0.34642027149696        3.39634192080397
C           33.96260575363907       -0.17134675493964        2.43767854894000
C           33.27082137344944       -0.04844187903307        1.18478529342428
N           31.92652007971120       -0.15129278031469        1.40116987677920
H           34.96630790626062        0.17666852301648       -0.05108827393149
H           35.00458502045180        0.47438428549128       -2.65871861141952
H           33.11927343012207        0.69118184223555       -4.55306429502732
H           31.40528502999651        2.69816204438458       -4.80748358092225
H           31.38924813266292        3.06028450300032       -7.26514058461154
H           31.97283383782107        0.77971621553320      -10.70338377294624
H           29.44692581884439       -0.71812382165290       -7.81322484206818
H           29.47253365053194       -1.08993370939823       -5.35710447613053
H           27.77990443879570        0.77599236633482       -4.51253047648980
H           25.91157527506276        0.42860784833976       -2.62319589637159
H           25.95352457619241       -0.61296229402389        2.55826996330016
H           27.84800403623536       -0.86380097803837        4.43685547244120
H           31.58675540270023       -2.56297155215712        4.71990629565292
H           31.61298613756407       -2.91639952472052        7.17886631621916
H           28.80751033824137       -2.07876258722985       10.35659552732263
H           29.45140435464593        0.74022801167882        7.73150065441538
H           29.43577748852708        1.10475002934712        5.27446763936568
H           33.17240078024648       -0.45608931478610        4.45802483707230
H           35.03336812702046       -0.12018283117019        2.55732926858397
C           23.05985542398800       -0.09053213608477       -0.01252596226150
C           21.83785624227398       -0.08405675692215       -0.00321143024812
C           24.40978310043872       -0.08909900127452       -0.02143590209591
C           25.63181795291574       -0.07986748335835       -0.02809275326117

          :  Hamiltonian                  GFN1-xTB          :
         :: total energy            -262.064770721031 Eh    ::
         :: gradient norm              0.000703431354 Eh/a0 ::
         :: HOMO-LUMO gap              1.122743732808 eV    ::
         :: SCC energy              -265.539466729535 Eh    ::
         :: repulsion energy           3.594718920518 Eh    ::

    * Orbital Energies and Occupations

         #    Occupation            Energy/Eh            Energy/eV
      -------------------------------------------------------------
         1        2.0000           -1.0348139             -28.1587
       ...           ...                  ...                  ...
       213        2.0000           -0.4379470             -11.9171
       214        2.0000           -0.4378924             -11.9157
       215        2.0000           -0.4378908             -11.9156
       216        2.0000           -0.4374824             -11.9045
       217        2.0000           -0.4371984             -11.8968
       218        2.0000           -0.4371387             -11.8951
       219        2.0000           -0.4371064             -11.8943
       220        2.0000           -0.4352950             -11.8450
       221        2.0000           -0.4344225             -11.8212
       222        2.0000           -0.4097856             -11.1508
       223        2.0000           -0.4097842             -11.1508
       224        2.0000           -0.4061190             -11.0511
       225        2.0000           -0.3935243             -10.7083 (HOMO)
       226                         -0.3522643              -9.5856 (LUMO)
       227                         -0.3448132              -9.3828
       228                         -0.3448100              -9.3828
       229                         -0.3382030              -9.2030
       230                         -0.3174460              -8.6381
       231                         -0.3140538              -8.5458
       232                         -0.3066138              -8.3434
       233                         -0.3065890              -8.3427
       234                         -0.3018571              -8.2139
       235                         -0.2972140              -8.0876
       236                         -0.2933343              -7.9820
       ...                                ...                  ...
       472                          1.5045501              40.9409
      -------------------------------------------------------------
                  HL-Gap            0.0412601 Eh            1.1227 eV

Wiberg/Mayer (AO) data.
largest (>0.10) Wiberg bond orders for each atom

     #   Z sym  total        # sym  WBO       # sym  WBO       # sym  WBO
 ---------------------------------------------------------------------------
     1  30 Zn   1.992 --     7 N    0.459    45 N    0.459    29 N    0.455
                            22 N    0.454
     2   6 C    3.929 --    44 C    1.358     3 C    1.358    46 H    0.971
     3   6 C    3.920 --     2 C    1.358     7 N    1.232     4 C    1.169
     4   6 C    3.960 --     5 C    1.661     3 C    1.169    47 H    0.975
     5   6 C    3.963 --     4 C    1.661     6 C    1.170    48 H    0.973
     6   6 C    3.919 --     8 C    1.313     7 N    1.246     5 C    1.170
     7   7 N    3.293 --     6 C    1.246     3 C    1.232     1 Zn   0.459
     8   6 C    3.931 --    19 C    1.320     6 C    1.313     9 C    1.031
     9   6 C    3.985 --    10 C    1.390    18 C    1.389     8 C    1.031
    10   6 C    3.986 --    11 C    1.451     9 C    1.390    49 H    0.971
                            17 C    0.105
    11   6 C    3.989 --    10 C    1.451    12 C    1.406    50 H    0.967
                            18 C    0.105
    12   6 C    3.928 --    11 C    1.406    17 C    1.406    13 S    0.754
    13  16 S    5.262 --    14 O    1.720    16 O    1.717    15 O    1.011
                            12 C    0.754
    14   8 O    2.079 --    13 S    1.720    16 O    0.139
    15   8 O    2.086 --    13 S    1.011    51 H    0.828
    16   8 O    2.075 --    13 S    1.717    14 O    0.139
    17   6 C    3.989 --    18 C    1.451    12 C    1.406    52 H    0.967
                            10 C    0.105
    18   6 C    3.986 --    17 C    1.451     9 C    1.389    53 H    0.971
                            11 C    0.105
    19   6 C    3.913 --     8 C    1.320    22 N    1.228    20 C    1.178
    20   6 C    3.959 --    21 C    1.647    19 C    1.178    54 H    0.973
    21   6 C    3.962 --    20 C    1.647    23 C    1.185    55 H    0.974
    22   7 N    3.296 --    23 C    1.261    19 C    1.228     1 Zn   0.454
    23   6 C    3.901 --    22 N    1.261    24 C    1.256    21 C    1.185
    24   6 C    3.940 --    23 C    1.256    25 C    1.255   130 C    1.189
    25   6 C    3.901 --    29 N    1.261    24 C    1.255    26 C    1.186
    26   6 C    3.962 --    27 C    1.647    25 C    1.186    56 H    0.974
    27   6 C    3.959 --    26 C    1.647    28 C    1.178    57 H    0.973
    28   6 C    3.913 --    30 C    1.320    29 N    1.228    27 C    1.178
    29   7 N    3.297 --    25 C    1.261    28 C    1.228     1 Zn   0.455
    30   6 C    3.931 --    28 C    1.320    41 C    1.314    31 C    1.030
    31   6 C    3.985 --    32 C    1.391    40 C    1.389    30 C    1.030
    32   6 C    3.986 --    33 C    1.450    31 C    1.391    58 H    0.971
                            39 C    0.106
    33   6 C    3.989 --    32 C    1.450    34 C    1.407    59 H    0.967
                            40 C    0.105
    34   6 C    3.929 --    33 C    1.407    39 C    1.406    35 S    0.754
    35  16 S    5.267 --    38 O    1.729    36 O    1.711    37 O    1.015
                            34 C    0.754
    36   8 O    2.070 --    35 S    1.711    38 O    0.138
    37   8 O    2.089 --    35 S    1.015    60 H    0.828
    38   8 O    2.086 --    35 S    1.729    36 O    0.138
    39   6 C    3.989 --    40 C    1.451    34 C    1.406    61 H    0.967
                            32 C    0.106
    40   6 C    3.986 --    39 C    1.451    31 C    1.389    62 H    0.971
                            33 C    0.105
    41   6 C    3.919 --    30 C    1.314    45 N    1.246    42 C    1.170
    42   6 C    3.963 --    43 C    1.661    41 C    1.170    63 H    0.973
    43   6 C    3.960 --    42 C    1.661    44 C    1.169    64 H    0.975
    44   6 C    3.920 --     2 C    1.358    45 N    1.232    43 C    1.169
    45   7 N    3.293 --    41 C    1.246    44 C    1.232     1 Zn   0.459
    46   1 H    1.001 --     2 C    0.971
    47   1 H    0.997 --     4 C    0.975
    48   1 H    1.004 --     5 C    0.973
    49   1 H    1.003 --    10 C    0.971
    50   1 H    0.999 --    11 C    0.967
    51   1 H    0.854 --    15 O    0.828
    52   1 H    1.000 --    17 C    0.967
    53   1 H    1.003 --    18 C    0.971
    54   1 H    1.004 --    20 C    0.973
    55   1 H    1.002 --    21 C    0.974
    56   1 H    1.002 --    26 C    0.974
    57   1 H    1.004 --    27 C    0.973
    58   1 H    1.003 --    32 C    0.971
    59   1 H    1.000 --    33 C    0.967
    60   1 H    0.855 --    37 O    0.828
    61   1 H    1.000 --    39 C    0.967
    62   1 H    1.003 --    40 C    0.971
    63   1 H    1.004 --    42 C    0.973
    64   1 H    0.997 --    43 C    0.975
    65  30 Zn   1.992 --    71 N    0.459   109 N    0.459    93 N    0.455
                            86 N    0.454
    66   6 C    3.929 --   108 C    1.358    67 C    1.358   110 H    0.971
    67   6 C    3.920 --    66 C    1.358    71 N    1.232    68 C    1.169
    68   6 C    3.960 --    69 C    1.661    67 C    1.169   111 H    0.975
    69   6 C    3.963 --    68 C    1.661    70 C    1.170   112 H    0.973
    70   6 C    3.919 --    72 C    1.313    71 N    1.246    69 C    1.170
    71   7 N    3.293 --    70 C    1.246    67 C    1.232    65 Zn   0.459
    72   6 C    3.931 --    83 C    1.320    70 C    1.313    73 C    1.031
    73   6 C    3.985 --    74 C    1.390    82 C    1.389    72 C    1.031
    74   6 C    3.986 --    75 C    1.451    73 C    1.390   113 H    0.971
                            81 C    0.105
    75   6 C    3.989 --    74 C    1.451    76 C    1.406   114 H    0.967
                            82 C    0.105
    76   6 C    3.928 --    75 C    1.406    81 C    1.406    77 S    0.754
    77  16 S    5.262 --    78 O    1.720    80 O    1.717    79 O    1.011
                            76 C    0.754
    78   8 O    2.079 --    77 S    1.720    80 O    0.139
    79   8 O    2.086 --    77 S    1.011   115 H    0.828
    80   8 O    2.075 --    77 S    1.717    78 O    0.139
    81   6 C    3.989 --    82 C    1.451    76 C    1.406   116 H    0.967
                            74 C    0.105
    82   6 C    3.986 --    81 C    1.451    73 C    1.389   117 H    0.971
                            75 C    0.105
    83   6 C    3.913 --    72 C    1.320    86 N    1.228    84 C    1.178
    84   6 C    3.959 --    85 C    1.647    83 C    1.178   118 H    0.973
    85   6 C    3.962 --    84 C    1.647    87 C    1.185   119 H    0.974
    86   7 N    3.296 --    87 C    1.261    83 C    1.228    65 Zn   0.454
    87   6 C    3.901 --    86 N    1.261    88 C    1.256    85 C    1.185
    88   6 C    3.940 --    87 C    1.256    89 C    1.255   132 C    1.189
    89   6 C    3.901 --    93 N    1.261    88 C    1.255    90 C    1.186
    90   6 C    3.962 --    91 C    1.647    89 C    1.186   120 H    0.974
    91   6 C    3.959 --    90 C    1.647    92 C    1.178   121 H    0.973
    92   6 C    3.913 --    94 C    1.320    93 N    1.228    91 C    1.178
    93   7 N    3.297 --    89 C    1.261    92 C    1.228    65 Zn   0.455
    94   6 C    3.931 --    92 C    1.320   105 C    1.314    95 C    1.030
    95   6 C    3.985 --    96 C    1.391   104 C    1.389    94 C    1.030
    96   6 C    3.986 --    97 C    1.450    95 C    1.391   122 H    0.971
                           103 C    0.106
    97   6 C    3.989 --    96 C    1.450    98 C    1.407   123 H    0.967
                           104 C    0.105
    98   6 C    3.929 --    97 C    1.407   103 C    1.406    99 S    0.753
    99  16 S    5.267 --   102 O    1.729   100 O    1.711   101 O    1.015
                            98 C    0.753
   100   8 O    2.070 --    99 S    1.711   102 O    0.138
   101   8 O    2.089 --    99 S    1.015   124 H    0.828
   102   8 O    2.086 --    99 S    1.729   100 O    0.138
   103   6 C    3.989 --   104 C    1.451    98 C    1.406   125 H    0.967
                            96 C    0.106
   104   6 C    3.986 --   103 C    1.451    95 C    1.389   126 H    0.971
                            97 C    0.105
   105   6 C    3.919 --    94 C    1.314   109 N    1.246   106 C    1.170
   106   6 C    3.963 --   107 C    1.661   105 C    1.170   127 H    0.973
   107   6 C    3.960 --   106 C    1.661   108 C    1.169   128 H    0.975
   108   6 C    3.920 --    66 C    1.358   109 N    1.232   107 C    1.169
   109   7 N    3.293 --   105 C    1.246   108 C    1.232    65 Zn   0.459
   110   1 H    1.001 --    66 C    0.971
   111   1 H    0.997 --    68 C    0.975
   112   1 H    1.004 --    69 C    0.973
   113   1 H    1.003 --    74 C    0.971
   114   1 H    0.999 --    75 C    0.967
   115   1 H    0.854 --    79 O    0.828
   116   1 H    1.000 --    81 C    0.967
   117   1 H    1.003 --    82 C    0.971
   118   1 H    1.004 --    84 C    0.973
   119   1 H    1.002 --    85 C    0.974
   120   1 H    1.002 --    90 C    0.974
   121   1 H    1.004 --    91 C    0.973
   122   1 H    1.003 --    96 C    0.971
   123   1 H    1.000 --    97 C    0.967
   124   1 H    0.855 --   101 O    0.828
   125   1 H    1.000 --   103 C    0.967
   126   1 H    1.003 --   104 C    0.971
   127   1 H    1.004 --   106 C    0.973
   128   1 H    0.997 --   107 C    0.975
   129   6 C    3.935 --   130 C    2.477   131 C    1.307
   130   6 C    3.926 --   129 C    2.477    24 C    1.189   132 C    0.199
   131   6 C    3.935 --   132 C    2.477   129 C    1.307
   132   6 C    3.926 --   131 C    2.477    88 C    1.189   130 C    0.199
 ---------------------------------------------------------------------------

           -------------------------------------------------
          | TOTAL ENERGY             -262.064770721031 Eh   |
          | GRADIENT NORM               0.000703431354 Eh/α |
          | HOMO-LUMO GAP               1.122743732808 eV   |
           -------------------------------------------------

 * finished run on 2022/07/30 at 15:53:47.196
