   * xtb version 6.5.1 (b24c23e) compiled by 'conda@728c89f4b128' on 2022-07-12
          program call               : xtb Cu_Ph2OMe_C8_3.xyz --gfn 1 --opt -T 48

   ID    Z sym.   atoms
    1   29 Cu     1, 73, 161
    2    6 C      2-6, 8-11, 13-21, 23-27, 29-33, 36, 37, 39-43, 45, 74-78,
                  80-83, 85-93, 95-99, 101-105, 108, 109, 111-115, 117,
                  145-160, 162-166, 168-171, 173-181, 183-187, 189-193, 196,
                  197, 199-203, 205
    3    7 N      7, 12, 34, 35, 79, 84, 106, 107, 167, 172, 194, 195
    4    8 O      22, 28, 38, 44, 94, 100, 110, 116, 182, 188, 198, 204
    5    1 H      46-72, 118-144, 206-231

          :  Hamiltonian                  GFN1-xTB          :
 * total energy  :  -412.1059438 Eh     change        0.1393801E-09 Eh
 * total energy  :  -412.5493511 Eh     change       -0.4434073E+00 Eh
 * total energy  :  -412.6970665 Eh     change       -0.1477154E+00 Eh
 * total energy  :  -412.7730914 Eh     change       -0.7602486E-01 Eh
 * total energy  :  -412.8371662 Eh     change       -0.6407480E-01 Eh
 * total energy  :  -412.9039258 Eh     change       -0.6675962E-01 Eh
 * total energy  :  -412.9693478 Eh     change       -0.6542196E-01 Eh
 * total energy  :  -413.0101467 Eh     change       -0.4079893E-01 Eh
 * total energy  :  -413.0381122 Eh     change       -0.2796551E-01 Eh
 * total energy  :  -413.0584869 Eh     change       -0.2037470E-01 Eh
 * total energy  :  -413.1632112 Eh     change        0.1457282E-04 Eh
 * total energy  :  -413.1632329 Eh     change       -0.2170995E-04 Eh
 * total energy  :  -413.1631955 Eh     change        0.3746420E-04 Eh
 * total energy  :  -413.1632338 Eh     change       -0.3829695E-04 Eh
 * total energy  :  -413.1632254 Eh     change        0.8404214E-05 Eh
 * total energy  :  -413.1632399 Eh     change       -0.1450124E-04 Eh
 * total energy  :  -413.1632360 Eh     change        0.3852070E-05 Eh
 * total energy  :  -413.1632446 Eh     change       -0.8584070E-05 Eh
 * total energy  :  -413.1632477 Eh     change       -0.3098274E-05 Eh
   *** GEOMETRY OPTIMIZATION CONVERGED AFTER 107 ITERATIONS ***

 final structure:
================
231
 xtb: 6.5.1 (b24c23e)
Cu          26.01609398316508        0.07588931618710       -0.04066643127605
C           22.60985433120408        0.19781886412990       -0.12378442737637
C           23.24390859948608        1.04720329020293        0.77078053281581
C           22.56916149666313        1.94437799746396        1.66550682465399
C           23.52789012172769        2.58447203795470        2.37967462306936
C           24.79726964672550        2.08959554468853        1.92217298209711
N           24.59357995498034        1.15719491473522        0.94637524730860
C           26.03910947856834        2.48952808433074        2.41729709452793
C           27.27069272713350        1.99624178443375        1.98984901805353
C           28.54574551727955        2.44489203119312        2.47249887073694
C           29.49489491221524        1.74892814014039        1.79730336791723
N           27.46364519985081        1.03705973276715        1.03049727279642
C           28.80706844246340        0.87147865126094        0.89714185868639
C           29.44567524883190       -0.01777099215613        0.01443554961739
C           28.78785443483022       -0.88228241679465       -0.87871085082079
C           29.45500171354097       -1.80972732271053       -1.74355255702755
C           28.49098973010698       -2.46785861239593       -2.43541277442436
C           27.22768152253098       -1.94115674473698       -2.00335955349004
C           25.98511670473993       -2.36443582933038       -2.47232238217891
C           25.96971845749034       -3.42782740621046       -3.51737928442087
C           26.40863933202645       -3.15193411163423       -4.81892959388932
O           26.82514590195968       -1.87818903099473       -5.04762601960665
C           27.29832096480193       -1.49836365392742       -6.32395953601525
C           26.39159563272168       -4.14797748399933       -5.79485518065383
C           25.93976704117653       -5.41653266218764       -5.46406211636318
C           25.50158640295557       -5.71329750269268       -4.18232036706788
C           25.51417325304924       -4.71608882184830       -3.20767762575808
O           25.11119244834909       -4.91027565283641       -1.92367045003994
C           24.63145593860159       -6.17254453975375       -1.50728449592809
C           24.75277669500095       -1.87086403436191       -2.04174034363977
C           23.47498114448875       -2.27792413626677       -2.55857285319443
C           22.53145887805666       -1.55740904585057       -1.90318461585079
C           23.22446459800029       -0.70124897518403       -0.98263762326154
N           24.56953333768251       -0.91205916912997       -1.08779194301761
N           27.44224623717450       -0.97835545819117       -1.05211293634740
C           26.04921069885410        3.52897710614053        3.48636072572746
C           26.40299956880515        3.19090633830017        4.79909063537409
O           26.71545873747919        1.88510246990049        5.01185472233846
C           27.09208100020011        1.43992690565544        6.29913896648409
C           26.40990258158449        4.16210893592200        5.79984611932734
C           26.06750440009282        5.46783862732382        5.48245644803142
C           25.71607907180285        5.82629828657560        4.18978993522825
C           25.70460263889965        4.85414186634488        3.19007104700232
O           25.38092189472118        5.10753616717936        1.89397857134567
C           25.01861509315134        6.41207423677984        1.48902123473351
H           21.52565100703652        0.23816482546251       -0.15204437880579
H           21.49795685487473        2.05495627980073        1.73161159309268
H           23.39711830521791        3.32674003683608        3.15078160481124
H           28.68900935825536        3.20013004006532        3.22841370761916
H           30.56712100141161        1.81729904653183        1.89060419333848
H           30.52434748564767       -1.93711556457820       -1.80125827350027
H           28.61707772837410       -3.24371330053226       -3.17322877919804
H           26.52059749495794       -1.60701678056993       -7.08968163193555
H           27.57744809043081       -0.44611855447579       -6.24370630289839
H           28.17894213007034       -2.08309003207271       -6.61628396513368
H           26.72499549712271       -3.94430533083004       -6.80362105422594
H           25.92855913127613       -6.19155976238824       -6.22256396404694
H           25.15589875058048       -6.71217598877538       -3.95209643522066
H           24.37009108052190       -6.06547821953455       -0.45284130108340
H           23.73849891390001       -6.46904849268257       -2.07092014581483
H           25.39949583480253       -6.94863316153817       -1.61070889918285
H           23.32876536691928       -3.01936718098998       -3.32770858333787
H           21.45981866800312       -1.58901185043297       -2.02428122579972
H           27.29591228137502        0.37180203528582        6.20356912148681
H           26.28588507984645        1.58870512118691        7.02774900112796
H           27.99739982542473        1.94905795165127        6.65135176535093
H           26.67788169039074        3.91077149653761        6.81731539443427
H           26.07483000871103        6.22349914586985        6.26030903064729
H           25.45556990591245        6.85315623299415        3.97062001553783
H           25.83665689364780        7.12477828324572        1.65004366364041
H           24.80301203243974        6.34975713370887        0.42071354898596
H           24.12327289175898        6.76274566953085        2.01680981582305
Cu          63.23993762848542        0.00921071837014       -0.08359322952532
C           66.64363408924609        0.16313268683767       -0.21144343972407
C           66.01574814421799       -0.60204791512002       -1.18304875010409
C           66.69595857779403       -1.33887398731309       -2.21028173417119
C           65.74244024731232       -1.96216613291478       -2.94599404084354
C           64.47072286110684       -1.60548221280604       -2.37940350990135
N           64.66792896246223       -0.78021920546213       -1.31024285008842
C           63.23293287249837       -2.05268340635060       -2.84307001588914
C           61.99918635795844       -1.72269836278032       -2.28477470383615
C           60.72772907856719       -2.14982254576726       -2.79557391078241
C           59.77432822536526       -1.60093299293748       -2.00123754136885
N           61.79993290903541       -0.92265118517919       -1.19033598338380
C           60.45599995876976       -0.83484659472948       -1.00038082178567
C           59.81204620392946       -0.11017970639741        0.01847651921103
C           60.46432796621560        0.64552098318461        1.00920547150757
C           59.79244910034845        1.34777256494605        2.06208343903665
C           60.75167732375287        1.94751872716114        2.81135919484288
C           62.01656593365853        1.62139738189826        2.21672311409703
C           63.25536245453664        2.04311882717270        2.69676225230091
C           63.26346562737618        2.92057013855422        3.90233052216571
C           62.80703198082158        4.24263145755331        3.82063795298136
O           62.38095506927673        4.64878239188960        2.59523992155540
C           61.89243939699113        5.96134948401876        2.40621028282377
C           62.81741336629960        5.06314386788454        4.94820043577691
C           63.28022254266327        4.55681644009820        6.15330652047972
C           63.73577984923964        3.25131528891722        6.25844507140684
C           63.72982591648822        2.43227048387821        5.12983846081554
O           64.15003328698157        1.13911536413443        5.13313446806608
C           64.64010717572285        0.54920948365145        6.32001634746600
C           64.48977379926919        1.71228159859935        2.13618084004387
C           65.76306037525218        2.18198914544003        2.60907615968772
C           66.71022534511634        1.65771785011425        1.79239024737819
C           66.02387253020181        0.86621664365117        0.81098170135667
N           64.67919028743019        0.91703066547873        1.04316752472415
N           61.80796439755878        0.82334614485928        1.12240945812773
C           63.22965924747108       -2.95210800025851       -4.03247900914151
C           62.90277742105626       -4.30731254169149       -3.89414596032847
O           62.60933815986412       -4.72120183109822       -2.63296357530979
C           62.26131291015695       -6.06820904903803       -2.38476424259727
C           62.90182326640341       -5.14930384729459       -5.00585148790067
C           63.22308241010664       -4.63123152517803       -6.25136550623987
C           63.54770139449605       -3.29272878343575       -6.41278758278928
C           63.55333420191159       -2.45187071138132       -5.30032484913155
O           63.85149498156658       -1.12644541648865       -5.35674495353407
C           64.18899278270031       -0.52101297009138       -6.58823205801514
H           67.72693551591578        0.21433269071456       -0.25348695686147
H           67.76704834545272       -1.37028615376882       -2.33627873438757
H           65.87812714843091       -2.60869546319874       -3.79821360673395
H           60.58964142218319       -2.78491554993228       -3.65576352749740
H           58.70300559351922       -1.69816026419870       -2.07788919425535
H           58.72352658877778        1.36803268237403        2.20366885607186
H           60.62143313578906        2.55687223646223        3.69112461624683
H           62.66240515052916        6.71183469684713        2.62283241735772
H           61.60964553365668        6.03164426726258        1.35422632950347
H           61.01128218068656        6.15572879827539        3.02960314815890
H           62.47050472147433        6.08640363327173        4.89496033112354
H           63.28638029923393        5.19432894244448        7.03060649362065
H           64.08984517593140        2.88259488523465        7.21183070557166
H           64.91365526947448       -0.47503250145221        6.05978810603814
H           65.52745714972936        1.07474471664542        6.69336382505742
H           63.87416599103545        0.52886795630860        7.10475467550844
H           65.90392551489278        2.83248269643375        3.45743382754659
H           67.78019971946823        1.78946949996699        1.83573880435340
H           62.06890132588461       -6.13965927776356       -1.31264439064699
H           63.07855653709685       -6.74993193253097       -2.64995743930285
H           61.35630986478311       -6.35683767055817       -2.93294146253707
H           62.65455906429240       -6.19801511886669       -4.90941470148104
H           63.22028536938234       -5.28560561109738       -7.11618845399226
H           63.79212065880407       -2.91559747061579       -7.39684513867650
H           63.36457904889078       -0.58832043090660       -7.30857207385297
H           64.38596514308061        0.52953838983018       -6.36647343206890
H           65.08900436795092       -0.97145704117160       -7.02434590731709
C           30.85124555372570       -0.04269900291886        0.02450398729817
C           32.07563091577283       -0.05661014384530        0.02512381030146
C           33.41887817464982       -0.06697087711839        0.02388198747594
C           34.64961348861232       -0.06850532234541        0.02207585442210
C           35.98811228530350       -0.06783113442474        0.01657701596356
C           37.21892517842095       -0.06409365710762        0.01142904299864
C           38.56197536677619       -0.05778060075920        0.00608297698989
C           39.78657796711550       -0.05200076036500        0.00439074203207
C           49.47229827526719       -0.09792504947991        0.04819671482739
C           50.69696966717450       -0.11589224028035        0.05551748150542
C           52.03973885284071       -0.13352319171884        0.06212012511035
C           53.27038102958090       -0.14673011059441        0.06767816824887
C           54.60865722932964       -0.15515180099067        0.06976590671975
C           55.83938343770951       -0.15757679053132        0.06956046632197
C           57.18248100331208       -0.15175521459975        0.05975585501467
C           58.40699797791051       -0.13962643225592        0.04603138250644
Cu          44.62956706632627       -0.04868309494954        0.02449712868435
C           41.19170212748489       -0.04753266166739        0.00891671470304
C           41.83528016644137       -0.05012907447586        1.25995352126872
C           41.15258718652850       -0.08000800225844        2.51918759507374
C           42.10611734572866       -0.07063516992512        3.48490423773242
C           43.37744173693967       -0.03051619731905        2.82085766113793
N           43.17905584477439       -0.02234435926735        1.46582404088597
C           44.61418400189594       -0.02038296808483        3.46548639959224
C           45.85674631136563       -0.02460919250346        2.83213064851334
C           47.12237543784988        0.01909909920639        3.50673782357164
C           48.08453129407091        0.00153918543045        2.54969429522946
N           46.06709627023231       -0.05878043363881        1.47928555056801
C           47.41280411745735       -0.04665548565185        1.28519146821226
C           48.06747658690369       -0.07969429249424        0.04036402105445
C           47.42405754380413       -0.09230626851427       -1.21065347793838
C           48.10620540232211       -0.13912888908658       -2.46958791037532
C           47.15266241022291       -0.12613622917372       -3.43535186425203
C           45.88188974019777       -0.06832393686091       -2.77153607411693
C           44.64524395548180       -0.05149248167932       -3.41632196278610
C           44.65351591618104       -0.04242530995209       -4.90741669871798
C           44.22965620065757       -1.16751215184752       -5.62670078560903
O           43.83437455695552       -2.23384440391082       -4.88196524892922
C           43.37460744151880       -3.41388242291880       -5.50907790441833
C           44.24021930356778       -1.15795512504152       -7.02116995258346
C           44.67020840765037       -0.02197696522309       -7.69013526805252
C           45.09240185531614        1.10395623058372       -6.99955687607111
C           45.08646696791182        1.09293600606107       -5.60511097556259
O           45.47354691565553        2.14783083099210       -4.84014806137768
C           45.94158211950275        3.33670070505460       -5.44406995652512
C           43.40252173400724       -0.04314523953410       -2.78332584534922
C           42.13712605388829        0.00138550074127       -3.45842012843406
C           41.17484553379360       -0.00017687513890       -2.50131927601198
C           41.84620021332130       -0.03859659844146       -1.23627523391757
N           43.19184276495429       -0.06256153240781       -1.43019116644681
N           46.08054825254365       -0.05244170169071       -1.41665901436254
C           44.60708777766026       -0.00688824605676        4.95643293781595
C           45.02833071056367       -1.13206370137394        5.67733480172699
O           45.41965497459074       -2.20087233131057        4.93414043500569
C           45.88127754142997       -3.37955408011553        5.56249091540016
C           45.01888919641927       -1.12015984061971        7.07176465509567
C           44.59294595481722        0.01828325677128        7.73914557756255
C           44.17377936879967        1.14440945332234        7.04699751901550
C           44.17840083276325        1.13099531674537        5.65257074814621
O           43.79422274243962        2.18593988125831        4.88612959967305
C           43.32681864754452        3.37590520815049        5.48832593909324
H           40.08110302867888       -0.10866561511294        2.63792054792142
H           41.96727714535445       -0.09252139525266        4.55375866842766
H           47.25194528259457        0.06023690770741        4.57617651441320
H           49.15515044552240        0.02345209852692        2.67747506726513
H           49.17734303943992       -0.17973630196533       -2.58813406494886
H           47.29112591298903       -0.15679293401450       -4.50406449573615
H           42.48744097882447       -3.22199966305841       -6.12473673743071
H           43.11009277733253       -4.10221583393248       -4.70421621364389
H           44.15531764166791       -3.86945260079911       -6.13030314676095
H           43.91873081639855       -2.02280230416462       -7.58590365413949
H           44.67653021431742       -0.01398640550305       -8.77458082036472
H           45.42073827349804        1.97691501668359       -7.54762948557981
H           46.19689664240518        4.01272617298524       -4.62590538444837
H           45.16869653362969        3.80216077803170       -6.06772614969273
H           46.83594509165611        3.15328329066422       -6.05183348579114
H           42.00784268077649        0.03152584506926       -4.52826814495070
H           40.10435404295434        0.02716709945357       -2.62922906251308
H           45.10176893306706       -3.83495128159120        6.18534363986221
H           46.14547009973406       -4.06882211441287        4.75831093049045
H           46.76902480591648       -3.18585536075892        6.17673243648471
H           45.33800576428075       -1.98515835805964        7.63762315182397
H           44.58748405544989        0.02809666965526        8.82357687409953
H           43.84886338001093        2.01941028815174        7.59386897933130
H           44.10027463153718        3.84248319947051        6.11045496940897
H           42.43296882910931        3.19362188565007        6.09722421157418
H           43.07080353514456        4.05048000445284        4.66918131582737

          :  Hamiltonian                  GFN1-xTB          :
         :: total energy            -413.163247693525 Eh    ::
         :: gradient norm              0.000652871739 Eh/a0 ::
         :: HOMO-LUMO gap              0.000126687336 eV    ::
         :: SCC energy              -419.143333312593 Eh    ::
         :: repulsion energy           6.180979520571 Eh    ::

    * Orbital Energies and Occupations

         #    Occupation            Energy/Eh            Energy/eV
      -------------------------------------------------------------
         1        2.0000           -0.8056558             -21.9230
       ...           ...                  ...                  ...
       359        2.0000           -0.3943690             -10.7313
       360        2.0000           -0.3942755             -10.7288
       361        2.0000           -0.3940910             -10.7238
       362        2.0000           -0.3939049             -10.7187
       363        2.0000           -0.3924790             -10.6799
       364        2.0000           -0.3813073             -10.3759
       365        2.0000           -0.3813040             -10.3758
       366        2.0000           -0.3809713             -10.3668
       367        2.0000           -0.3742307             -10.1833
       368        2.0000           -0.3709964             -10.0953
       369        2.0000           -0.3653191              -9.9408
       370        1.0210           -0.3418106              -9.3011
       371        0.9906           -0.3417456              -9.2994 (HOMO)
       372        0.9884           -0.3417409              -9.2992 (LUMO)
       373        0.0000           -0.3269967              -8.8980
       374                         -0.3202435              -8.7143
       375                         -0.3164506              -8.6111
       376                         -0.3129220              -8.5150
       377                         -0.3128893              -8.5142
       378                         -0.3123990              -8.5008
       379                         -0.2944456              -8.0123
       380                         -0.2869936              -7.8095
       381                         -0.2868773              -7.8063
       382                         -0.2803504              -7.6287
       ...                                ...                  ...
       779                          1.6181027              44.0308
      -------------------------------------------------------------
                  HL-Gap            0.0000047 Eh            0.0001 eV

Wiberg/Mayer (AO) data.
largest (>0.10) Wiberg bond orders for each atom

     #   Z sym  total        # sym  WBO       # sym  WBO       # sym  WBO
 ---------------------------------------------------------------------------
     1  29 Cu   2.193 --    34 N    0.507     7 N    0.506    12 N    0.504
                            35 N    0.504
     2   6 C    3.929 --    33 C    1.361     3 C    1.361    46 H    0.972
     3   6 C    3.919 --     2 C    1.361     7 N    1.231     4 C    1.170
     4   6 C    3.955 --     5 C    1.657     3 C    1.170    47 H    0.976
     5   6 C    3.958 --     4 C    1.657     6 C    1.173    48 H    0.975
     6   6 C    3.912 --     8 C    1.323     7 N    1.237     5 C    1.173
     7   7 N    3.246 --     6 C    1.237     3 C    1.231     1 Cu   0.506
     8   6 C    3.935 --     9 C    1.336     6 C    1.323    36 C    1.013
     9   6 C    3.907 --     8 C    1.336    12 N    1.218    10 C    1.178
    10   6 C    3.955 --    11 C    1.646     9 C    1.178    49 H    0.975
    11   6 C    3.957 --    10 C    1.646    13 C    1.184    50 H    0.974
    12   7 N    3.249 --    13 C    1.260     9 C    1.218     1 Cu   0.504
    13   6 C    3.898 --    12 N    1.260    14 C    1.258    11 C    1.184
    14   6 C    3.940 --    13 C    1.258    15 C    1.258   145 C    1.188
    15   6 C    3.898 --    35 N    1.260    14 C    1.258    16 C    1.184
    16   6 C    3.957 --    17 C    1.646    15 C    1.184    51 H    0.974
    17   6 C    3.955 --    16 C    1.646    18 C    1.178    52 H    0.975
    18   6 C    3.907 --    19 C    1.336    35 N    1.217    17 C    1.178
    19   6 C    3.935 --    18 C    1.336    30 C    1.323    20 C    1.013
    20   6 C    3.977 --    21 C    1.344    27 C    1.344    19 C    1.013
                            25 C    0.101
    21   6 C    3.903 --    24 C    1.362    20 C    1.344    22 O    1.031
    22   8 O    2.144 --    21 C    1.031    23 C    0.935
    23   6 C    3.908 --    54 H    0.983    55 H    0.980    53 H    0.980
                            22 O    0.935
    24   6 C    3.983 --    25 C    1.442    21 C    1.362    56 H    0.969
    25   6 C    3.993 --    24 C    1.442    26 C    1.442    57 H    0.974
                            20 C    0.101
    26   6 C    3.983 --    25 C    1.442    27 C    1.362    58 H    0.969
    27   6 C    3.903 --    26 C    1.362    20 C    1.344    28 O    1.030
    28   8 O    2.144 --    27 C    1.030    29 C    0.936
    29   6 C    3.908 --    59 H    0.983    60 H    0.980    61 H    0.980
                            28 O    0.936
    30   6 C    3.912 --    19 C    1.323    34 N    1.238    31 C    1.173
    31   6 C    3.958 --    32 C    1.657    30 C    1.173    62 H    0.975
    32   6 C    3.955 --    31 C    1.657    33 C    1.170    63 H    0.976
    33   6 C    3.919 --     2 C    1.361    34 N    1.231    32 C    1.170
    34   7 N    3.246 --    30 C    1.238    33 C    1.231     1 Cu   0.507
    35   7 N    3.249 --    15 C    1.260    18 C    1.217     1 Cu   0.504
    36   6 C    3.977 --    43 C    1.344    37 C    1.344     8 C    1.013
                            41 C    0.101
    37   6 C    3.903 --    40 C    1.362    36 C    1.344    38 O    1.031
    38   8 O    2.144 --    37 C    1.031    39 C    0.935
    39   6 C    3.908 --    64 H    0.983    66 H    0.980    65 H    0.980
                            38 O    0.935
    40   6 C    3.983 --    41 C    1.442    37 C    1.362    67 H    0.969
    41   6 C    3.993 --    40 C    1.442    42 C    1.442    68 H    0.974
                            36 C    0.101
    42   6 C    3.983 --    41 C    1.442    43 C    1.362    69 H    0.969
    43   6 C    3.903 --    42 C    1.362    36 C    1.344    44 O    1.030
    44   8 O    2.144 --    43 C    1.030    45 C    0.936
    45   6 C    3.908 --    71 H    0.983    72 H    0.980    70 H    0.980
                            44 O    0.936
    46   1 H    1.002 --     2 C    0.972
    47   1 H    0.998 --     4 C    0.976
    48   1 H    1.002 --     5 C    0.975
    49   1 H    1.002 --    10 C    0.975
    50   1 H    1.002 --    11 C    0.974
    51   1 H    1.002 --    16 C    0.974
    52   1 H    1.002 --    17 C    0.975
    53   1 H    1.009 --    23 C    0.980
    54   1 H    1.016 --    23 C    0.983
    55   1 H    1.009 --    23 C    0.980
    56   1 H    1.000 --    24 C    0.969
    57   1 H    1.003 --    25 C    0.974
    58   1 H    1.000 --    26 C    0.969
    59   1 H    1.016 --    29 C    0.983
    60   1 H    1.009 --    29 C    0.980
    61   1 H    1.009 --    29 C    0.980
    62   1 H    1.002 --    31 C    0.975
    63   1 H    0.998 --    32 C    0.976
    64   1 H    1.016 --    39 C    0.983
    65   1 H    1.009 --    39 C    0.980
    66   1 H    1.009 --    39 C    0.980
    67   1 H    1.000 --    40 C    0.969
    68   1 H    1.003 --    41 C    0.974
    69   1 H    1.000 --    42 C    0.969
    70   1 H    1.009 --    45 C    0.980
    71   1 H    1.016 --    45 C    0.983
    72   1 H    1.009 --    45 C    0.980
    73  29 Cu   2.193 --   106 N    0.507    79 N    0.506    84 N    0.504
                           107 N    0.504
    74   6 C    3.929 --   105 C    1.361    75 C    1.361   118 H    0.972
    75   6 C    3.919 --    74 C    1.361    79 N    1.231    76 C    1.170
    76   6 C    3.955 --    77 C    1.657    75 C    1.170   119 H    0.976
    77   6 C    3.958 --    76 C    1.657    78 C    1.173   120 H    0.975
    78   6 C    3.912 --    80 C    1.323    79 N    1.237    77 C    1.173
    79   7 N    3.245 --    78 C    1.237    75 C    1.231    73 Cu   0.506
    80   6 C    3.935 --    81 C    1.336    78 C    1.323   108 C    1.013
    81   6 C    3.907 --    80 C    1.336    84 N    1.217    82 C    1.178
    82   6 C    3.955 --    83 C    1.646    81 C    1.178   121 H    0.975
    83   6 C    3.957 --    82 C    1.646    85 C    1.184   122 H    0.974
    84   7 N    3.249 --    85 C    1.260    81 C    1.217    73 Cu   0.504
    85   6 C    3.898 --    84 N    1.260    86 C    1.258    83 C    1.184
    86   6 C    3.940 --    85 C    1.258    87 C    1.258   160 C    1.189
    87   6 C    3.898 --   107 N    1.260    86 C    1.258    88 C    1.185
    88   6 C    3.957 --    89 C    1.646    87 C    1.185   123 H    0.974
    89   6 C    3.955 --    88 C    1.646    90 C    1.178   124 H    0.975
    90   6 C    3.907 --    91 C    1.336   107 N    1.217    89 C    1.178
    91   6 C    3.935 --    90 C    1.336   102 C    1.323    92 C    1.013
    92   6 C    3.977 --    99 C    1.344    93 C    1.344    91 C    1.013
                            97 C    0.101
    93   6 C    3.903 --    96 C    1.362    92 C    1.344    94 O    1.031
    94   8 O    2.144 --    93 C    1.031    95 C    0.935
    95   6 C    3.908 --   126 H    0.983   125 H    0.980   127 H    0.980
                            94 O    0.935
    96   6 C    3.983 --    97 C    1.442    93 C    1.362   128 H    0.969
    97   6 C    3.993 --    96 C    1.442    98 C    1.442   129 H    0.974
                            92 C    0.101
    98   6 C    3.983 --    97 C    1.442    99 C    1.362   130 H    0.969
    99   6 C    3.903 --    98 C    1.362    92 C    1.344   100 O    1.030
   100   8 O    2.144 --    99 C    1.030   101 C    0.936
   101   6 C    3.908 --   131 H    0.983   132 H    0.980   133 H    0.980
                           100 O    0.936
   102   6 C    3.912 --    91 C    1.323   106 N    1.238   103 C    1.173
   103   6 C    3.958 --   104 C    1.657   102 C    1.173   134 H    0.975
   104   6 C    3.955 --   103 C    1.657   105 C    1.170   135 H    0.976
   105   6 C    3.919 --    74 C    1.361   106 N    1.231   104 C    1.170
   106   7 N    3.246 --   102 C    1.238   105 C    1.231    73 Cu   0.507
   107   7 N    3.249 --    87 C    1.260    90 C    1.217    73 Cu   0.504
   108   6 C    3.977 --   115 C    1.344   109 C    1.344    80 C    1.013
                           113 C    0.101
   109   6 C    3.903 --   112 C    1.362   108 C    1.344   110 O    1.031
   110   8 O    2.144 --   109 C    1.031   111 C    0.935
   111   6 C    3.908 --   136 H    0.983   137 H    0.980   138 H    0.980
                           110 O    0.935
   112   6 C    3.983 --   113 C    1.442   109 C    1.362   139 H    0.969
   113   6 C    3.993 --   112 C    1.442   114 C    1.442   140 H    0.974
                           108 C    0.101
   114   6 C    3.983 --   113 C    1.442   115 C    1.362   141 H    0.969
   115   6 C    3.903 --   114 C    1.362   108 C    1.344   116 O    1.030
   116   8 O    2.144 --   115 C    1.030   117 C    0.936
   117   6 C    3.908 --   143 H    0.983   144 H    0.980   142 H    0.980
                           116 O    0.936
   118   1 H    1.002 --    74 C    0.972
   119   1 H    0.998 --    76 C    0.976
   120   1 H    1.002 --    77 C    0.975
   121   1 H    1.002 --    82 C    0.975
   122   1 H    1.002 --    83 C    0.974
   123   1 H    1.002 --    88 C    0.974
   124   1 H    1.002 --    89 C    0.975
   125   1 H    1.009 --    95 C    0.980
   126   1 H    1.016 --    95 C    0.983
   127   1 H    1.009 --    95 C    0.980
   128   1 H    1.000 --    96 C    0.969
   129   1 H    1.003 --    97 C    0.974
   130   1 H    1.000 --    98 C    0.969
   131   1 H    1.016 --   101 C    0.983
   132   1 H    1.009 --   101 C    0.980
   133   1 H    1.009 --   101 C    0.980
   134   1 H    1.002 --   103 C    0.975
   135   1 H    0.998 --   104 C    0.976
   136   1 H    1.016 --   111 C    0.983
   137   1 H    1.009 --   111 C    0.980
   138   1 H    1.009 --   111 C    0.980
   139   1 H    1.000 --   112 C    0.969
   140   1 H    1.003 --   113 C    0.974
   141   1 H    1.000 --   114 C    0.969
   142   1 H    1.009 --   117 C    0.980
   143   1 H    1.016 --   117 C    0.983
   144   1 H    1.009 --   117 C    0.980
   145   6 C    3.876 --   146 C    2.442    14 C    1.188   148 C    0.187
   146   6 C    3.936 --   145 C    2.442   147 C    1.342
   147   6 C    3.892 --   148 C    2.339   146 C    1.342   150 C    0.182
   148   6 C    3.926 --   147 C    2.339   149 C    1.367   145 C    0.187
   149   6 C    3.925 --   150 C    2.338   148 C    1.367   152 C    0.186
   150   6 C    3.893 --   149 C    2.338   151 C    1.343   147 C    0.182
   151   6 C    3.933 --   152 C    2.439   150 C    1.343
   152   6 C    3.877 --   151 C    2.439   162 C    1.191   149 C    0.186
   153   6 C    3.876 --   154 C    2.438   174 C    1.192   156 C    0.186
   154   6 C    3.933 --   153 C    2.438   155 C    1.344
   155   6 C    3.893 --   156 C    2.337   154 C    1.344   158 C    0.182
   156   6 C    3.925 --   155 C    2.337   157 C    1.368   153 C    0.186
   157   6 C    3.926 --   158 C    2.338   156 C    1.368   160 C    0.187
   158   6 C    3.892 --   157 C    2.338   159 C    1.343   155 C    0.182
   159   6 C    3.936 --   160 C    2.441   158 C    1.343
   160   6 C    3.876 --   159 C    2.441    86 C    1.189   157 C    0.187
   161  29 Cu   2.163 --   167 N    0.499   195 N    0.499   194 N    0.499
                           172 N    0.499
   162   6 C    3.928 --   193 C    1.256   163 C    1.256   152 C    1.191
   163   6 C    3.899 --   167 N    1.262   162 C    1.256   164 C    1.186
   164   6 C    3.955 --   165 C    1.643   163 C    1.186   206 H    0.974
   165   6 C    3.956 --   164 C    1.643   166 C    1.180   207 H    0.975
   166   6 C    3.904 --   168 C    1.329   167 N    1.220   165 C    1.180
   167   7 N    3.242 --   163 C    1.262   166 C    1.220   161 Cu   0.499
   168   6 C    3.931 --   169 C    1.329   166 C    1.329   196 C    1.014
   169   6 C    3.904 --   168 C    1.329   172 N    1.220   170 C    1.180
   170   6 C    3.956 --   171 C    1.643   169 C    1.180   208 H    0.975
   171   6 C    3.955 --   170 C    1.643   173 C    1.186   209 H    0.974
   172   7 N    3.242 --   173 C    1.262   169 C    1.220   161 Cu   0.499
   173   6 C    3.899 --   172 N    1.262   174 C    1.255   171 C    1.186
   174   6 C    3.928 --   175 C    1.255   173 C    1.255   153 C    1.192
   175   6 C    3.899 --   195 N    1.262   174 C    1.255   176 C    1.186
   176   6 C    3.955 --   177 C    1.643   175 C    1.186   210 H    0.974
   177   6 C    3.956 --   176 C    1.643   178 C    1.180   211 H    0.975
   178   6 C    3.904 --   179 C    1.329   195 N    1.220   177 C    1.180
   179   6 C    3.931 --   190 C    1.330   178 C    1.329   180 C    1.014
   180   6 C    3.977 --   181 C    1.343   187 C    1.343   179 C    1.014
                           185 C    0.101
   181   6 C    3.903 --   184 C    1.362   180 C    1.343   182 O    1.031
   182   8 O    2.144 --   181 C    1.031   183 C    0.935
   183   6 C    3.907 --   213 H    0.983   212 H    0.980   214 H    0.980
                           182 O    0.935
   184   6 C    3.983 --   185 C    1.442   181 C    1.362   215 H    0.969
   185   6 C    3.993 --   184 C    1.442   186 C    1.442   216 H    0.974
                           180 C    0.101
   186   6 C    3.983 --   185 C    1.442   187 C    1.362   217 H    0.969
   187   6 C    3.903 --   186 C    1.362   180 C    1.343   188 O    1.031
   188   8 O    2.144 --   187 C    1.031   189 C    0.935
   189   6 C    3.907 --   218 H    0.983   220 H    0.980   219 H    0.980
                           188 O    0.935
   190   6 C    3.904 --   179 C    1.330   194 N    1.220   191 C    1.180
   191   6 C    3.956 --   192 C    1.643   190 C    1.180   221 H    0.975
   192   6 C    3.955 --   191 C    1.643   193 C    1.186   222 H    0.974
   193   6 C    3.899 --   194 N    1.262   162 C    1.256   192 C    1.186
   194   7 N    3.242 --   193 C    1.262   190 C    1.220   161 Cu   0.499
   195   7 N    3.242 --   175 C    1.262   178 C    1.220   161 Cu   0.499
   196   6 C    3.977 --   203 C    1.343   197 C    1.343   168 C    1.014
                           201 C    0.101
   197   6 C    3.903 --   200 C    1.362   196 C    1.343   198 O    1.031
   198   8 O    2.144 --   197 C    1.031   199 C    0.935
   199   6 C    3.907 --   224 H    0.983   225 H    0.980   223 H    0.980
                           198 O    0.935
   200   6 C    3.983 --   201 C    1.442   197 C    1.362   226 H    0.969
   201   6 C    3.993 --   200 C    1.442   202 C    1.442   227 H    0.974
                           196 C    0.101
   202   6 C    3.983 --   201 C    1.442   203 C    1.362   228 H    0.969
   203   6 C    3.903 --   202 C    1.362   196 C    1.343   204 O    1.031
   204   8 O    2.144 --   203 C    1.031   205 C    0.935
   205   6 C    3.907 --   231 H    0.983   230 H    0.980   229 H    0.980
                           204 O    0.935
   206   1 H    1.002 --   164 C    0.974
   207   1 H    1.002 --   165 C    0.975
   208   1 H    1.002 --   170 C    0.975
   209   1 H    1.002 --   171 C    0.974
   210   1 H    1.002 --   176 C    0.974
   211   1 H    1.002 --   177 C    0.975
   212   1 H    1.009 --   183 C    0.980
   213   1 H    1.016 --   183 C    0.983
   214   1 H    1.009 --   183 C    0.980
   215   1 H    1.000 --   184 C    0.969
   216   1 H    1.003 --   185 C    0.974
   217   1 H    1.000 --   186 C    0.969
   218   1 H    1.016 --   189 C    0.983
   219   1 H    1.009 --   189 C    0.980
   220   1 H    1.009 --   189 C    0.980
   221   1 H    1.002 --   191 C    0.975
   222   1 H    1.002 --   192 C    0.974
   223   1 H    1.009 --   199 C    0.980
   224   1 H    1.016 --   199 C    0.983
   225   1 H    1.009 --   199 C    0.980
   226   1 H    1.000 --   200 C    0.969
   227   1 H    1.003 --   201 C    0.974
   228   1 H    1.000 --   202 C    0.969
   229   1 H    1.009 --   205 C    0.980
   230   1 H    1.009 --   205 C    0.980
   231   1 H    1.016 --   205 C    0.983
 ---------------------------------------------------------------------------

           -------------------------------------------------
          | TOTAL ENERGY             -413.163247693525 Eh   |
          | GRADIENT NORM               0.000652871739 Eh/α |
          | HOMO-LUMO GAP               0.000126687336 eV   |
           -------------------------------------------------

 * finished run on 2022/07/30 at 12:52:53.683
