   * xtb version 6.5.1 (b24c23e) compiled by 'conda@728c89f4b128' on 2022-07-12
          program call               : xtb Ni_PhNH2_C4_3.xyz --gfn 1 --opt -T 48

   ID    Z sym.   atoms
    1   28 Ni     1, 61, 129
    2    6 C      2-6, 8-12, 14-18, 20-25, 27-31, 33-38, 62-66, 68-72, 74-78,
                  80-85, 87-91, 93-98, 121-128, 130-134, 136-140, 142-146,
                  148-153, 155-159, 161-166
    3    7 N      7, 13, 19, 26, 32, 39, 67, 73, 79, 86, 92, 99, 135, 141,
                  147, 154, 160, 167
    4    1 H      40-60, 100-120, 168-187
########################################################################
[WARNING] Please study the warnings concerning your input carefully
-1- prog_main_parseArguments: Unknown option '-T' provided
########################################################################

          :  Hamiltonian                  GFN1-xTB          :
 * total energy  :  -321.2262531 Eh     change        0.1507658E-08 Eh
 * total energy  :  -322.5719644 Eh     change       -0.1345711E+01 Eh
 * total energy  :  -322.8124574 Eh     change       -0.2404930E+00 Eh
 * total energy  :  -322.9453916 Eh     change       -0.1329341E+00 Eh
 * total energy  :  -323.0144304 Eh     change       -0.6903884E-01 Eh
 * total energy  :  -323.0487632 Eh     change       -0.3433282E-01 Eh
 * total energy  :  -323.0694888 Eh     change       -0.2072556E-01 Eh
 * total energy  :  -323.0802766 Eh     change       -0.1078782E-01 Eh
 * total energy  :  -323.0873593 Eh     change       -0.7082745E-02 Eh
 * total energy  :  -323.0920977 Eh     change       -0.4738333E-02 Eh
 * total energy  :  -323.1111414 Eh     change       -0.1543934E-04 Eh
 * total energy  :  -323.1111532 Eh     change       -0.1180121E-04 Eh
 * total energy  :  -323.1111606 Eh     change       -0.7328546E-05 Eh
 * total energy  :  -323.1111672 Eh     change       -0.6662001E-05 Eh
 * total energy  :  -323.1111770 Eh     change       -0.9755757E-05 Eh
 * total energy  :  -323.1111858 Eh     change       -0.8791319E-05 Eh
 * total energy  :  -323.1111948 Eh     change       -0.9016820E-05 Eh
 * total energy  :  -323.1112049 Eh     change       -0.1008534E-04 Eh
 * total energy  :  -323.1112071 Eh     change       -0.2257824E-05 Eh
   *** GEOMETRY OPTIMIZATION CONVERGED AFTER 44 ITERATIONS ***

 final structure:
================
187
 xtb: 6.5.1 (b24c23e)
Ni          31.68598608951442        0.02665629352268        0.02477842662207
C           28.29697395220336        0.11272301517534        0.12054987956790
C           28.95340489033850        1.13741507937331       -0.52943938392754
C           28.28368591813660        2.20978872603706       -1.19863870364437
C           29.24555276456164        3.06236828456833       -1.62469992741312
C           30.50174357260775        2.51710585590888       -1.20158946755507
N           30.31420154893194        1.31475102350824       -0.56656111524943
C           31.72229651432728        3.16111704495018       -1.36696413237958
C           31.74002509208201        4.51638369491620       -1.96404242231584
C           32.44276053276095        4.76569216435148       -3.14537513434004
C           32.46191061019968        6.03056783685778       -3.70559903745984
C           31.78793607396432        7.08389809054971       -3.08211258312487
N           31.77422394042996        8.34217515409212       -3.65847872240705
C           31.07923365144804        6.84163082739322       -1.90256045819897
C           31.05628008547298        5.57128916847366       -1.35488425419780
C           32.92673506864256        2.58456639223875       -0.98372534521231
C           34.19139449391950        3.24834276098037       -1.07481779266267
C           35.13394623033556        2.35014929250624       -0.69896099453973
N           33.09129672143042        1.30124018260422       -0.51235594189767
C           34.44285847029277        1.14467005586337       -0.37097085664097
C           35.09546057516935       -0.04423151944209       -0.03279342783447
C           34.40630196237999       -1.20909006249098        0.31599680496007
C           35.05664060326238       -2.44720948383017        0.60275024572550
C           34.08955726187969       -3.31265305981700        0.99311505298654
C           32.85204403576100       -2.59449695218877        0.95747554000012
N           33.05471284987792       -1.31200334242318        0.49869834388456
C           31.64053665135796       -3.11995019955425        1.38857935152684
C           31.62026751400189       -4.48195369384903        1.96999359246878
C           32.36531644631381       -4.78025547271212        3.11340217922021
C           32.34686497909410       -6.05106205223486        3.66007213354170
C           31.59080642534333       -7.06154138760350        3.06034652388369
N           31.54057851386631       -8.32405460952002        3.62563126280778
C           30.83930099574108       -6.76994393349994        1.91907074270786
C           30.85473638956226       -5.49360531202616        1.38521677938926
C           30.44686370809179       -2.41383671510898        1.29578740157589
C           29.19066367189502       -2.89847104636980        1.78713644855483
C           28.25185914478863       -1.99110018127835        1.42811217511545
C           28.93639992121713       -0.94778433529693        0.72857028864344
N           30.28593986941358       -1.19600092930988        0.68355685120209
H           27.21396514224390        0.14097710123301        0.15270586412945
H           27.21439867861774        2.28244858763424       -1.31913108667214
H           29.12763876363359        3.97865797780758       -2.18005554782389
H           32.96253190936258        3.95159147185851       -3.63862724386479
H           33.00149102251449        6.20956503183950       -4.62920557447514
H           32.54118232692297        8.53297867056453       -4.28330591062980
H           31.56712241681721        9.09811266031263       -3.02542952747203
H           30.55130716769374        7.65448639436053       -1.41591227917794
H           30.51902734440718        5.39510979324074       -0.42937045100640
H           34.33043203915348        4.27244728746171       -1.38058595254741
H           36.20308018357404        2.47784139802229       -0.64436276192573
H           36.11717911017602       -2.61785009420688        0.51029527439355
H           34.19483740805907       -4.34725590643780        1.27621965885285
H           32.94865629050742       -3.99932081739275        3.58885304119536
H           32.92016710344758       -6.26786357834340        4.55480613545967
H           32.32494082931528       -8.55853188700522        4.21292700181502
H           31.26921103001059       -9.06199750529010        2.99564099279477
H           30.24749012244086       -7.54920211491806        1.45132236461080
H           30.28237801746679       -5.27901146812077        0.48931834500306
H           29.05780296903962       -3.81415007383274        2.34014462846770
H           27.18925134847215       -2.00904246489724        1.61171653123302
Ni          58.54459988275914       -0.01889360534750        0.03966459791322
C           61.93417128385275        0.01010325433659        0.16321536993081
C           61.27714856871354       -1.09569064741814        0.66183450933485
C           61.94714258517761       -2.24346426654891        1.19113693718153
C           60.98510699562043       -3.07032277850687        1.66458920414468
C           59.72847623100375       -2.41964708646664        1.43675914265265
N           59.91614515748919       -1.22612691403652        0.78518361433403
C           58.50705473968929       -2.91913272098083        1.87261475877649
C           58.48900429839301       -4.16588111397806        2.67227443810539
C           57.79854201756394       -5.29329575430340        2.22118266410746
C           57.77728544165906       -6.45770010130339        2.96823321657879
C           58.43663790992885       -6.51340579377204        4.19887054243058
N           58.44770610369873       -7.68723339946952        4.93252003416598
C           59.13389444178465       -5.39158160637811        4.65443441343195
C           59.15905773262048       -4.23465927782450        3.89606544683821
C           57.30175348586939       -2.28627568233881        1.59608957461784
C           56.03557400541699       -2.73864976283223        2.08657904119299
C           55.09343287192592       -1.92825696121944        1.54655626354217
N           57.13826181186175       -1.17892741571043        0.79420106243269
C           55.78624069397929       -0.97828560543744        0.73647940694668
C           55.13461835129070       -0.02637616190182       -0.05202130008480
C           55.82296090988595        0.92069467886554       -0.81443412405190
C           55.17101930101401        1.85600782767091       -1.67378887847087
C           56.13842792435837        2.65969122087888       -2.17822902152617
C           57.37786537541118        2.22182532501402       -1.61185217737692
N           57.17556434595002        1.12491715086528       -0.80429845663323
C           58.59173522056711        2.86482660352522       -1.81890529937719
C           58.61439497889405        4.10288059484449       -2.63161539152879
C           57.87897561677043        5.22546982056115       -2.24383120747144
C           57.90054527902851        6.38341742907520       -3.00082223389786
C           58.65056142016107        6.43763514325638       -4.17846482707578
N           58.70484239090285        7.60665651691198       -4.91795627737214
C           59.39246593499497        5.32053934159424       -4.57072985434201
C           59.37352673122454        4.17006392416008       -3.80243582180059
C           59.78648915562477        2.38931936153555       -1.29125109947245
C           61.04473201486547        3.06175174063443       -1.42973370456103
C           61.98280431472241        2.25834722874332       -0.87485306465606
C           61.29592760858473        1.10186970254944       -0.38783644657124
N           59.94593679283540        1.20544188636736       -0.61523050444857
H           63.01719865465624        0.02048719105590        0.20434049491671
H           63.01671606451892       -2.38192642729743        1.18944217296156
H           61.10284056046809       -4.03821026041015        2.12420990317604
H           57.28973840078316       -5.25965759887834        1.26399355573372
H           57.24702740585870       -7.33028749349466        2.60261777304830
H           57.68573735248621       -8.31731161143657        4.73876373943171
H           58.64073696758315       -7.57266110721749        5.91475594345059
H           59.65082832098307       -5.43006879143337        5.60708622788686
H           59.68713145093837       -3.36208005836043        4.26482432446474
H           55.89530745410375       -3.56571006212883        2.76325963603746
H           54.02361440367947       -1.95839004295798        1.67646462257281
H           54.10936507735088        1.87938230574337       -1.86017644739638
H           56.03213889788410        3.47418895554018       -2.87602200151173
H           57.30082622067393        5.19404440756445       -1.32678788371390
H           57.33445930126593        7.25246530482643       -2.68369807535356
H           57.92417627082133        8.22978787209404       -4.78579816371689
H           58.97103883525544        7.48773766290345       -5.88241669004620
H           59.97956423040717        5.35777765583892       -5.48188372825051
H           59.93825754811203        3.30116259549831       -4.12237916040921
H           61.17925019279516        4.02792671378106       -1.88835058109109
H           63.04630250641971        2.41755635724347       -0.79248596356491
C           37.72184904867339       -0.08262745372746       -0.05787521805792
C           36.50032382017447       -0.06921316726279       -0.04759589598718
C           39.07195552030991       -0.08777170594724       -0.05787973238964
C           40.29364500113370       -0.08203065896416       -0.05763261508733
C           51.15661726458543       -0.02541559367170       -0.08937505427767
C           49.93521133987846       -0.03030652537720       -0.08450581091826
C           52.50742842548065       -0.02886212946767       -0.08818701214441
C           53.72872590708199       -0.02384613914595       -0.07788250959146
Ni          45.11412995336155       -0.04114041857640       -0.01727477409174
C           41.69852281291360       -0.07246624824579       -0.05048340355581
C           42.36341471905437        1.06092351835416       -0.52710889781652
C           41.67921981189960        2.21578012098465       -1.01330518764111
C           42.62566329946664        3.15461035759508       -1.25535035190378
C           43.88765590675848        2.56382935009120       -0.93059272517692
N           43.71513756395276        1.26717763668780       -0.49958885740775
C           45.09205208776231        3.25443358868052       -0.95868615866561
C           45.08274255444349        4.68731199173633       -1.34252683310463
C           44.71257072094546        5.07995526008589       -2.63009415513377
C           44.70714662528119        6.41675593005763       -2.98841817408538
C           45.07180872650561        7.39345356297525       -2.05845002069282
N           45.02037295776847        8.73482731539884       -2.39816583997724
C           45.43202631890011        7.00820137673920       -0.76475066911993
C           45.44354988587541        5.66879544825575       -0.41726466977883
C           46.30738111986246        2.65962773558117       -0.64642113551642
C           47.56390303237216        3.34019098131546       -0.72018645531883
C           48.52516835314607        2.41597724116542       -0.48001269230047
N           46.49782491622719        1.32932968006609       -0.34607586210013
C           47.85414084519756        1.17471689520736       -0.26299280789436
C           48.52962826729616       -0.03192412443361       -0.06198954983668
C           47.86445379763057       -1.23785525658456        0.17512791741543
C           48.54287707093849       -2.48054398210321        0.35671872256291
C           47.59435430971544       -3.39992038178090        0.66002887395701
C           46.34004016141012       -2.71198822543528        0.67102409903189
N           46.51404152875470       -1.38911777886963        0.33195375203503
C           45.13497942898264       -3.30903430165946        1.02014344668716
C           45.14717173079139       -4.71734936949263        1.47808625280346
C           44.42981238983105       -5.69804331445622        0.78863954154724
C           44.44496727230305       -7.01569332969675        1.21006057562560
C           45.18044192917903       -7.38209953191271        2.34020435872831
N           45.15967913549373       -8.68996305334817        2.79254384555816
C           45.88960785318525       -6.40461607527770        3.04312441064559
C           45.87717832989166       -5.09104366993670        2.60911496114038
C           43.91984034780391       -2.63979711096713        0.94811876463571
C           42.66886445655572       -3.21727360024882        1.33340166601574
C           41.70732267761030       -2.31652004825275        1.01564000655539
C           42.37494405367251       -1.18600974441746        0.45579237700505
N           43.72976489620369       -1.37111363506255        0.44725692522676
H           40.61023781380477        2.29018779886932       -1.13152802619189
H           42.48829332974049        4.16354409430137       -1.60818612174940
H           44.44409106813423        4.32613037870550       -3.36206573994554
H           44.42308862837881        6.71032248232871       -3.99309602962899
H           45.08141561008161        8.92529756965028       -3.38565397811082
H           45.59509407590232        9.33859849488414       -1.83212544216510
H           45.70380260732995        7.76291902445859       -0.03485347311052
H           45.71832152358511        5.37680122606018        0.59040728318159
H           47.68672283477616        4.38660091171689       -0.94700629775114
H           49.59519664162055        2.54590990560956       -0.45894560350589
H           49.60799065772599       -2.61687949259646        0.26060711653856
H           47.72293054990649       -4.45268946481154        0.85166394247066
H           43.87169760020007       -5.42500722841566       -0.10025719934652
H           43.88962812002317       -7.76935504084858        0.66248424680225
H           45.93987187183924       -8.95215271188660        3.37357086411700
H           44.92154416338321       -9.37757365334841        2.09573378457158
H           46.45058612550927       -6.68055631203281        3.92935379057784
H           46.42363665515049       -4.33659548075085        3.16445823592696
H           42.55014147682844       -4.18503556123871        1.79247355866210
H           40.64017146226777       -2.39478314057906        1.14732258872116

          :  Hamiltonian                  GFN1-xTB          :
         :: total energy            -323.111207131591 Eh    ::
         :: gradient norm              0.000815331606 Eh/a0 ::
         :: HOMO-LUMO gap              1.005172055689 eV    ::
         :: SCC energy              -328.258844246507 Eh    ::
         :: repulsion energy           5.315495056319 Eh    ::

    * Orbital Energies and Occupations

         #    Occupation            Energy/Eh            Energy/eV
      -------------------------------------------------------------
         1        2.0000           -0.7793080             -21.2061
       ...           ...                  ...                  ...
       287        2.0000           -0.3898046             -10.6071
       288        2.0000           -0.3895692             -10.6007
       289        2.0000           -0.3891049             -10.5881
       290        2.0000           -0.3890853             -10.5876
       291        2.0000           -0.3889402             -10.5836
       292        2.0000           -0.3885864             -10.5740
       293        2.0000           -0.3880469             -10.5593
       294        2.0000           -0.3879971             -10.5579
       295        2.0000           -0.3875133             -10.5448
       296        2.0000           -0.3874676             -10.5435
       297        2.0000           -0.3849737             -10.4757
       298        2.0000           -0.3793616             -10.3230
       299        2.0000           -0.3722228             -10.1287 (HOMO)
       300                         -0.3352834              -9.1235 (LUMO)
       301                         -0.3256728              -8.8620
       302                         -0.3221374              -8.7658
       303                         -0.3206259              -8.7247
       304                         -0.3205315              -8.7221
       305                         -0.3201371              -8.7114
       306                         -0.3201051              -8.7105
       307                         -0.3194234              -8.6920
       308                         -0.3178040              -8.6479
       309                         -0.2945198              -8.0143
       310                         -0.2865511              -7.7975
       ...                                ...                  ...
       639                          1.5256741              41.5157
      -------------------------------------------------------------
                  HL-Gap            0.0369394 Eh            1.0052 eV

Wiberg/Mayer (AO) data.
largest (>0.10) Wiberg bond orders for each atom

     #   Z sym  total        # sym  WBO       # sym  WBO       # sym  WBO
 ---------------------------------------------------------------------------
     1  28 Ni   3.016 --    39 N    0.665     7 N    0.664    19 N    0.662
                            26 N    0.662
     2   6 C    3.932 --    38 C    1.363     3 C    1.363    40 H    0.970
     3   6 C    3.925 --     2 C    1.363     7 N    1.212     4 C    1.178
     4   6 C    3.959 --     5 C    1.645     3 C    1.178    41 H    0.975
     5   6 C    3.963 --     4 C    1.645     6 C    1.180    42 H    0.973
     6   6 C    3.918 --     8 C    1.319     7 N    1.221     5 C    1.180
     7   7 N    3.400 --     6 C    1.221     3 C    1.212     1 Ni   0.664
     8   6 C    3.939 --    16 C    1.326     6 C    1.319     9 C    1.032
     9   6 C    3.988 --    15 C    1.381    10 C    1.381     8 C    1.032
    10   6 C    3.988 --    11 C    1.469     9 C    1.381    43 H    0.973
    11   6 C    3.990 --    10 C    1.469    12 C    1.354    44 H    0.972
    12   6 C    3.952 --    14 C    1.354    11 C    1.354    13 N    1.116
    13   7 N    3.134 --    12 C    1.116    46 H    0.933    45 H    0.933
    14   6 C    3.990 --    15 C    1.468    12 C    1.354    47 H    0.972
    15   6 C    3.988 --    14 C    1.468     9 C    1.381    48 H    0.973
    16   6 C    3.914 --     8 C    1.326    19 N    1.206    17 C    1.186
    17   6 C    3.959 --    18 C    1.632    16 C    1.186    49 H    0.973
    18   6 C    3.961 --    17 C    1.632    20 C    1.194    50 H    0.973
    19   7 N    3.405 --    20 C    1.238    16 C    1.206     1 Ni   0.662
    20   6 C    3.905 --    21 C    1.262    19 N    1.238    18 C    1.194
    21   6 C    3.941 --    20 C    1.262    22 C    1.262   122 C    1.183
    22   6 C    3.906 --    21 C    1.262    26 N    1.239    23 C    1.194
    23   6 C    3.961 --    24 C    1.632    22 C    1.194    51 H    0.973
    24   6 C    3.959 --    23 C    1.632    25 C    1.186    52 H    0.973
    25   6 C    3.914 --    27 C    1.327    26 N    1.205    24 C    1.186
    26   7 N    3.405 --    22 C    1.239    25 C    1.205     1 Ni   0.662
    27   6 C    3.939 --    25 C    1.327    35 C    1.319    28 C    1.032
    28   6 C    3.988 --    34 C    1.381    29 C    1.381    27 C    1.032
    29   6 C    3.988 --    30 C    1.469    28 C    1.381    53 H    0.973
    30   6 C    3.990 --    29 C    1.469    31 C    1.354    54 H    0.972
    31   6 C    3.952 --    33 C    1.354    30 C    1.354    32 N    1.116
    32   7 N    3.134 --    31 C    1.116    56 H    0.933    55 H    0.933
    33   6 C    3.990 --    34 C    1.468    31 C    1.354    57 H    0.972
    34   6 C    3.988 --    33 C    1.468    28 C    1.381    58 H    0.973
    35   6 C    3.918 --    27 C    1.319    39 N    1.222    36 C    1.180
    36   6 C    3.963 --    37 C    1.645    35 C    1.180    59 H    0.973
    37   6 C    3.959 --    36 C    1.645    38 C    1.177    60 H    0.975
    38   6 C    3.925 --     2 C    1.363    39 N    1.212    37 C    1.177
    39   7 N    3.400 --    35 C    1.222    38 C    1.212     1 Ni   0.665
    40   1 H    1.001 --     2 C    0.970
    41   1 H    0.998 --     4 C    0.975
    42   1 H    1.005 --     5 C    0.973
    43   1 H    1.005 --    10 C    0.973
    44   1 H    0.999 --    11 C    0.972
    45   1 H    0.961 --    13 N    0.933
    46   1 H    0.961 --    13 N    0.933
    47   1 H    0.999 --    14 C    0.972
    48   1 H    1.005 --    15 C    0.973
    49   1 H    1.005 --    17 C    0.973
    50   1 H    1.002 --    18 C    0.973
    51   1 H    1.002 --    23 C    0.973
    52   1 H    1.005 --    24 C    0.973
    53   1 H    1.005 --    29 C    0.973
    54   1 H    0.999 --    30 C    0.972
    55   1 H    0.961 --    32 N    0.933
    56   1 H    0.961 --    32 N    0.933
    57   1 H    0.999 --    33 C    0.972
    58   1 H    1.005 --    34 C    0.973
    59   1 H    1.005 --    36 C    0.973
    60   1 H    0.998 --    37 C    0.975
    61  28 Ni   3.016 --    99 N    0.665    67 N    0.664    79 N    0.662
                            86 N    0.662
    62   6 C    3.933 --    98 C    1.363    63 C    1.363   100 H    0.970
    63   6 C    3.925 --    62 C    1.363    67 N    1.212    64 C    1.177
    64   6 C    3.959 --    65 C    1.646    63 C    1.177   101 H    0.975
    65   6 C    3.963 --    64 C    1.646    66 C    1.179   102 H    0.973
    66   6 C    3.918 --    68 C    1.320    67 N    1.221    65 C    1.179
    67   7 N    3.401 --    66 C    1.221    63 C    1.212    61 Ni   0.664
    68   6 C    3.939 --    76 C    1.326    66 C    1.320    69 C    1.031
    69   6 C    3.988 --    75 C    1.381    70 C    1.381    68 C    1.031
    70   6 C    3.988 --    71 C    1.468    69 C    1.381   103 H    0.973
    71   6 C    3.990 --    70 C    1.468    72 C    1.354   104 H    0.972
    72   6 C    3.952 --    74 C    1.354    71 C    1.354    73 N    1.115
    73   7 N    3.134 --    72 C    1.115   106 H    0.934   105 H    0.933
    74   6 C    3.990 --    75 C    1.468    72 C    1.354   107 H    0.972
    75   6 C    3.988 --    74 C    1.468    69 C    1.381   108 H    0.973
    76   6 C    3.914 --    68 C    1.326    79 N    1.206    77 C    1.186
    77   6 C    3.960 --    78 C    1.633    76 C    1.186   109 H    0.973
    78   6 C    3.961 --    77 C    1.633    80 C    1.193   110 H    0.973
    79   7 N    3.405 --    80 C    1.237    76 C    1.206    61 Ni   0.662
    80   6 C    3.906 --    81 C    1.264    79 N    1.237    78 C    1.193
    81   6 C    3.942 --    82 C    1.264    80 C    1.264   128 C    1.179
    82   6 C    3.906 --    81 C    1.264    86 N    1.238    83 C    1.193
    83   6 C    3.961 --    84 C    1.633    82 C    1.193   111 H    0.973
    84   6 C    3.960 --    83 C    1.633    85 C    1.186   112 H    0.973
    85   6 C    3.914 --    87 C    1.326    86 N    1.206    84 C    1.186
    86   7 N    3.405 --    82 C    1.238    85 C    1.206    61 Ni   0.662
    87   6 C    3.939 --    85 C    1.326    95 C    1.319    88 C    1.032
    88   6 C    3.988 --    89 C    1.381    94 C    1.381    87 C    1.032
    89   6 C    3.988 --    90 C    1.468    88 C    1.381   113 H    0.973
    90   6 C    3.990 --    89 C    1.468    91 C    1.354   114 H    0.972
    91   6 C    3.952 --    90 C    1.354    93 C    1.354    92 N    1.115
    92   7 N    3.134 --    91 C    1.115   115 H    0.934   116 H    0.933
    93   6 C    3.990 --    94 C    1.469    91 C    1.354   117 H    0.972
    94   6 C    3.988 --    93 C    1.469    88 C    1.381   118 H    0.973
    95   6 C    3.918 --    87 C    1.319    99 N    1.222    96 C    1.179
    96   6 C    3.963 --    97 C    1.645    95 C    1.179   119 H    0.973
    97   6 C    3.959 --    96 C    1.645    98 C    1.177   120 H    0.975
    98   6 C    3.925 --    62 C    1.363    99 N    1.212    97 C    1.177
    99   7 N    3.401 --    95 C    1.222    98 C    1.212    61 Ni   0.665
   100   1 H    1.001 --    62 C    0.970
   101   1 H    0.998 --    64 C    0.975
   102   1 H    1.005 --    65 C    0.973
   103   1 H    1.005 --    70 C    0.973
   104   1 H    0.999 --    71 C    0.972
   105   1 H    0.961 --    73 N    0.933
   106   1 H    0.961 --    73 N    0.934
   107   1 H    0.999 --    74 C    0.972
   108   1 H    1.005 --    75 C    0.973
   109   1 H    1.005 --    77 C    0.973
   110   1 H    1.002 --    78 C    0.973
   111   1 H    1.002 --    83 C    0.973
   112   1 H    1.005 --    84 C    0.973
   113   1 H    1.005 --    89 C    0.973
   114   1 H    0.999 --    90 C    0.972
   115   1 H    0.961 --    92 N    0.934
   116   1 H    0.961 --    92 N    0.933
   117   1 H    0.999 --    93 C    0.972
   118   1 H    1.005 --    94 C    0.973
   119   1 H    1.005 --    96 C    0.973
   120   1 H    0.998 --    97 C    0.975
   121   6 C    3.937 --   122 C    2.481   123 C    1.305
   122   6 C    3.926 --   121 C    2.481    21 C    1.183   124 C    0.200
   123   6 C    3.935 --   124 C    2.480   121 C    1.305
   124   6 C    3.927 --   123 C    2.480   130 C    1.185   122 C    0.200
   125   6 C    3.934 --   126 C    2.484   127 C    1.301
   126   6 C    3.925 --   125 C    2.484   149 C    1.181   128 C    0.199
   127   6 C    3.937 --   128 C    2.485   125 C    1.301
   128   6 C    3.924 --   127 C    2.485    81 C    1.179   126 C    0.199
   129  28 Ni   3.002 --   135 N    0.661   147 N    0.661   154 N    0.661
                           167 N    0.661
   130   6 C    3.932 --   131 C    1.261   166 C    1.260   124 C    1.185
   131   6 C    3.906 --   130 C    1.261   135 N    1.240   132 C    1.193
   132   6 C    3.959 --   133 C    1.632   131 C    1.193   168 H    0.973
   133   6 C    3.960 --   132 C    1.632   134 C    1.187   169 H    0.972
   134   6 C    3.911 --   136 C    1.326   135 N    1.204   133 C    1.187
   135   7 N    3.400 --   131 C    1.240   134 C    1.204   129 Ni   0.661
   136   6 C    3.934 --   134 C    1.326   144 C    1.326   137 C    1.024
   137   6 C    3.988 --   138 C    1.385   143 C    1.384   136 C    1.024
   138   6 C    3.989 --   139 C    1.466   137 C    1.385   170 H    0.973
                           142 C    0.101
   139   6 C    3.990 --   138 C    1.466   140 C    1.356   171 H    0.972
                           143 C    0.101
   140   6 C    3.954 --   139 C    1.356   142 C    1.355   141 N    1.114
   141   7 N    3.134 --   140 C    1.114   172 H    0.934   173 H    0.934
   142   6 C    3.990 --   143 C    1.467   140 C    1.355   174 H    0.972
                           138 C    0.101
   143   6 C    3.989 --   142 C    1.467   137 C    1.384   175 H    0.973
                           139 C    0.101
   144   6 C    3.912 --   136 C    1.326   147 N    1.205   145 C    1.187
   145   6 C    3.960 --   146 C    1.632   144 C    1.187   176 H    0.973
   146   6 C    3.959 --   145 C    1.632   148 C    1.193   177 H    0.973
   147   7 N    3.400 --   148 C    1.239   144 C    1.205   129 Ni   0.661
   148   6 C    3.907 --   149 C    1.263   147 N    1.239   146 C    1.193
   149   6 C    3.932 --   148 C    1.263   150 C    1.262   126 C    1.181
   150   6 C    3.907 --   149 C    1.262   154 N    1.238   151 C    1.195
   151   6 C    3.959 --   152 C    1.630   150 C    1.195   178 H    0.973
   152   6 C    3.960 --   151 C    1.630   153 C    1.189   179 H    0.973
   153   6 C    3.912 --   155 C    1.322   154 N    1.206   152 C    1.189
   154   7 N    3.400 --   150 C    1.238   153 C    1.206   129 Ni   0.661
   155   6 C    3.934 --   163 C    1.324   153 C    1.322   156 C    1.033
   156   6 C    3.988 --   157 C    1.380   162 C    1.380   155 C    1.033
   157   6 C    3.988 --   158 C    1.469   156 C    1.380   180 H    0.973
   158   6 C    3.990 --   157 C    1.469   159 C    1.354   181 H    0.972
   159   6 C    3.952 --   158 C    1.354   161 C    1.354   160 N    1.116
   160   7 N    3.135 --   159 C    1.116   183 H    0.933   182 H    0.933
   161   6 C    3.990 --   162 C    1.469   159 C    1.354   184 H    0.972
   162   6 C    3.988 --   161 C    1.469   156 C    1.380   185 H    0.973
   163   6 C    3.912 --   155 C    1.324   167 N    1.204   164 C    1.188
   164   6 C    3.960 --   165 C    1.630   163 C    1.188   186 H    0.972
   165   6 C    3.959 --   164 C    1.630   166 C    1.195   187 H    0.973
   166   6 C    3.906 --   130 C    1.260   167 N    1.240   165 C    1.195
   167   7 N    3.400 --   166 C    1.240   163 C    1.204   129 Ni   0.661
   168   1 H    1.002 --   132 C    0.973
   169   1 H    1.005 --   133 C    0.972
   170   1 H    1.004 --   138 C    0.973
   171   1 H    0.999 --   139 C    0.972
   172   1 H    0.961 --   141 N    0.934
   173   1 H    0.961 --   141 N    0.934
   174   1 H    0.998 --   142 C    0.972
   175   1 H    1.004 --   143 C    0.973
   176   1 H    1.006 --   145 C    0.973
   177   1 H    1.002 --   146 C    0.973
   178   1 H    1.002 --   151 C    0.973
   179   1 H    1.005 --   152 C    0.973
   180   1 H    1.005 --   157 C    0.973
   181   1 H    0.999 --   158 C    0.972
   182   1 H    0.961 --   160 N    0.933
   183   1 H    0.961 --   160 N    0.933
   184   1 H    0.999 --   161 C    0.972
   185   1 H    1.005 --   162 C    0.973
   186   1 H    1.005 --   164 C    0.972
   187   1 H    1.002 --   165 C    0.973
 ---------------------------------------------------------------------------

           -------------------------------------------------
          | TOTAL ENERGY             -323.111207131591 Eh   |
          | GRADIENT NORM               0.000815331606 Eh/α |
          | HOMO-LUMO GAP               1.005172055689 eV   |
           -------------------------------------------------

 * finished run on 2022/07/30 at 04:12:47.700
