   * xtb version 6.5.1 (b24c23e) compiled by 'conda@728c89f4b128' on 2022-07-12
          program call               : xtb Co_Ph2Me_C2_2.xyz --gfn 1 --opt -T 48

   ID    Z sym.   atoms
    1   27 Co     1, 69
    2    6 C      2-6, 8-11, 13-31, 34-41, 70-74, 76-79, 81-99, 102-109, 137,
                  138
    3    7 N      7, 12, 32, 33, 75, 80, 100, 101
    4    1 H      42-68, 110-136
########################################################################
[WARNING] Please study the warnings concerning your input carefully
-1- prog_main_parseArguments: Unknown option '-T' provided
########################################################################

          :  Hamiltonian                  GFN1-xTB          :
 * total energy  :  -217.7862759 Eh     change       -0.4699814E-09 Eh
 * total energy  :  -218.0139480 Eh     change       -0.2276721E+00 Eh
 * total energy  :  -218.0873064 Eh     change       -0.7335834E-01 Eh
 * total energy  :  -218.1151508 Eh     change       -0.2784441E-01 Eh
 * total energy  :  -218.1253956 Eh     change       -0.1024484E-01 Eh
 * total energy  :  -218.1314591 Eh     change       -0.6063517E-02 Eh
 * total energy  :  -218.1344813 Eh     change       -0.3022119E-02 Eh
 * total energy  :  -218.1362915 Eh     change       -0.1810212E-02 Eh
 * total energy  :  -218.1374249 Eh     change       -0.1133425E-02 Eh
 * total energy  :  -218.1382267 Eh     change       -0.8017884E-03 Eh
 * total energy  :  -218.1454055 Eh     change       -0.2107110E-04 Eh
 * total energy  :  -218.1454239 Eh     change       -0.1837290E-04 Eh
 * total energy  :  -218.1454380 Eh     change       -0.1410794E-04 Eh
 * total energy  :  -218.1454494 Eh     change       -0.1142869E-04 Eh
 * total energy  :  -218.1454611 Eh     change       -0.1169504E-04 Eh
 * total energy  :  -218.1454760 Eh     change       -0.1492920E-04 Eh
 * total energy  :  -218.1454964 Eh     change       -0.2036465E-04 Eh
 * total energy  :  -218.1455200 Eh     change       -0.2362125E-04 Eh
 * total energy  :  -218.1455242 Eh     change       -0.4216692E-05 Eh
   *** GEOMETRY OPTIMIZATION CONVERGED AFTER 122 ITERATIONS ***

 final structure:
================
138
 xtb: 6.5.1 (b24c23e)
Co          16.85849962140367        0.36469282794838       -0.59289530440042
C           13.80291908190426        0.84039118706894       -1.84874266811033
C           14.39309530818644        1.88274711330591       -1.16319423992505
C           13.73694022262091        3.12693878378920       -0.89610477195919
C           14.49895127305954        3.78099344963728        0.01301615091500
C           15.65864968208584        2.97077836007257        0.24443559905955
N           15.57565270596523        1.80624333280302       -0.47222584720547
C           16.73948973168036        3.34102879579727        1.03699952231448
C           17.93366372001454        2.63461777535256        1.00854623231740
C           19.16743765478319        3.14076786933381        1.53085394271940
C           20.14976013771869        2.32688743489583        1.07194046247267
N           18.15925480991384        1.47935371054715        0.29764864294454
C           19.51070555306833        1.29085516315117        0.32460010154913
C           20.18667104635842        0.19624370251461       -0.22765719316503
C           19.49658167932300       -0.94360591133785       -0.65457563624769
C           20.12798117141577       -2.20313647369358       -0.89348388792182
C           19.13654540616701       -3.11955919845905       -1.01750960546853
C           17.89951754489524       -2.40662960025679       -0.91562005853165
C           16.65565879555942       -2.97767555149011       -1.15190372844201
C           16.57368646264859       -4.45263552090542       -1.26986811976459
C           16.24689092236461       -5.06273719132666       -2.47843789606022
C           16.19393412020834       -6.45038386666374       -2.57614668561051
C           15.83297726486675       -7.10070381593305       -3.88446383938121
C           16.46336563340888       -7.22391457211439       -1.45273378322892
C           16.79477563443744       -6.62775502762630       -0.23791993780833
C           17.09714329993406       -7.48398895046494        0.96207730536428
C           16.85468127162775       -5.24241580360723       -0.15458734277910
C           15.53477562337428       -2.19260313782356       -1.38979744946916
C           14.28997776484198       -2.68404818777617       -1.90410719573758
C           13.54116183006760       -1.60023422150813       -2.22050472656284
C           14.29574868418435       -0.44941915528509       -1.82646292360075
N           15.50706741357315       -0.82384147033792       -1.30708067232659
N           18.13709048752172       -1.07324941784450       -0.69169433956515
C           16.67397935144333        4.58666857362999        1.83839761543635
C           16.54537318013342        5.82843877860552        1.21984170305924
C           16.49083994697528        6.99284781893258        1.97978256458380
C           16.37730789467107        8.33164817359854        1.30194184682882
C           16.56578672068299        6.90644797980623        3.36593685653658
C           16.70168700203257        5.67310348231220        3.99769068740845
C           16.76546242309520        5.59479747054243        5.49911758557719
C           16.75919528479536        4.51665802546459        3.22835920370773
H           12.84188545697852        1.01466110997195       -2.31867815765831
H           12.79263416543257        3.42469412385385       -1.32366894524136
H           14.30685257153605        4.73260250471932        0.48140316372571
H           19.26151924175855        4.03094011172375        2.13143656973402
H           21.21282046896509        2.39873360193234        1.23600439276737
H           21.19417481856235       -2.35999843095291       -0.92061501817870
H           19.22247046348280       -4.17893088075785       -1.19727789055477
H           16.05833778920658       -4.45112183829410       -3.35384099522592
H           16.20578958947756       -8.12413823816784       -3.92678433927134
H           14.74696931896848       -7.12768432005336       -3.99912709437561
H           16.24704525404186       -6.53900602415503       -4.72233794529870
H           16.42136687364592       -8.30605364266849       -1.52282639890600
H           17.21377185153265       -6.87445338787150        1.85792087346869
H           16.29411242653775       -8.20341820087030        1.12943844449351
H           18.02111620897473       -8.04300348248627        0.80096738714977
H           17.10980314903651       -4.76304188935282        0.78415500201966
H           14.03975963567122       -3.72576239778667       -2.02322832397279
H           12.55112291658305       -1.56598760760339       -2.64695504123850
H           16.50919877643230        5.88651166531744        0.13759216965382
H           15.94128606657300        9.07215747400358        1.97255614137356
H           15.76115300568230        8.26057085242185        0.40519362939930
H           17.36828926384982        8.68222136237271        1.00465356667399
H           16.52209325847931        7.81154344897233        3.96305819259492
H           15.75561383964366        5.61555191167024        5.91517154537661
H           17.31626718400123        6.44265845434644        5.90749012545088
H           17.24777972516853        4.67190724202459        5.82115491874457
H           16.85862423917581        3.54858250253943        3.70695695721261
Co          27.54171747239865        0.46791312755576       -0.51528488211229
C           30.59709946232646        1.54204573678253       -1.32184718547778
C           30.00703519248032        0.59335526232363       -2.13214788999554
C           30.66323343311198       -0.00941276487928       -3.25284782954188
C           29.90135221049479       -1.06477836878620       -3.62796595302261
C           28.74168405093846       -1.06168286764533       -2.78531049095126
N           28.82458201752083       -0.04918604493011       -1.86628202326156
C           27.66095945014781       -1.92614647276356       -2.92024727022740
C           26.46678454428792       -1.70228621614544       -2.24964042004670
C           25.23304206446054       -2.34488941471566       -2.59042110793156
C           24.25067336100053       -1.67756800700897       -1.93651282368292
N           26.24112222812744       -0.69787023755887       -1.33797849028068
C           24.88966257269613       -0.67130430207553       -1.14949573808710
C           24.21364195246097        0.16379191098071       -0.25188745215399
C           24.90367060029217        0.89107396775525        0.72416528953818
C           24.27221409608654        1.47099797705049        1.86745490464427
C           25.26361131775451        1.84517097602606        2.71320289080384
C           26.50067061522705        1.54911781307220        2.05675290389467
C           27.74448036569215        1.93525427440884        2.53941107741744
C           27.82645209846404        2.45910752430188        3.92325065625174
C           28.15319863828248        3.78974336903133        4.17280676937316
C           28.20612145602175        4.26988122747926        5.47839766605139
C           28.56694245009295        5.70755321996194        5.73881817279290
C           27.93672362345264        3.40620607710072        6.53407737312478
C           27.60536599080988        2.07344931532877        6.29966175701813
C           27.30314797274987        1.15921540709483        7.45612885014134
C           27.54547896780104        1.60776478403101        4.99227752927046
C           28.86531256831658        1.94540589167134        1.71908006221899
C           30.11005619685405        2.57632033036653        2.04787699246175
C           30.85879898530573        2.57863928429494        0.91876949681060
C           30.10427964763167        1.87964924097565       -0.07680183525806
N           28.89306154785823        1.48482884624627        0.42748827278064
N           26.26315463198595        0.96286813349523        0.83839715681167
C           27.72654933550442       -3.04259438030020       -3.89358848252528
C           27.85507678442519       -2.79411971308700       -5.25847043375955
C           27.90967235892986       -3.84813475754996       -6.16533738336252
C           28.02317614657161       -3.56973859306771       -7.63990574014864
C           27.83488464974934       -5.15546992361214       -5.69651223274066
C           27.69908760853836       -5.41897035197977       -4.33605106731456
C           27.63543462523089       -6.83927166135614       -3.84293264913620
C           27.64149659546971       -4.35815276627293       -3.43944791389602
H           31.55808284245855        1.94501720324789       -1.62007832248855
H           31.60747811862703        0.31850590978673       -3.65788752104716
H           30.09352092718879       -1.77951131353872       -4.41159794017024
H           25.13901483996410       -3.16956987312369       -3.27818418364669
H           23.18761943874989       -1.85518258082574       -1.95987923664231
H           23.20601631442058        1.54064390927095        2.01055170888404
H           25.17763595499458        2.31261303182627        3.68071218544483
H           28.34154551380529        4.46035064405139        3.34165525760058
H           28.19406070331333        6.03308662497739        6.70999661025688
H           29.65294567010778        5.82524864063626        5.73288167512975
H           28.15289384814090        6.35592929154911        4.96605502366752
H           27.97875083825820        3.77476590202663        7.55393252311715
H           27.18651037935899        0.12910001530910        7.12008063612129
H           28.10622587927968        1.19874934400543        8.19366407069408
H           26.37920129348742        1.46955758318009        7.94826364616029
H           27.29050442448889        0.57263796939757        4.79318218362699
H           30.36025654842184        2.98079749946781        3.01522655290900
H           31.84876478497730        2.97888495128047        0.76709509942897
H           27.89119982354154       -1.77080869313352       -5.61549189095668
H           28.45909303711124       -4.42000725002687       -8.16451648164648
H           28.63939251684598       -2.68869603255335       -7.82127961595413
H           27.03218535637727       -3.38169500802188       -8.05930804089600
H           27.87864680783594       -5.98092158261833       -6.39963152632975
H           28.64533640095344       -7.24451888152122       -3.74703104896180
H           27.08474542239599       -7.46757192834793       -4.54364912190565
H           27.15308869759559       -6.89177219532503       -2.86689179789977
H           27.54205057464773       -4.54838791730188       -2.37642011219476
C           21.59134603669558        0.18363818754032       -0.22632831427542
C           22.80896620790691        0.16599087096760       -0.23950464197504

          :  Hamiltonian                  GFN1-xTB          :
         :: total energy            -218.145524238505 Eh    ::
         :: gradient norm              0.000293243648 Eh/a0 ::
         :: HOMO-LUMO gap              0.026287698746 eV    ::
         :: SCC energy              -221.590891415582 Eh    ::
         :: repulsion energy           3.564588192717 Eh    ::

    * Orbital Energies and Occupations

         #    Occupation            Energy/Eh            Energy/eV
      -------------------------------------------------------------
         1        2.0000           -0.7672968             -20.8792
       ...           ...                  ...                  ...
       192        2.0000           -0.4237096             -11.5297
       193        2.0000           -0.4237073             -11.5297
       194        2.0000           -0.3969261             -10.8009
       195        2.0000           -0.3929409             -10.6925
       196        2.0000           -0.3929093             -10.6916
       197        2.0000           -0.3900512             -10.6138
       198        2.0000           -0.3857061             -10.4956
       199        2.0000           -0.3856153             -10.4931
       200        1.9999           -0.3854391             -10.4883
       201        1.9999           -0.3854349             -10.4882
       202        1.9999           -0.3848415             -10.4721
       203        1.9440           -0.3788425             -10.3088
       204        1.2768           -0.3760122             -10.2318 (HOMO)
       205        0.7795           -0.3750462             -10.2055 (LUMO)
       206                         -0.3347288              -9.1084
       207                         -0.3237521              -8.8097
       208                         -0.3237471              -8.8096
       209                         -0.3183770              -8.6635
       210                         -0.2933305              -7.9819
       211                         -0.2851409              -7.7591
       212                         -0.2797114              -7.6113
       213                         -0.2796907              -7.6108
       214                         -0.2582476              -7.0273
       215                         -0.2582290              -7.0268
       ...                                ...                  ...
       454                          1.3422383              36.5242
      -------------------------------------------------------------
                  HL-Gap            0.0009661 Eh            0.0263 eV

Wiberg/Mayer (AO) data.
largest (>0.10) Wiberg bond orders for each atom

     #   Z sym  total        # sym  WBO       # sym  WBO       # sym  WBO
 ---------------------------------------------------------------------------
     1  27 Co   3.068 --    32 N    0.635     7 N    0.634    12 N    0.633
                            33 N    0.633
     2   6 C    3.924 --     3 C    1.364    31 C    1.357    42 H    0.971
     3   6 C    3.925 --     2 C    1.364     7 N    1.202     4 C    1.174
     4   6 C    3.959 --     5 C    1.647     3 C    1.174    43 H    0.975
     5   6 C    3.963 --     4 C    1.647     6 C    1.178    44 H    0.972
     6   6 C    3.922 --     8 C    1.313     7 N    1.219     5 C    1.178
     7   7 N    3.346 --     6 C    1.219     3 C    1.202     1 Co   0.634
     8   6 C    3.929 --     9 C    1.333     6 C    1.313    34 C    1.023
     9   6 C    3.917 --     8 C    1.333    12 N    1.194    10 C    1.181
    10   6 C    3.959 --    11 C    1.636     9 C    1.181    45 H    0.974
    11   6 C    3.963 --    10 C    1.636    13 C    1.192    46 H    0.971
    12   7 N    3.347 --    13 C    1.237     9 C    1.194     1 Co   0.633
    13   6 C    3.910 --    14 C    1.254    12 N    1.237    11 C    1.192
    14   6 C    3.928 --    15 C    1.259    13 C    1.254   137 C    1.187
    15   6 C    3.910 --    14 C    1.259    33 N    1.230    16 C    1.190
    16   6 C    3.962 --    17 C    1.634    15 C    1.190    47 H    0.971
    17   6 C    3.959 --    16 C    1.634    18 C    1.183    48 H    0.974
    18   6 C    3.917 --    19 C    1.324    33 N    1.201    17 C    1.183
    19   6 C    3.929 --    18 C    1.324    28 C    1.321    20 C    1.025
    20   6 C    3.988 --    21 C    1.403    27 C    1.390    19 C    1.025
                            24 C    0.103
    21   6 C    3.986 --    22 C    1.410    20 C    1.403    49 H    0.972
                            25 C    0.104
    22   6 C    3.988 --    24 C    1.423    21 C    1.410    23 C    1.020
                            27 C    0.103
    23   6 C    3.996 --    22 C    1.020    50 H    0.984    52 H    0.981
                            51 H    0.971
    24   6 C    3.989 --    22 C    1.423    25 C    1.408    53 H    0.972
                            20 C    0.103
    25   6 C    3.988 --    27 C    1.425    24 C    1.408    26 C    1.020
                            21 C    0.104
    26   6 C    3.995 --    25 C    1.020    54 H    0.986    55 H    0.977
                            56 H    0.974
    27   6 C    3.985 --    25 C    1.425    20 C    1.390    57 H    0.972
                            22 C    0.103
    28   6 C    3.922 --    19 C    1.321    32 N    1.212    29 C    1.176
    29   6 C    3.963 --    30 C    1.647    28 C    1.176    58 H    0.972
    30   6 C    3.959 --    29 C    1.647    31 C    1.175    59 H    0.975
    31   6 C    3.925 --     2 C    1.357    32 N    1.209    30 C    1.175
    32   7 N    3.344 --    28 C    1.212    31 C    1.209     1 Co   0.635
    33   7 N    3.349 --    15 C    1.230    18 C    1.201     1 Co   0.633
    34   6 C    3.988 --    35 C    1.400    41 C    1.395     8 C    1.023
                            38 C    0.103
    35   6 C    3.986 --    36 C    1.413    34 C    1.400    60 H    0.972
                            39 C    0.104
    36   6 C    3.988 --    38 C    1.419    35 C    1.413    37 C    1.020
                            41 C    0.104
    37   6 C    3.995 --    36 C    1.020    61 H    0.984    62 H    0.982
                            63 H    0.971
    38   6 C    3.989 --    36 C    1.419    39 C    1.412    64 H    0.972
                            34 C    0.103
    39   6 C    3.988 --    41 C    1.420    38 C    1.412    40 C    1.020
                            35 C    0.104
    40   6 C    3.995 --    39 C    1.020    67 H    0.984    66 H    0.981
                            65 H    0.971
    41   6 C    3.985 --    39 C    1.420    34 C    1.395    68 H    0.972
                            36 C    0.104
    42   1 H    1.001 --     2 C    0.971
    43   1 H    0.998 --     4 C    0.975
    44   1 H    1.005 --     5 C    0.972
    45   1 H    1.004 --    10 C    0.974
    46   1 H    1.004 --    11 C    0.971
    47   1 H    1.004 --    16 C    0.971
    48   1 H    1.004 --    17 C    0.974
    49   1 H    1.003 --    21 C    0.972
    50   1 H    1.004 --    23 C    0.984
    51   1 H    1.006 --    23 C    0.971
    52   1 H    1.004 --    23 C    0.981
    53   1 H    1.000 --    24 C    0.972
    54   1 H    1.003 --    26 C    0.986
    55   1 H    1.005 --    26 C    0.977
    56   1 H    1.005 --    26 C    0.974
    57   1 H    1.002 --    27 C    0.972
    58   1 H    1.005 --    29 C    0.972
    59   1 H    0.998 --    30 C    0.975
    60   1 H    1.003 --    35 C    0.972
    61   1 H    1.004 --    37 C    0.984
    62   1 H    1.004 --    37 C    0.982
    63   1 H    1.006 --    37 C    0.971
    64   1 H    1.000 --    38 C    0.972
    65   1 H    1.006 --    40 C    0.971
    66   1 H    1.004 --    40 C    0.981
    67   1 H    1.004 --    40 C    0.984
    68   1 H    1.002 --    41 C    0.972
    69  27 Co   3.069 --   100 N    0.635    75 N    0.634    80 N    0.633
                           101 N    0.633
    70   6 C    3.924 --    71 C    1.364    99 C    1.357   110 H    0.971
    71   6 C    3.925 --    70 C    1.364    75 N    1.202    72 C    1.174
    72   6 C    3.959 --    73 C    1.647    71 C    1.174   111 H    0.975
    73   6 C    3.963 --    72 C    1.647    74 C    1.178   112 H    0.972
    74   6 C    3.922 --    76 C    1.313    75 N    1.219    73 C    1.178
    75   7 N    3.346 --    74 C    1.219    71 C    1.202    69 Co   0.634
    76   6 C    3.929 --    77 C    1.333    74 C    1.313   102 C    1.023
    77   6 C    3.917 --    76 C    1.333    80 N    1.194    78 C    1.181
    78   6 C    3.959 --    79 C    1.636    77 C    1.181   113 H    0.974
    79   6 C    3.963 --    78 C    1.636    81 C    1.192   114 H    0.971
    80   7 N    3.347 --    81 C    1.237    77 C    1.194    69 Co   0.633
    81   6 C    3.910 --    82 C    1.254    80 N    1.237    79 C    1.192
    82   6 C    3.928 --    83 C    1.259    81 C    1.254   138 C    1.187
    83   6 C    3.910 --    82 C    1.259   101 N    1.230    84 C    1.190
    84   6 C    3.962 --    85 C    1.634    83 C    1.190   115 H    0.971
    85   6 C    3.959 --    84 C    1.634    86 C    1.183   116 H    0.974
    86   6 C    3.917 --    87 C    1.324   101 N    1.201    85 C    1.183
    87   6 C    3.929 --    86 C    1.324    96 C    1.321    88 C    1.025
    88   6 C    3.988 --    89 C    1.403    95 C    1.390    87 C    1.025
                            92 C    0.103
    89   6 C    3.986 --    90 C    1.410    88 C    1.403   117 H    0.972
                            93 C    0.104
    90   6 C    3.988 --    92 C    1.423    89 C    1.410    91 C    1.020
                            95 C    0.103
    91   6 C    3.996 --    90 C    1.020   118 H    0.984   120 H    0.981
                           119 H    0.971
    92   6 C    3.989 --    90 C    1.423    93 C    1.408   121 H    0.972
                            88 C    0.103
    93   6 C    3.988 --    95 C    1.425    92 C    1.408    94 C    1.020
                            89 C    0.104
    94   6 C    3.995 --    93 C    1.020   122 H    0.986   123 H    0.977
                           124 H    0.974
    95   6 C    3.985 --    93 C    1.425    88 C    1.390   125 H    0.972
                            90 C    0.103
    96   6 C    3.922 --    87 C    1.321   100 N    1.212    97 C    1.176
    97   6 C    3.963 --    98 C    1.647    96 C    1.176   126 H    0.972
    98   6 C    3.959 --    97 C    1.647    99 C    1.175   127 H    0.975
    99   6 C    3.925 --    70 C    1.357   100 N    1.209    98 C    1.175
   100   7 N    3.344 --    96 C    1.212    99 C    1.209    69 Co   0.635
   101   7 N    3.349 --    83 C    1.230    86 C    1.201    69 Co   0.633
   102   6 C    3.988 --   103 C    1.400   109 C    1.395    76 C    1.023
                           106 C    0.103
   103   6 C    3.986 --   104 C    1.413   102 C    1.400   128 H    0.972
                           107 C    0.104
   104   6 C    3.988 --   106 C    1.419   103 C    1.413   105 C    1.020
                           109 C    0.104
   105   6 C    3.995 --   104 C    1.020   129 H    0.984   130 H    0.982
                           131 H    0.971
   106   6 C    3.989 --   104 C    1.419   107 C    1.412   132 H    0.972
                           102 C    0.103
   107   6 C    3.988 --   109 C    1.420   106 C    1.412   108 C    1.020
                           103 C    0.104
   108   6 C    3.995 --   107 C    1.020   135 H    0.984   134 H    0.981
                           133 H    0.971
   109   6 C    3.985 --   107 C    1.420   102 C    1.395   136 H    0.972
                           104 C    0.104
   110   1 H    1.001 --    70 C    0.971
   111   1 H    0.998 --    72 C    0.975
   112   1 H    1.005 --    73 C    0.972
   113   1 H    1.004 --    78 C    0.974
   114   1 H    1.004 --    79 C    0.971
   115   1 H    1.004 --    84 C    0.971
   116   1 H    1.004 --    85 C    0.974
   117   1 H    1.003 --    89 C    0.972
   118   1 H    1.004 --    91 C    0.984
   119   1 H    1.006 --    91 C    0.971
   120   1 H    1.004 --    91 C    0.981
   121   1 H    1.000 --    92 C    0.972
   122   1 H    1.003 --    94 C    0.986
   123   1 H    1.005 --    94 C    0.977
   124   1 H    1.005 --    94 C    0.974
   125   1 H    1.002 --    95 C    0.972
   126   1 H    1.005 --    97 C    0.972
   127   1 H    0.998 --    98 C    0.975
   128   1 H    1.003 --   103 C    0.972
   129   1 H    1.004 --   105 C    0.984
   130   1 H    1.004 --   105 C    0.982
   131   1 H    1.006 --   105 C    0.971
   132   1 H    1.000 --   106 C    0.972
   133   1 H    1.006 --   108 C    0.971
   134   1 H    1.004 --   108 C    0.981
   135   1 H    1.004 --   108 C    0.984
   136   1 H    1.002 --   109 C    0.972
   137   6 C    3.929 --   138 C    2.560    14 C    1.187
   138   6 C    3.929 --   137 C    2.560    82 C    1.187
 ---------------------------------------------------------------------------

           -------------------------------------------------
          | TOTAL ENERGY             -218.145524238505 Eh   |
          | GRADIENT NORM               0.000293243648 Eh/α |
          | HOMO-LUMO GAP               0.026287698746 eV   |
           -------------------------------------------------

 * finished run on 2022/07/29 at 23:14:11.373
