   * xtb version 6.5.1 (b24c23e) compiled by 'conda@728c89f4b128' on 2022-07-12
          program call               : xtb PhNO2_C4_3.xyz --gfn 1 --opt -T 48

   ID    Z sym.   atoms
    1    6 C      1-5, 7-11, 15-19, 21-26, 28-32, 36-41, 62-66, 68-72, 76-80,
                  82-87, 89-93, 97-102, 123-135, 137-141, 145-149, 151-156,
                  158-162, 166-171
    2    7 N      6, 12, 20, 27, 33, 42, 67, 73, 81, 88, 94, 103, 136, 142,
                  150, 157, 163, 172
    3    8 O      13, 14, 34, 35, 74, 75, 95, 96, 143, 144, 164, 165
    4    1 H      43-61, 104-122, 173-190
########################################################################
[WARNING] Please study the warnings concerning your input carefully
-1- prog_main_parseArguments: Unknown option '-T' provided
########################################################################

          :  Hamiltonian                  GFN1-xTB          :
 * total energy  :  -361.0769603 Eh     change       -0.3132072E-09 Eh
 * total energy  :  -362.3049174 Eh     change       -0.1227957E+01 Eh
 * total energy  :  -362.5400510 Eh     change       -0.2351335E+00 Eh
 * total energy  :  -362.6720971 Eh     change       -0.1320461E+00 Eh
 * total energy  :  -362.7394371 Eh     change       -0.6734006E-01 Eh
 * total energy  :  -362.7797541 Eh     change       -0.4031695E-01 Eh
 * total energy  :  -362.8053734 Eh     change       -0.2561935E-01 Eh
 * total energy  :  -362.8236122 Eh     change       -0.1823878E-01 Eh
 * total energy  :  -362.8372420 Eh     change       -0.1362978E-01 Eh
 * total energy  :  -362.8478341 Eh     change       -0.1059205E-01 Eh
 * total energy  :  -362.8958524 Eh     change       -0.2035532E-04 Eh
 * total energy  :  -362.8958754 Eh     change       -0.2295515E-04 Eh
 * total energy  :  -362.8958885 Eh     change       -0.1311262E-04 Eh
 * total energy  :  -362.8959099 Eh     change       -0.2139112E-04 Eh
 * total energy  :  -362.8959250 Eh     change       -0.1509330E-04 Eh
 * total energy  :  -362.8959309 Eh     change       -0.5946441E-05 Eh
 * total energy  :  -362.8959379 Eh     change       -0.6951411E-05 Eh
 * total energy  :  -362.8959429 Eh     change       -0.5052886E-05 Eh
 * total energy  :  -362.8959462 Eh     change       -0.3257024E-05 Eh
   *** GEOMETRY OPTIMIZATION CONVERGED AFTER 64 ITERATIONS ***

 final structure:
================
190
 xtb: 6.5.1 (b24c23e)
C           29.25292524068835       -0.11107456862454       -0.09893059852494
C           29.87091181847943       -1.31605930094373        0.20884147890549
C           29.22930262968580       -2.56209025442261        0.45730988862297
C           30.19576874174534       -3.48288968510740        0.74752761187655
C           31.45888303587125       -2.82613421635900        0.69462597675476
N           31.21315780080826       -1.52711778483705        0.35414432480017
C           32.72543567425737       -3.38006418848579        0.91650709044203
C           32.76786606620809       -4.80741859896476        1.30946581680615
C           33.45003132927618       -5.73716204871790        0.51817111522399
C           33.49127047408654       -7.07159818883519        0.87826918345773
C           32.84778064237063       -7.48090265581833        2.04280702838717
N           32.88869874706958       -8.88096447719755        2.42637797195992
O           33.50087384514167       -9.63606374288618        1.71557255411785
O           32.30583071958674       -9.20112032415086        3.43046096049482
C           32.16488782849268       -6.57166534443910        2.84559499363269
C           32.12587295700123       -5.24014522905765        2.47399844929066
C           33.93602964684072       -2.69248751772545        0.79229238185604
C           35.23447644795766       -3.27215627799724        1.08726896406129
C           36.14743524855949       -2.31227763392465        0.83322075128353
N           34.08047619870881       -1.39840977433294        0.39703371245793
C           35.40490846116465       -1.14508050085124        0.39747534221511
C           36.03367976476200        0.05825086886685        0.01883558677342
C           35.39084680610126        1.25489160193660       -0.34974806160106
C           36.02814364730464        2.46502003807272       -0.73162247408798
C           35.05603665482674        3.39566696969164       -0.97361210304054
C           33.79405431142264        2.78169692554282       -0.74064228893515
N           34.04790084591185        1.48655128444193       -0.37670092017739
C           32.52648366478926        3.35819924049534       -0.88402572326273
C           32.48478504344166        4.79402075829285       -1.24213751911942
C           31.85274421217029        5.21347112933096       -2.41715872042831
C           31.81104172336073        6.55411325056228       -2.75343858240860
C           32.40224678403104        7.48607985933889       -1.90501581194575
N           32.35880478785069        8.89548117113741       -2.25142866666816
O           31.79825233992943        9.20183906769890       -3.27240355026996
O           32.88655898404390        9.67158796572134       -1.49655497135759
C           33.03524759089164        7.09015893361701       -0.73012346492308
C           33.07640130671413        5.74657221690390       -0.40603983311415
C           31.31354979327281        2.68041592016894       -0.71594167883167
C           30.00256468671223        3.30304320985188       -0.82338561806336
C           29.09810257505737        2.32672680091376       -0.61098709483926
C           29.85479396680457        1.11297139069116       -0.35725090042311
N           31.18551889999182        1.36656922891013       -0.41749132862059
H           28.16848272197014       -0.13705037988834       -0.13233952439137
H           28.16391752000713       -2.72108161740132        0.41121510769823
H           30.05261627272388       -4.52797650593056        0.96909944811639
H           31.93274115174959       -0.82333866594208        0.22704478579250
H           33.93538154960379       -5.40840054999349       -0.39328935880433
H           34.01234384524643       -7.79975554885058        0.26843299262242
H           31.67658950086560       -6.91460146256565        3.74982127877361
H           31.61027642105375       -4.52058881480928        3.09931145516251
H           35.40314901287767       -4.27199317120108        1.45284147122988
H           37.21974356173698       -2.36078980078249        0.93382759063152
H           37.09517667209182        2.59624679670612       -0.81116402577192
H           35.19787720706598        4.41379862948649       -1.29728189689314
H           33.32931153182753        0.80191890131247       -0.16545970814398
H           31.40837949584591        4.47730562363915       -3.07669622715723
H           31.32918773672264        6.88750138700206       -3.66467041886632
H           33.48367196631444        7.83541292474301       -0.08420539719789
H           33.55338217159481        5.42786729713680        0.51352896968428
H           29.82320797486935        4.34759423292723       -1.02041812917570
H           28.02157829720877        2.39230534986250       -0.60804100716227
C           62.87674153316588        0.03873646459550       -0.15163533542464
C           62.26240183788488        1.23120052977429       -0.51119492762816
C           62.90850428287983        2.42665256348193       -0.93492615651802
C           61.94475420447747        3.36636640722668       -1.16778929782517
C           60.67870173110159        2.77673446958363       -0.88669099793381
N           60.92031034985943        1.48819580966470       -0.50585849974028
C           59.41344654405967        3.36495387191687       -1.00157039897441
C           59.37721714654240        4.79183522626477       -1.39764967911886
C           58.71943730203833        5.18669318940103       -2.56678458838689
C           58.68084535517855        6.51875799400870       -2.93634496620169
C           59.30239109038566        7.46620519644768       -2.12776119499838
N           59.26115637175216        8.86707599876788       -2.50837039447376
O           58.67127606594262        9.15343026322235       -3.51830684812537
O           59.82074121338586        9.65616518278464       -1.79085199206371
C           59.96282624059238        7.09438455431765       -0.96025834205826
C           59.99967360485613        5.75915057570324       -0.60234383728251
C           58.19961820991203        2.71224353017654       -0.76913949587837
C           56.90062011665417        3.35672381005179       -0.84919151972013
C           55.98541747176283        2.40692851314643       -0.56727522221486
N           58.05258088150804        1.40558789762899       -0.41865495268000
C           56.72692068370326        1.18948467593240       -0.29944591494235
C           56.09655440492461       -0.02394486947365        0.04134990997500
C           56.73623032987796       -1.22965975894579        0.38456197137825
C           56.09471955550813       -2.45220683962934        0.71685263934280
C           57.06411339862604       -3.37537324574139        0.99495950548138
C           58.32879356727801       -2.74070126299733        0.84737194215627
N           58.07883037826212       -1.44848697027421        0.47042347828860
C           59.59474915587209       -3.31563799620563        1.00921589620565
C           59.63214576203337       -4.72819395378798        1.45081900503903
C           60.24245286990713       -5.70228329179929        0.65409537087260
C           60.27541029079612       -7.02372590384092        1.06001465062680
C           59.69744774571866       -7.37518848421467        2.27668112962992
N           59.72892950446418       -8.76136149278737        2.70789351555224
O           60.26587827577010       -9.55895760475929        1.98264201035413
O           59.21594778966832       -9.02822637715047        3.76439820163472
C           59.08804126997659       -6.42095861650084        3.08653451886320
C           59.05554208857590       -5.10323364975017        2.66864689820348
C           60.80923120211771       -2.65832715649396        0.78159011680405
C           62.11890259274850       -3.25371437097211        1.00069685482931
C           63.02563526799948       -2.31365558461610        0.66828653663547
C           62.27176529619021       -1.14045392264308        0.26152119164009
N           60.94042362269029       -1.38184861989665        0.35157308470460
H           63.96121066861733        0.04072364882372       -0.19334410605086
H           63.97496123062083        2.53830864308942       -1.04743320489027
H           62.09133106238551        4.37646629900024       -1.51425528771231
H           60.19810744036868        0.82038676458461       -0.25738910654566
H           58.25052320139822        4.43816885127771       -3.19465945047798
H           58.17772250705757        6.83346959990461       -3.84269212380402
H           60.43510646521962        7.85148419400418       -0.34589111039220
H           60.49764502407700        5.45943294369306        0.31244606872069
H           56.73254125647757        4.39684616123423       -1.07634596183726
H           54.91206467919861        2.49886889337731       -0.52518270733407
H           55.02683594936537       -2.59862959250007        0.73271792467578
H           56.91831096120423       -4.40841412558757        1.26506283825790
H           58.79980413510620       -0.76211157114473        0.27341468260055
H           60.67592536293596       -5.41893384202988       -0.29784264901532
H           60.73964311833945       -7.78607051315005        0.44603077072444
H           58.65003037388535       -6.71914577027920        4.03147414765160
H           58.59649050686360       -4.34913292435220        3.29734681959851
H           62.29589888782135       -4.24988622488266        1.37269327388124
H           64.10211666310911       -2.37390635423870        0.69583482348820
C           38.66173498941256        0.07860076853780       -0.01577628848202
C           37.43980764652190        0.07631399305282        0.00576698657423
C           40.01080584138411        0.06791734069202       -0.03749352494317
C           41.23270875675125        0.04488525797708       -0.05652870019299
C           52.11882421918894       -0.07149631410525        0.01715221679683
C           50.89695506300952       -0.07622891447482       -0.00621348514689
C           53.46818230785679       -0.05999152031210        0.03456686734989
C           54.69003544922501       -0.04408297216524        0.04511876026675
C           42.63772914015149        0.01404509613725       -0.07151371056485
C           43.27949124090957        1.01232201847648       -0.82919160271478
C           42.64582846821066        2.04463391151876       -1.56819211799604
C           43.62036335329885        2.77476550850158       -2.19169716890358
C           44.87810358923614        2.20408284020625       -1.85451370151234
N           44.62204626850833        1.14965465686900       -1.02062663524850
C           46.14531019427753        2.64009715623713       -2.26226545850657
C           46.17612087112840        3.77560510861804       -3.21426232585642
C           46.80591293031124        4.97476020146995       -2.86728643428646
C           46.84062237415583        6.03339737912227       -3.75654543629278
C           46.24427295453764        5.89034069294103       -5.00610997217723
N           46.28239419961113        6.99682006433591       -5.94640692785997
O           45.74627415150157        6.83976039198503       -7.01332266316647
O           46.84632922565233        8.00286087581336       -5.60074051736562
C           45.61188273073181        4.70530737456960       -5.37105846726920
C           45.57781731133706        3.65480573727872       -4.47233325405947
C           47.36382346976593        2.09578635318751       -1.85139391885346
C           48.65801364265349        2.54706720940742       -2.33214166783681
C           49.58289633670163        1.79478418794520       -1.70152401860279
N           47.52318686342360        1.07220598114830       -0.96883864730050
C           48.85224712097919        0.87600717783523       -0.85049564994758
C           49.49146417628777       -0.07642432744265       -0.03243381242853
C           48.85032479803063       -1.04360840159728        0.76457032279938
C           49.48493302820935       -1.99537481676921        1.60410090231700
C           48.51028999477115       -2.75611953677745        2.18942219688369
C           47.25145960709057       -2.29449162305829        1.71641341393454
N           47.50731671506605       -1.25314539138206        0.86612495504646
C           45.98349489840438       -2.77785099722701        2.06383366519198
C           45.95194663145479       -3.93951509039106        2.98359499693901
C           46.54741705791339       -5.14987241352334        2.61551431051573
C           46.52216167307247       -6.23520029500736        3.47233490015110
C           45.90105768000373       -6.10742637135034        4.71141606729684
N           45.87865334549421       -7.24181420041809        5.61839347974621
O           45.32509597300901       -7.09711676852116        6.67799520650167
O           46.41601184728561       -8.25629263604801        5.25510769974112
C           45.30341770088459       -4.91110528965129        5.09764882787213
C           45.32924503741254       -3.83368685812837        4.23115354810982
C           44.76545178310742       -2.25553109675367        1.62400402333577
C           43.47120766992632       -2.82198768792610        1.96090439199441
C           42.54630260788567       -2.04089529008209        1.36623754095963
C           43.27695926129879       -1.00764577997390        0.65850607107494
N           44.60616878069106       -1.16929592525622        0.81978784144194
H           41.58034993444447        2.20281079802159       -1.61003663081867
H           43.48229495914393        3.63909892620979       -2.82044761962843
H           45.33477734265571        0.55924579519749       -0.60507930663753
H           47.25629701626461        5.07741718558450       -1.88697835835079
H           47.32191746778447        6.96812726660861       -3.49507637939358
H           45.15871962748677        4.61789578852723       -6.35120423164235
H           45.10078103614703        2.72210643485273       -4.75009027516727
H           48.81628549566684        3.32379062783376       -3.06241634637591
H           50.65639873688125        1.82994826678958       -1.79463353647602
H           50.55099507088148       -2.07694997208796        1.74136609985608
H           48.64954771720688       -3.55837742931828        2.89538104920101
H           46.79392101066368       -0.71217356142436        0.38899801685423
H           47.01676625756838       -5.24097976433638        1.64286680358455
H           46.97523101530798       -7.17889066034797        3.19325632655256
H           44.82977599077819       -4.83656140796625        6.06916438234701
H           44.87904713630911       -2.89277291614605        4.52509993934889
H           43.31342030471443       -3.70526782746039        2.55809929912985
H           41.47272324633863       -2.13848329156040        1.38155249387309

          :  Hamiltonian                  GFN1-xTB          :
         :: total energy            -362.895946180182 Eh    ::
         :: gradient norm              0.000524974068 Eh/a0 ::
         :: HOMO-LUMO gap              0.878275923038 eV    ::
         :: SCC energy              -368.107496059513 Eh    ::
         :: repulsion energy           5.374948320853 Eh    ::

    * Orbital Energies and Occupations

         #    Occupation            Energy/Eh            Energy/eV
      -------------------------------------------------------------
         1        2.0000           -0.9247469             -25.1636
       ...           ...                  ...                  ...
       305        2.0000           -0.4435908             -12.0707
       306        2.0000           -0.4432446             -12.0613
       307        2.0000           -0.4425060             -12.0412
       308        2.0000           -0.4423305             -12.0364
       309        2.0000           -0.4412703             -12.0076
       310        2.0000           -0.4404066             -11.9841
       311        2.0000           -0.4403101             -11.9814
       312        2.0000           -0.4261958             -11.5974
       313        2.0000           -0.4245079             -11.5514
       314        2.0000           -0.4243966             -11.5484
       315        2.0000           -0.4168602             -11.3433
       316        2.0000           -0.4103425             -11.1660
       317        2.0000           -0.4029552             -10.9650 (HOMO)
       318                         -0.3706792             -10.0867 (LUMO)
       319                         -0.3630394              -9.8788
       320                         -0.3628085              -9.8725
       321                         -0.3619440              -9.8490
       322                         -0.3596655              -9.7870
       323                         -0.3529136              -9.6033
       324                         -0.3516408              -9.5686
       325                         -0.3509191              -9.5490
       326                         -0.3507626              -9.5447
       327                         -0.3465255              -9.4294
       328                         -0.3453484              -9.3974
       ...                                ...                  ...
       648                          1.4920752              40.6014
      -------------------------------------------------------------
                  HL-Gap            0.0322760 Eh            0.8783 eV

Wiberg/Mayer (AO) data.
largest (>0.10) Wiberg bond orders for each atom

     #   Z sym  total        # sym  WBO       # sym  WBO       # sym  WBO
 ---------------------------------------------------------------------------
     1   6 C    3.926 --    41 C    1.368     2 C    1.347    43 H    0.970
     2   6 C    3.900 --     1 C    1.347     3 C    1.228     6 N    1.169
     3   6 C    3.954 --     4 C    1.598     2 C    1.228    44 H    0.976
     4   6 C    3.958 --     3 C    1.598     5 C    1.232    45 H    0.974
     5   6 C    3.897 --     7 C    1.300     4 C    1.232     6 N    1.181
     6   7 N    3.471 --     5 C    1.181     2 C    1.169    46 H    0.873
     7   6 C    3.936 --    17 C    1.331     5 C    1.300     8 C    1.036
     8   6 C    3.984 --    16 C    1.383     9 C    1.382     7 C    1.036
     9   6 C    3.986 --    10 C    1.464     8 C    1.382    47 H    0.971
                            15 C    0.101
    10   6 C    3.987 --     9 C    1.464    11 C    1.386    48 H    0.965
                            16 C    0.101
    11   6 C    3.940 --    15 C    1.387    10 C    1.386    12 N    0.921
    12   7 N    3.865 --    13 O    1.454    14 O    1.454    11 C    0.921
    13   8 O    1.829 --    12 N    1.454    14 O    0.252
    14   8 O    1.829 --    12 N    1.454    13 O    0.252
    15   6 C    3.987 --    16 C    1.464    11 C    1.387    49 H    0.965
                             9 C    0.101
    16   6 C    3.986 --    15 C    1.464     8 C    1.383    50 H    0.971
                            10 C    0.101
    17   6 C    3.913 --     7 C    1.331    20 N    1.288    18 C    1.124
    18   6 C    3.965 --    19 C    1.711    17 C    1.124    51 H    0.973
    19   6 C    3.963 --    18 C    1.711    21 C    1.127    52 H    0.974
    20   7 N    3.021 --    21 C    1.342    17 C    1.288
    21   6 C    3.907 --    20 N    1.342    22 C    1.256    19 C    1.127
    22   6 C    3.937 --    21 C    1.256    23 C    1.253   124 C    1.188
    23   6 C    3.884 --    22 C    1.253    24 C    1.248    27 N    1.188
    24   6 C    3.959 --    25 C    1.584    23 C    1.248    53 H    0.975
    25   6 C    3.954 --    24 C    1.584    26 C    1.240    54 H    0.974
    26   6 C    3.898 --    28 C    1.305    25 C    1.240    27 N    1.169
    27   7 N    3.475 --    23 C    1.188    26 C    1.169    55 H    0.872
    28   6 C    3.922 --    38 C    1.317    26 C    1.305    29 C    1.038
    29   6 C    3.984 --    37 C    1.382    30 C    1.382    28 C    1.038
    30   6 C    3.985 --    31 C    1.464    29 C    1.382    56 H    0.971
                            36 C    0.101
    31   6 C    3.987 --    30 C    1.464    32 C    1.386    57 H    0.965
                            37 C    0.101
    32   6 C    3.939 --    31 C    1.386    36 C    1.386    33 N    0.921
    33   7 N    3.865 --    34 O    1.454    35 O    1.454    32 C    0.921
    34   8 O    1.828 --    33 N    1.454    35 O    0.251
    35   8 O    1.828 --    33 N    1.454    34 O    0.251
    36   6 C    3.987 --    37 C    1.465    32 C    1.386    58 H    0.965
                            30 C    0.101
    37   6 C    3.985 --    36 C    1.465    29 C    1.382    59 H    0.971
                            31 C    0.101
    38   6 C    3.929 --    42 N    1.320    28 C    1.317    39 C    1.115
    39   6 C    3.967 --    40 C    1.725    38 C    1.115    60 H    0.973
    40   6 C    3.966 --    39 C    1.725    41 C    1.115    61 H    0.975
    41   6 C    3.926 --     1 C    1.368    42 N    1.298    40 C    1.115
    42   7 N    3.011 --    38 C    1.320    41 C    1.298
    43   1 H    1.001 --     1 C    0.970
    44   1 H    0.997 --     3 C    0.976
    45   1 H    1.003 --     4 C    0.974
    46   1 H    0.985 --     6 N    0.873
    47   1 H    1.004 --     9 C    0.971
    48   1 H    1.006 --    10 C    0.965
    49   1 H    1.006 --    15 C    0.965
    50   1 H    1.003 --    16 C    0.971
    51   1 H    1.003 --    18 C    0.973
    52   1 H    1.002 --    19 C    0.974
    53   1 H    1.002 --    24 C    0.975
    54   1 H    1.003 --    25 C    0.974
    55   1 H    0.986 --    27 N    0.872
    56   1 H    1.004 --    30 C    0.971
    57   1 H    1.006 --    31 C    0.965
    58   1 H    1.006 --    36 C    0.965
    59   1 H    1.003 --    37 C    0.971
    60   1 H    1.003 --    39 C    0.973
    61   1 H    0.997 --    40 C    0.975
    62   6 C    3.927 --   102 C    1.368    63 C    1.347   104 H    0.970
    63   6 C    3.900 --    62 C    1.347    64 C    1.228    67 N    1.169
    64   6 C    3.954 --    65 C    1.598    63 C    1.228   105 H    0.976
    65   6 C    3.958 --    64 C    1.598    66 C    1.232   106 H    0.974
    66   6 C    3.897 --    68 C    1.300    65 C    1.232    67 N    1.181
    67   7 N    3.471 --    66 C    1.181    63 C    1.169   107 H    0.873
    68   6 C    3.936 --    78 C    1.331    66 C    1.300    69 C    1.036
    69   6 C    3.984 --    77 C    1.383    70 C    1.383    68 C    1.036
    70   6 C    3.987 --    71 C    1.464    69 C    1.383   108 H    0.971
                            76 C    0.101
    71   6 C    3.987 --    70 C    1.464    72 C    1.387   109 H    0.965
                            77 C    0.101
    72   6 C    3.940 --    76 C    1.387    71 C    1.387    73 N    0.921
    73   7 N    3.865 --    74 O    1.455    75 O    1.454    72 C    0.921
    74   8 O    1.829 --    73 N    1.455    75 O    0.252
    75   8 O    1.828 --    73 N    1.454    74 O    0.252
    76   6 C    3.987 --    77 C    1.464    72 C    1.387   110 H    0.965
                            70 C    0.101
    77   6 C    3.986 --    76 C    1.464    69 C    1.383   111 H    0.971
                            71 C    0.101
    78   6 C    3.914 --    68 C    1.331    81 N    1.288    79 C    1.123
    79   6 C    3.965 --    80 C    1.712    78 C    1.123   112 H    0.973
    80   6 C    3.963 --    79 C    1.712    82 C    1.126   113 H    0.974
    81   7 N    3.021 --    82 C    1.342    78 C    1.288
    82   6 C    3.907 --    81 N    1.342    83 C    1.257    80 C    1.126
    83   6 C    3.937 --    82 C    1.257    84 C    1.254   130 C    1.187
    84   6 C    3.884 --    83 C    1.254    85 C    1.248    88 N    1.188
    85   6 C    3.959 --    86 C    1.584    84 C    1.248   114 H    0.974
    86   6 C    3.954 --    85 C    1.584    87 C    1.239   115 H    0.974
    87   6 C    3.898 --    89 C    1.305    86 C    1.239    88 N    1.169
    88   7 N    3.475 --    84 C    1.188    87 C    1.169   116 H    0.872
    89   6 C    3.922 --    99 C    1.317    87 C    1.305    90 C    1.038
    90   6 C    3.984 --    98 C    1.382    91 C    1.382    89 C    1.038
    91   6 C    3.986 --    92 C    1.464    90 C    1.382   117 H    0.971
                            97 C    0.101
    92   6 C    3.987 --    91 C    1.464    93 C    1.386   118 H    0.965
                            98 C    0.101
    93   6 C    3.940 --    97 C    1.386    92 C    1.386    94 N    0.921
    94   7 N    3.865 --    95 O    1.454    96 O    1.454    93 C    0.921
    95   8 O    1.828 --    94 N    1.454    96 O    0.251
    96   8 O    1.828 --    94 N    1.454    95 O    0.251
    97   6 C    3.987 --    98 C    1.465    93 C    1.386   119 H    0.965
                            91 C    0.101
    98   6 C    3.985 --    97 C    1.465    90 C    1.382   120 H    0.971
                            92 C    0.101
    99   6 C    3.929 --   103 N    1.320    89 C    1.317   100 C    1.115
   100   6 C    3.967 --   101 C    1.725    99 C    1.115   121 H    0.973
   101   6 C    3.966 --   100 C    1.725   102 C    1.115   122 H    0.975
   102   6 C    3.926 --    62 C    1.368   103 N    1.298   101 C    1.115
   103   7 N    3.012 --    99 C    1.320   102 C    1.298
   104   1 H    1.001 --    62 C    0.970
   105   1 H    0.997 --    64 C    0.976
   106   1 H    1.003 --    65 C    0.974
   107   1 H    0.985 --    67 N    0.873
   108   1 H    1.004 --    70 C    0.971
   109   1 H    1.006 --    71 C    0.965
   110   1 H    1.006 --    76 C    0.965
   111   1 H    1.003 --    77 C    0.971
   112   1 H    1.004 --    79 C    0.973
   113   1 H    1.002 --    80 C    0.974
   114   1 H    1.002 --    85 C    0.974
   115   1 H    1.003 --    86 C    0.974
   116   1 H    0.986 --    88 N    0.872
   117   1 H    1.004 --    91 C    0.971
   118   1 H    1.006 --    92 C    0.965
   119   1 H    1.006 --    97 C    0.965
   120   1 H    1.003 --    98 C    0.971
   121   1 H    1.003 --   100 C    0.973
   122   1 H    0.997 --   101 C    0.975
   123   6 C    3.933 --   124 C    2.474   125 C    1.309
   124   6 C    3.923 --   123 C    2.474    22 C    1.188   126 C    0.198
   125   6 C    3.930 --   126 C    2.473   123 C    1.309
   126   6 C    3.925 --   125 C    2.473   131 C    1.191   124 C    0.198
   127   6 C    3.930 --   128 C    2.474   129 C    1.308
   128   6 C    3.925 --   127 C    2.474   152 C    1.190   130 C    0.198
   129   6 C    3.933 --   130 C    2.476   127 C    1.308
   130   6 C    3.923 --   129 C    2.476    83 C    1.187   128 C    0.198
   131   6 C    3.925 --   171 C    1.256   132 C    1.249   126 C    1.191
   132   6 C    3.885 --   133 C    1.252   131 C    1.249   136 N    1.188
   133   6 C    3.955 --   134 C    1.578   132 C    1.252   173 H    0.975
   134   6 C    3.955 --   133 C    1.578   135 C    1.245   174 H    0.974
   135   6 C    3.894 --   137 C    1.296   134 C    1.245   136 N    1.170
   136   7 N    3.472 --   132 C    1.188   135 C    1.170   175 H    0.873
   137   6 C    3.925 --   147 C    1.335   135 C    1.296   138 C    1.034
   138   6 C    3.984 --   146 C    1.384   139 C    1.383   137 C    1.034
   139   6 C    3.986 --   140 C    1.463   138 C    1.383   176 H    0.971
                           145 C    0.102
   140   6 C    3.987 --   139 C    1.463   141 C    1.387   177 H    0.964
                           146 C    0.102
   141   6 C    3.941 --   140 C    1.387   145 C    1.387   142 N    0.920
   142   7 N    3.866 --   144 O    1.455   143 O    1.454   141 C    0.920
   143   8 O    1.829 --   142 N    1.454   144 O    0.252
   144   8 O    1.830 --   142 N    1.455   143 O    0.252
   145   6 C    3.987 --   146 C    1.464   141 C    1.387   178 H    0.964
                           139 C    0.102
   146   6 C    3.986 --   145 C    1.464   138 C    1.384   179 H    0.971
                           140 C    0.102
   147   6 C    3.916 --   137 C    1.335   150 N    1.286   148 C    1.123
   148   6 C    3.966 --   149 C    1.712   147 C    1.123   180 H    0.973
   149   6 C    3.964 --   148 C    1.712   151 C    1.127   181 H    0.974
   150   7 N    3.009 --   151 C    1.342   147 C    1.286
   151   6 C    3.908 --   150 N    1.342   152 C    1.256   149 C    1.127
   152   6 C    3.925 --   151 C    1.256   153 C    1.250   128 C    1.190
   153   6 C    3.885 --   154 C    1.252   152 C    1.250   157 N    1.188
   154   6 C    3.955 --   155 C    1.578   153 C    1.252   182 H    0.975
   155   6 C    3.955 --   154 C    1.578   156 C    1.244   183 H    0.974
   156   6 C    3.894 --   158 C    1.297   155 C    1.244   157 N    1.169
   157   7 N    3.472 --   153 C    1.188   156 C    1.169   184 H    0.873
   158   6 C    3.925 --   168 C    1.335   156 C    1.297   159 C    1.034
   159   6 C    3.984 --   160 C    1.384   167 C    1.383   158 C    1.034
   160   6 C    3.986 --   161 C    1.463   159 C    1.384   185 H    0.971
                           166 C    0.101
   161   6 C    3.987 --   160 C    1.463   162 C    1.387   186 H    0.964
                           167 C    0.102
   162   6 C    3.941 --   161 C    1.387   166 C    1.387   163 N    0.920
   163   7 N    3.866 --   165 O    1.455   164 O    1.454   162 C    0.920
   164   8 O    1.829 --   163 N    1.454   165 O    0.252
   165   8 O    1.830 --   163 N    1.455   164 O    0.252
   166   6 C    3.987 --   167 C    1.464   162 C    1.387   187 H    0.964
                           160 C    0.101
   167   6 C    3.986 --   166 C    1.464   159 C    1.383   188 H    0.971
                           161 C    0.102
   168   6 C    3.916 --   158 C    1.335   172 N    1.286   169 C    1.123
   169   6 C    3.966 --   170 C    1.712   168 C    1.123   189 H    0.973
   170   6 C    3.963 --   169 C    1.712   171 C    1.127   190 H    0.974
   171   6 C    3.907 --   172 N    1.342   131 C    1.256   170 C    1.127
   172   7 N    3.009 --   171 C    1.342   168 C    1.286
   173   1 H    1.001 --   133 C    0.975
   174   1 H    1.003 --   134 C    0.974
   175   1 H    0.986 --   136 N    0.873
   176   1 H    1.003 --   139 C    0.971
   177   1 H    1.006 --   140 C    0.964
   178   1 H    1.006 --   145 C    0.964
   179   1 H    1.003 --   146 C    0.971
   180   1 H    1.004 --   148 C    0.973
   181   1 H    1.002 --   149 C    0.974
   182   1 H    1.001 --   154 C    0.975
   183   1 H    1.003 --   155 C    0.974
   184   1 H    0.986 --   157 N    0.873
   185   1 H    1.003 --   160 C    0.971
   186   1 H    1.006 --   161 C    0.964
   187   1 H    1.006 --   166 C    0.964
   188   1 H    1.003 --   167 C    0.971
   189   1 H    1.003 --   169 C    0.973
   190   1 H    1.002 --   170 C    0.974
 ---------------------------------------------------------------------------

           -------------------------------------------------
          | TOTAL ENERGY             -362.895946180182 Eh   |
          | GRADIENT NORM               0.000524974068 Eh/α |
          | HOMO-LUMO GAP               0.878275923038 eV   |
           -------------------------------------------------

 * finished run on 2022/07/30 at 06:14:11.960
