   * xtb version 6.5.1 (b24c23e) compiled by 'conda@728c89f4b128' on 2022-07-12
          program call               : xtb Ni_Ph3Me_C4_2.xyz --gfn 1 --opt -T 48

   ID    Z sym.   atoms
    1   28 Ni     1, 75
    2    6 C      2-6, 8-20, 22-27, 29-42, 76-80, 82-94, 96-101, 103-116,
                  149-152
    3    7 N      7, 21, 28, 43, 81, 95, 102, 117
    4    1 H      44-74, 118-148
########################################################################
[WARNING] Please study the warnings concerning your input carefully
-1- prog_main_parseArguments: Unknown option '-T' provided
########################################################################

          :  Hamiltonian                  GFN1-xTB          :
 * total energy  :  -235.7196038 Eh     change       -0.1978151E-09 Eh
 * total energy  :  -236.2581705 Eh     change       -0.5385667E+00 Eh
 * total energy  :  -236.3420317 Eh     change       -0.8386119E-01 Eh
 * total energy  :  -236.3830186 Eh     change       -0.4098687E-01 Eh
 * total energy  :  -236.3944942 Eh     change       -0.1147560E-01 Eh
 * total energy  :  -236.4006470 Eh     change       -0.6152852E-02 Eh
 * total energy  :  -236.4037416 Eh     change       -0.3094581E-02 Eh
 * total energy  :  -236.4053200 Eh     change       -0.1578414E-02 Eh
 * total energy  :  -236.4065358 Eh     change       -0.1215820E-02 Eh
 * total energy  :  -236.4071781 Eh     change       -0.6422536E-03 Eh
 * total energy  :  -236.4094636 Eh     change       -0.2913500E-04 Eh
 * total energy  :  -236.4094856 Eh     change       -0.2191471E-04 Eh
 * total energy  :  -236.4095165 Eh     change       -0.3098965E-04 Eh
 * total energy  :  -236.4095422 Eh     change       -0.2566519E-04 Eh
 * total energy  :  -236.4095654 Eh     change       -0.2320602E-04 Eh
 * total energy  :  -236.4095928 Eh     change       -0.2735743E-04 Eh
 * total energy  :  -236.4096101 Eh     change       -0.1735951E-04 Eh
 * total energy  :  -236.4096161 Eh     change       -0.5986184E-05 Eh
 * total energy  :  -236.4096209 Eh     change       -0.4750986E-05 Eh
   *** GEOMETRY OPTIMIZATION CONVERGED AFTER 37 ITERATIONS ***

 final structure:
================
152
 xtb: 6.5.1 (b24c23e)
Ni          15.78331101792629        0.06494511882477        0.02904468195253
C           12.38126442401712        0.13335804469182       -0.02880589034707
C           13.04222713982924        1.21510542487621        0.51490111934885
C           12.37311338101603        2.35831204915340        1.05809859707625
C           13.33786739881630        3.22538714261432        1.44497585793373
C           14.59503902967003        2.61015098901115        1.13583095254965
N           14.40441292545790        1.36998511977731        0.57967632603148
C           15.81964769310873        3.22545500428325        1.34486813573349
C           15.83625381629515        4.60710379933784        1.90366293696647
C           15.72495139943174        5.70453448820385        1.04490156650117
C           15.58669981259741        5.48769873034800       -0.43850230664404
C           15.74267731354602        6.98983238626801        1.57355583290051
C           15.86780305576900        7.19757099847919        2.94328077898273
C           15.90719603700854        8.59441932252221        3.50180171751370
C           15.97729004709154        6.09790140529243        3.78827175994395
C           15.96247567825549        4.80359654961990        3.28178319806722
C           16.07948675674672        3.61830478156351        4.20257333547866
C           17.02910091951566        2.61737063907277        1.04837740308893
C           18.29736327749614        3.24806778370637        1.25371255012859
C           19.24339704569757        2.34610273333337        0.89799771976490
N           17.19632612332812        1.34200895082615        0.55726309692939
C           18.55070685761436        1.16965109333992        0.47611432012679
C           19.20539880675095        0.00323192550278        0.07107560899386
C           18.51864961050142       -1.14100730558913       -0.34388512785558
C           19.17816329367914       -2.34441684209905       -0.74198112862536
C           18.20894486806969       -3.21441370357353       -1.11476416584644
C           16.95990745562912       -2.53598768854730       -0.94700038608109
N           17.16112213939501       -1.26496572436015       -0.45718488560102
C           15.73771302329448       -3.09735691386272       -1.28123648551627
C           15.71593377934457       -4.47758431047970       -1.84341380660521
C           15.90071748492993       -4.67665363531250       -3.21521726800380
C           16.12530709571212       -3.49683598552711       -4.12303485390052
C           15.87518024007740       -5.96803787810598       -3.72674732588262
C           15.66914611487318       -7.06395098388775       -2.89342434601535
C           15.63523980127146       -8.45313806117148       -3.47119842098220
C           15.48611178697120       -6.85393935771895       -1.53160115672558
C           15.50728436717352       -5.57012063111218       -0.99749399401710
C           15.30739372511431       -5.35191222745122        0.47868990162167
C           14.53226150407603       -2.43289877964773       -1.11497200336467
C           13.26280444700527       -2.99627366038662       -1.46954539760803
C           12.32114824754147       -2.09005088893779       -1.11691811908989
C           13.01664971491001       -0.97480482219040       -0.54928563746404
N           14.37278957914164       -1.18522160059889       -0.56575934605316
H           11.29787461277462        0.15541875659377       -0.04810295095444
H           11.30185820169088        2.46481141717362        1.12278453186655
H           13.22835557708841        4.19742129303566        1.89838008017050
H           14.66569972899212        4.94362994642986       -0.65697400528553
H           16.42167746248398        4.89414888563991       -0.81516886875129
H           15.56404286159827        6.43831884697646       -0.97046972069795
H           15.65639867295317        7.84174261814272        0.90700428077890
H           15.49061140395484        8.62210667943707        4.50897690739098
H           16.94072155067452        8.94505236861749        3.55234802977988
H           15.34652112485553        9.28230468690433        2.86848839451652
H           16.07410442356144        6.25081361528741        4.85819629756803
H           16.98227080073614        3.04882619996240        3.97337372392907
H           16.12345883388715        3.93691399033638        5.24358367164092
H           15.22405174667204        2.95245626180075        4.07494509431566
H           18.42935048143740        4.25165034948323        1.62435686260546
H           20.31623932438751        2.45064546802986        0.91647259111392
H           20.24660883554349       -2.48797918695662       -0.73260471513820
H           18.31315769797919       -4.22531539283414       -1.47420442261656
H           15.31700034971119       -2.77196772368645       -4.01175133925614
H           16.17378946360874       -3.81144970298414       -5.16506152554739
H           17.06057406292110       -2.99533218641971       -3.86662745585418
H           16.01804277254913       -6.12391563627535       -4.79109913649295
H           16.50156159772105       -8.62191940616690       -4.11265374095285
H           15.63154555656758       -9.20493273401771       -2.68209909102899
H           14.73693405027688       -8.58517671953331       -4.07803842991976
H           15.32503704488083       -7.70159443416333       -0.87356754091724
H           14.39435561911636       -4.78004548143732        0.65595092935767
H           16.14176540477093       -4.78539567395794        0.89594963065058
H           15.23004755977831       -6.30247700898227        1.00562458598163
H           13.12986325795752       -3.96280034912927       -1.92843234318771
H           11.24946505313645       -2.15253876622663       -1.22030875738503
Ni          29.23296194468002       -0.06701569159331       -0.02239937696403
C           32.63504458824791       -0.07685834685174       -0.10968569712515
C           31.97410708369886       -1.23363584181967       -0.46702223135463
C           32.64325753025697       -2.43440963176279       -0.86716945367651
C           31.67855473484673       -3.32762774336712       -1.18928934168431
C           30.42135639037810       -2.66974858842628       -0.98610712063464
N           30.61192647293453       -1.39008962323353       -0.52804848268920
C           29.19681961954436       -3.25838224229826       -1.26173686743311
C           29.18048432148658       -4.64175146322912       -1.81629328779548
C           29.29199245783215       -4.83784561993358       -3.19591762199141
C           29.43012353248843       -3.65354853315716       -4.11514468263964
C           29.27463721570045       -6.13084197621437       -3.70546455885691
C           29.14967619381922       -7.22983370075711       -2.86192130576756
C           29.11066643050783       -8.62396483555664       -3.42722561288077
C           29.04000785055737       -7.02259125667447       -1.49068707447941
C           29.05447088491119       -5.73845779026645       -0.95891495932192
C           28.93733188958976       -5.52203855020834        0.52631038963850
C           27.98728800114883       -2.61460299191412       -1.05429318950512
C           26.71905102408373       -3.21183382285989       -1.34302689086734
C           25.77298089549384       -2.31497352709464       -0.97474425496093
N           27.81999818598205       -1.35456476977700       -0.52521212276959
C           26.46562088103646       -1.17407861686189       -0.46433757961120
C           25.81084177103480       -0.05199830311365        0.05079858386320
C           26.49746576047993        1.06095483374266        0.54377095153195
C           25.83791634401480        2.20502866289719        1.08932786494405
C           26.80709625330027        3.09111356788912        1.42217789298990
C           28.05616614162004        2.48534909475173        1.07383641932479
N           27.85503726332833        1.22886189384845        0.54780223493146
C           29.27827963217010        3.12201791327263        1.22117575498735
C           29.29969783489679        4.50770895341832        1.76974460939843
C           29.11506842342136        5.60012640582154        0.91641212615823
C           28.89101572111775        5.37565355722310       -0.55530826232828
C           29.14020460466471        6.88669778951849        1.43994027631477
C           29.34567487327338        7.10209279258143        2.79982634066559
C           29.37918679080008        8.50512853080233        3.34312822843074
C           29.52849918984575        6.00867632032908        3.63838609425438
C           29.50771428038838        4.71194821771617        3.13640002124200
C           29.70729048628338        3.53353304391450        4.05193011196323
C           30.48387101675020        2.52727422322167        0.88193732514181
C           31.75331899291466        3.17920365975915        1.01650355788683
C           32.69507357862715        2.28089750155627        0.64440001538581
C           31.99962891572607        1.08314602484304        0.28185359454158
N           30.64343993479550        1.24657941311678        0.41489927654447
H           33.71844503865234       -0.07950619411784       -0.13850188466667
H           33.71451101355913       -2.55607142429807       -0.89402931287269
H           31.78810629299559       -4.34270342492612       -1.53575050707319
H           30.35096113269973       -3.10967990406674       -3.89548886852448
H           28.59496034441333       -2.96479454441595       -3.97556262013287
H           29.45303741679255       -3.97030099623389       -5.15741420723736
H           29.36109991210024       -6.28311426450667       -4.77636418307994
H           29.52733813399077       -9.34177369011891       -2.72022603427601
H           28.07722485586552       -8.91202094047334       -3.63386727336908
H           29.67144954188652       -8.68092822047762       -4.36044888424400
H           28.94335612405339       -7.87428781749603       -0.82528194653396
H           28.03437333985492       -4.95290245655051        0.75566722274454
H           28.89361626647831       -6.47315564092191        1.05603626735371
H           29.79258919966447       -4.95330135805101        0.89574964827486
H           26.58711954319802       -4.19239896921530       -1.77088492307774
H           24.70012281822308       -2.40316092892018       -1.03369711030639
H           24.76947712429641        2.30208790170601        1.19551995513185
H           26.70280621169475        4.06962639001831        1.86219585768485
H           29.69959870589432        4.77529654618309       -0.97595279652574
H           28.84248088383377        6.32351551493731       -1.09043233551256
H           27.95592663929079        4.83586379811427       -0.71721520142264
H           28.99744893717053        7.73529577442910        0.77883753679961
H           28.51299541019707        9.07055795786472        2.99604480697249
H           29.38233769690858        8.50252277522251        4.43302272257978
H           30.27762556113555        9.02021709983932        2.99652246191005
H           29.68908213848657        6.16595298013917        4.69996491907209
H           30.62043636801764        2.99786653117967        3.78488778701927
H           28.87296034472364        2.83574955412766        3.96127912470943
H           29.78422627826802        3.85581922676673        5.08992363558783
H           31.88618591919074        4.19444803150405        1.35421541852677
H           33.76678515003464        2.39745301152515        0.61354869280626
C           21.83287575780267       -0.02481668824776        0.08251555013589
C           20.61129156100889       -0.01759154510891        0.07882096111418
C           23.18364428805417       -0.03473677422316        0.07818583072544
C           24.40500374079891       -0.04266970568282        0.07044108180556

          :  Hamiltonian                  GFN1-xTB          :
         :: total energy            -236.409620869896 Eh    ::
         :: gradient norm              0.000581757686 Eh/a0 ::
         :: HOMO-LUMO gap              1.199173634153 eV    ::
         :: SCC energy              -240.142562183136 Eh    ::
         :: repulsion energy           3.870313872562 Eh    ::

    * Orbital Energies and Occupations

         #    Occupation            Energy/Eh            Energy/eV
      -------------------------------------------------------------
         1        2.0000           -0.7788954             -21.1948
       ...           ...                  ...                  ...
       209        2.0000           -0.4191986             -11.4070
       210        2.0000           -0.3966944             -10.7946
       211        2.0000           -0.3966805             -10.7942
       212        2.0000           -0.3962806             -10.7833
       213        2.0000           -0.3962805             -10.7833
       214        2.0000           -0.3955403             -10.7632
       215        2.0000           -0.3955398             -10.7632
       216        2.0000           -0.3945544             -10.7364
       217        2.0000           -0.3944869             -10.7345
       218        2.0000           -0.3944856             -10.7345
       219        2.0000           -0.3944586             -10.7338
       220        2.0000           -0.3943903             -10.7319
       221        2.0000           -0.3820552             -10.3963 (HOMO)
       222                         -0.3379864              -9.1971 (LUMO)
       223                         -0.3271826              -8.9031
       224                         -0.3271773              -8.9029
       225                         -0.3258671              -8.8673
       226                         -0.3258663              -8.8673
       227                         -0.3243282              -8.8254
       228                         -0.2950905              -8.0298
       229                         -0.2867576              -7.8031
       230                         -0.2585800              -7.0363
       231                         -0.2559496              -6.9647
       232                         -0.2559288              -6.9642
       ...                                ...                  ...
       494                          1.5193327              41.3431
      -------------------------------------------------------------
                  HL-Gap            0.0440688 Eh            1.1992 eV

Wiberg/Mayer (AO) data.
largest (>0.10) Wiberg bond orders for each atom

     #   Z sym  total        # sym  WBO       # sym  WBO       # sym  WBO
 ---------------------------------------------------------------------------
     1  28 Ni   3.013 --    43 N    0.665     7 N    0.665    28 N    0.663
                            21 N    0.662
     2   6 C    3.933 --    42 C    1.363     3 C    1.363    44 H    0.970
     3   6 C    3.925 --     2 C    1.363     7 N    1.215     4 C    1.175
     4   6 C    3.959 --     5 C    1.649     3 C    1.175    45 H    0.975
     5   6 C    3.963 --     4 C    1.649     6 C    1.176    46 H    0.974
     6   6 C    3.919 --     8 C    1.328     7 N    1.218     5 C    1.176
     7   7 N    3.402 --     6 C    1.218     3 C    1.215     1 Ni   0.665
     8   6 C    3.939 --    18 C    1.334     6 C    1.328     9 C    1.004
     9   6 C    3.987 --    16 C    1.381    10 C    1.380     8 C    1.004
                            13 C    0.104
    10   6 C    3.985 --    12 C    1.421     9 C    1.380    11 C    1.020
                            15 C    0.103
    11   6 C    3.996 --    10 C    1.020    49 H    0.986    48 H    0.975
                            47 H    0.973
    12   6 C    3.993 --    10 C    1.421    13 C    1.414    50 H    0.970
                            16 C    0.103
    13   6 C    3.988 --    12 C    1.414    15 C    1.414    14 C    1.020
                             9 C    0.104
    14   6 C    3.996 --    13 C    1.020    53 H    0.983    51 H    0.983
                            52 H    0.971
    15   6 C    3.993 --    16 C    1.421    13 C    1.414    54 H    0.970
                            10 C    0.103
    16   6 C    3.985 --    15 C    1.421     9 C    1.381    17 C    1.020
                            12 C    0.103
    17   6 C    3.996 --    16 C    1.020    56 H    0.986    57 H    0.975
                            55 H    0.973
    18   6 C    3.915 --     8 C    1.334    21 N    1.203    19 C    1.182
    19   6 C    3.959 --    20 C    1.636    18 C    1.182    58 H    0.974
    20   6 C    3.961 --    19 C    1.636    22 C    1.191    59 H    0.973
    21   7 N    3.407 --    22 C    1.240    18 C    1.203     1 Ni   0.662
    22   6 C    3.906 --    23 C    1.264    21 N    1.240    20 C    1.191
    23   6 C    3.943 --    24 C    1.264    22 C    1.264   150 C    1.181
    24   6 C    3.906 --    23 C    1.264    28 N    1.240    25 C    1.191
    25   6 C    3.961 --    26 C    1.636    24 C    1.191    60 H    0.973
    26   6 C    3.959 --    25 C    1.636    27 C    1.183    61 H    0.974
    27   6 C    3.915 --    29 C    1.334    28 N    1.203    26 C    1.183
    28   7 N    3.407 --    24 C    1.240    27 C    1.203     1 Ni   0.663
    29   6 C    3.939 --    27 C    1.334    39 C    1.328    30 C    1.004
    30   6 C    3.987 --    37 C    1.384    31 C    1.377    29 C    1.004
                            34 C    0.104
    31   6 C    3.985 --    33 C    1.425    30 C    1.377    32 C    1.020
                            36 C    0.102
    32   6 C    3.996 --    31 C    1.020    63 H    0.986    62 H    0.975
                            64 H    0.973
    33   6 C    3.993 --    31 C    1.425    34 C    1.409    65 H    0.971
                            37 C    0.103
    34   6 C    3.988 --    36 C    1.419    33 C    1.409    35 C    1.020
                            30 C    0.104
    35   6 C    3.996 --    34 C    1.020    67 H    0.986    66 H    0.978
                            68 H    0.973
    36   6 C    3.993 --    34 C    1.419    37 C    1.416    69 H    0.970
                            31 C    0.102
    37   6 C    3.985 --    36 C    1.416    30 C    1.384    38 C    1.020
                            33 C    0.103
    38   6 C    3.996 --    37 C    1.020    72 H    0.986    71 H    0.975
                            70 H    0.973
    39   6 C    3.919 --    29 C    1.328    43 N    1.218    40 C    1.176
    40   6 C    3.963 --    41 C    1.649    39 C    1.176    73 H    0.974
    41   6 C    3.959 --    40 C    1.649    42 C    1.175    74 H    0.975
    42   6 C    3.925 --     2 C    1.363    43 N    1.215    41 C    1.175
    43   7 N    3.402 --    39 C    1.218    42 C    1.215     1 Ni   0.665
    44   1 H    1.000 --     2 C    0.970
    45   1 H    0.998 --     4 C    0.975
    46   1 H    1.002 --     5 C    0.974
    47   1 H    1.008 --    11 C    0.973
    48   1 H    1.007 --    11 C    0.975
    49   1 H    1.004 --    11 C    0.986
    50   1 H    1.000 --    12 C    0.970
    51   1 H    1.004 --    14 C    0.983
    52   1 H    1.006 --    14 C    0.971
    53   1 H    1.004 --    14 C    0.983
    54   1 H    1.000 --    15 C    0.970
    55   1 H    1.008 --    17 C    0.973
    56   1 H    1.004 --    17 C    0.986
    57   1 H    1.007 --    17 C    0.975
    58   1 H    1.002 --    19 C    0.974
    59   1 H    1.002 --    20 C    0.973
    60   1 H    1.002 --    25 C    0.973
    61   1 H    1.002 --    26 C    0.974
    62   1 H    1.007 --    32 C    0.975
    63   1 H    1.004 --    32 C    0.986
    64   1 H    1.008 --    32 C    0.973
    65   1 H    0.999 --    33 C    0.971
    66   1 H    1.005 --    35 C    0.978
    67   1 H    1.004 --    35 C    0.986
    68   1 H    1.006 --    35 C    0.973
    69   1 H    1.000 --    36 C    0.970
    70   1 H    1.008 --    38 C    0.973
    71   1 H    1.007 --    38 C    0.975
    72   1 H    1.004 --    38 C    0.986
    73   1 H    1.002 --    40 C    0.974
    74   1 H    0.998 --    41 C    0.975
    75  28 Ni   3.013 --   117 N    0.665    81 N    0.665   102 N    0.663
                            95 N    0.662
    76   6 C    3.933 --   116 C    1.363    77 C    1.363   118 H    0.970
    77   6 C    3.925 --    76 C    1.363    81 N    1.215    78 C    1.175
    78   6 C    3.959 --    79 C    1.649    77 C    1.175   119 H    0.975
    79   6 C    3.963 --    78 C    1.649    80 C    1.176   120 H    0.974
    80   6 C    3.919 --    82 C    1.328    81 N    1.218    79 C    1.176
    81   7 N    3.402 --    80 C    1.218    77 C    1.215    75 Ni   0.665
    82   6 C    3.939 --    92 C    1.334    80 C    1.328    83 C    1.004
    83   6 C    3.987 --    90 C    1.381    84 C    1.380    82 C    1.004
                            87 C    0.104
    84   6 C    3.985 --    86 C    1.421    83 C    1.380    85 C    1.020
                            89 C    0.103
    85   6 C    3.996 --    84 C    1.020   123 H    0.986   122 H    0.975
                           121 H    0.973
    86   6 C    3.993 --    84 C    1.421    87 C    1.414   124 H    0.970
                            90 C    0.103
    87   6 C    3.988 --    86 C    1.414    89 C    1.414    88 C    1.020
                            83 C    0.104
    88   6 C    3.996 --    87 C    1.020   127 H    0.983   125 H    0.983
                           126 H    0.971
    89   6 C    3.993 --    90 C    1.421    87 C    1.414   128 H    0.970
                            84 C    0.103
    90   6 C    3.985 --    89 C    1.421    83 C    1.381    91 C    1.020
                            86 C    0.103
    91   6 C    3.996 --    90 C    1.020   130 H    0.986   131 H    0.975
                           129 H    0.973
    92   6 C    3.915 --    82 C    1.334    95 N    1.203    93 C    1.182
    93   6 C    3.959 --    94 C    1.636    92 C    1.182   132 H    0.974
    94   6 C    3.961 --    93 C    1.636    96 C    1.191   133 H    0.973
    95   7 N    3.407 --    96 C    1.240    92 C    1.203    75 Ni   0.662
    96   6 C    3.906 --    97 C    1.264    95 N    1.240    94 C    1.191
    97   6 C    3.943 --    98 C    1.264    96 C    1.264   152 C    1.181
    98   6 C    3.906 --    97 C    1.264   102 N    1.240    99 C    1.191
    99   6 C    3.961 --   100 C    1.636    98 C    1.191   134 H    0.973
   100   6 C    3.959 --    99 C    1.636   101 C    1.183   135 H    0.974
   101   6 C    3.915 --   103 C    1.334   102 N    1.203   100 C    1.183
   102   7 N    3.407 --    98 C    1.240   101 C    1.203    75 Ni   0.663
   103   6 C    3.939 --   101 C    1.334   113 C    1.328   104 C    1.004
   104   6 C    3.987 --   111 C    1.384   105 C    1.377   103 C    1.004
                           108 C    0.104
   105   6 C    3.985 --   107 C    1.425   104 C    1.377   106 C    1.020
                           110 C    0.102
   106   6 C    3.996 --   105 C    1.020   137 H    0.986   136 H    0.975
                           138 H    0.973
   107   6 C    3.993 --   105 C    1.425   108 C    1.409   139 H    0.971
                           111 C    0.103
   108   6 C    3.988 --   110 C    1.419   107 C    1.409   109 C    1.020
                           104 C    0.104
   109   6 C    3.996 --   108 C    1.020   141 H    0.986   140 H    0.978
                           142 H    0.973
   110   6 C    3.993 --   108 C    1.419   111 C    1.416   143 H    0.970
                           105 C    0.102
   111   6 C    3.985 --   110 C    1.416   104 C    1.384   112 C    1.020
                           107 C    0.103
   112   6 C    3.996 --   111 C    1.020   146 H    0.986   145 H    0.975
                           144 H    0.973
   113   6 C    3.919 --   103 C    1.328   117 N    1.218   114 C    1.176
   114   6 C    3.963 --   115 C    1.649   113 C    1.176   147 H    0.974
   115   6 C    3.959 --   114 C    1.649   116 C    1.175   148 H    0.975
   116   6 C    3.925 --    76 C    1.363   117 N    1.215   115 C    1.175
   117   7 N    3.402 --   113 C    1.218   116 C    1.215    75 Ni   0.665
   118   1 H    1.000 --    76 C    0.970
   119   1 H    0.998 --    78 C    0.975
   120   1 H    1.002 --    79 C    0.974
   121   1 H    1.008 --    85 C    0.973
   122   1 H    1.007 --    85 C    0.975
   123   1 H    1.004 --    85 C    0.986
   124   1 H    1.000 --    86 C    0.970
   125   1 H    1.004 --    88 C    0.983
   126   1 H    1.006 --    88 C    0.971
   127   1 H    1.004 --    88 C    0.983
   128   1 H    1.000 --    89 C    0.970
   129   1 H    1.008 --    91 C    0.973
   130   1 H    1.004 --    91 C    0.986
   131   1 H    1.007 --    91 C    0.975
   132   1 H    1.002 --    93 C    0.974
   133   1 H    1.002 --    94 C    0.973
   134   1 H    1.002 --    99 C    0.973
   135   1 H    1.002 --   100 C    0.974
   136   1 H    1.007 --   106 C    0.975
   137   1 H    1.004 --   106 C    0.986
   138   1 H    1.008 --   106 C    0.973
   139   1 H    0.999 --   107 C    0.971
   140   1 H    1.005 --   109 C    0.978
   141   1 H    1.004 --   109 C    0.986
   142   1 H    1.006 --   109 C    0.973
   143   1 H    1.000 --   110 C    0.970
   144   1 H    1.008 --   112 C    0.973
   145   1 H    1.007 --   112 C    0.975
   146   1 H    1.004 --   112 C    0.986
   147   1 H    1.002 --   114 C    0.974
   148   1 H    0.998 --   115 C    0.975
   149   6 C    3.938 --   150 C    2.485   151 C    1.303
   150   6 C    3.927 --   149 C    2.485    23 C    1.181   152 C    0.200
   151   6 C    3.938 --   152 C    2.485   149 C    1.303
   152   6 C    3.927 --   151 C    2.485    97 C    1.181   150 C    0.200
 ---------------------------------------------------------------------------

           -------------------------------------------------
          | TOTAL ENERGY             -236.409620869896 Eh   |
          | GRADIENT NORM               0.000581757686 Eh/α |
          | HOMO-LUMO GAP               1.199173634153 eV   |
           -------------------------------------------------

 * finished run on 2022/07/30 at 05:34:40.507
