   * xtb version 6.5.1 (b24c23e) compiled by 'conda@728c89f4b128' on 2022-07-12
          program call               : xtb Py_C2_4.xyz --gfn 1 --opt -T 48

   ID    Z sym.   atoms
    1    6 C      1-5, 7-10, 12-16, 18-23, 25-28, 30-35, 56-60, 62-65, 67-71,
                  73-78, 80-83, 85-90, 111-121, 123-126, 128-132, 134-139,
                  141-144, 146-151, 171-175, 177-180, 182-186, 188-193,
                  195-198, 200-205
    2    7 N      6, 11, 17, 24, 29, 36, 61, 66, 72, 79, 84, 91, 122, 127,
                  133, 140, 145, 152, 176, 181, 187, 194, 199, 206
    3    1 H      37-55, 92-110, 153-170, 207-224

          :  Hamiltonian                  GFN1-xTB          :
 * total energy  :  -381.6978041 Eh     change       -0.7101448E-09 Eh
 * total energy  :  -381.8653094 Eh     change       -0.1675053E+00 Eh
 * total energy  :  -381.9713479 Eh     change       -0.1060385E+00 Eh
 * total energy  :  -382.0134751 Eh     change       -0.4212714E-01 Eh
 * total energy  :  -382.0578456 Eh     change       -0.4437056E-01 Eh
 * total energy  :  -382.1063116 Eh     change       -0.4846598E-01 Eh
 * total energy  :  -382.1529668 Eh     change       -0.4665521E-01 Eh
 * total energy  :  -382.1886841 Eh     change       -0.3571726E-01 Eh
 * total energy  :  -382.2215273 Eh     change       -0.3284321E-01 Eh
 * total energy  :  -382.2521955 Eh     change       -0.3066820E-01 Eh
 * total energy  :  -382.4622694 Eh     change       -0.9010709E-05 Eh
 * total energy  :  -382.4622778 Eh     change       -0.8403545E-05 Eh
 * total energy  :  -382.4622883 Eh     change       -0.1046052E-04 Eh
 * total energy  :  -382.4623012 Eh     change       -0.1296023E-04 Eh
 * total energy  :  -382.4623007 Eh     change        0.5017711E-06 Eh
 * total energy  :  -382.4623091 Eh     change       -0.8344563E-05 Eh
 * total energy  :  -382.4623144 Eh     change       -0.5340868E-05 Eh
 * total energy  :  -382.4623201 Eh     change       -0.5724767E-05 Eh
 * total energy  :  -382.4623249 Eh     change       -0.4770910E-05 Eh
   *** GEOMETRY OPTIMIZATION CONVERGED AFTER 98 ITERATIONS ***

 final structure:
================
224
 xtb: 6.5.1 (b24c23e)
C           40.20765179054418        0.04310341868606        0.07794511193511
C           40.81309574934325        1.27649150303987        0.28044560510131
C           40.15803310526157        2.52622581286208        0.46710429932174
C           41.11766080074031        3.48253859072017        0.64455511838575
C           42.39016102790415        2.84575478641963        0.58227332285849
N           42.15568918749353        1.52031626024941        0.34995206861704
C           43.65190303424778        3.43583199921624        0.71566310535107
C           43.67961132593961        4.89044983680341        0.99763372361159
C           44.29593155535806        5.78549238297628        0.12357970471010
C           44.29227991488531        7.13769882078733        0.42696317712910
N           43.72879797895210        7.63250928710611        1.52451325605273
C           43.14259291892229        6.78613038968805        2.36495695598551
C           43.08935362623880        5.41864808080171        2.14540398890541
C           44.87014375784286        2.76041531890193        0.60894960191967
C           46.16275258584914        3.38331364063881        0.83050510816272
C           47.08800004449758        2.42055000267552        0.63931906934808
N           45.03162623664878        1.44198206297935        0.31098942175883
C           46.36046375088811        1.21088098186752        0.30680351912196
C           47.00212179491698       -0.01210265076709        0.02738625138463
C           46.37002748837411       -1.24152512228637       -0.23658935587939
C           47.01450695110697       -2.46481450987389       -0.55997845101703
C           46.05012173399250       -3.41810327779803       -0.73581413135156
C           44.78476795736878       -2.80578739171417       -0.51950812614499
N           45.02951817990301       -1.48953726714297       -0.23005369811131
C           43.52430386370406       -3.40635968695806       -0.61005489795188
C           43.49772524633153       -4.85726517083215       -0.90747469726485
C           44.10020367707838       -5.78491435704567       -0.05801318933599
C           44.04693851336571       -7.13176621728114       -0.38082983020955
N           43.44900805225472       -7.59157301685392       -1.47510535951398
C           42.87395951236567       -6.71414500872213       -2.29149799694635
C           42.86992111468706       -5.34934715335320       -2.05168135665015
C           42.30512778816112       -2.74032135139387       -0.44758524867846
C           41.00429481954274       -3.39029254176297       -0.49236697659593
C           40.08660793193650       -2.42150089809464       -0.30121443393261
C           40.82568237296979       -1.18294731217984       -0.12964075725977
N           42.15873420918356       -1.41487261832656       -0.21280415626497
H           39.12234980065332        0.04741527213849        0.08422793456424
H           39.08845818324470        2.66294926841852        0.45892500103911
H           40.96379276746354        4.53845246485865        0.79700746182033
H           42.88299137176251        0.82123570205513        0.24255131614756
H           44.75782178746233        5.42867893029268       -0.78924043925529
H           44.76225799671233        7.85412349393179       -0.24045744886646
H           42.69423833866486        7.21966859042698        3.25417217953299
H           42.61173384379494        4.76569074901666        2.86630055014993
H           46.31866416172925        4.41217130482807        1.11152805898189
H           48.15995590319788        2.49442204146924        0.72546956007242
H           48.08084121694477       -2.58909485132232       -0.65631161203760
H           46.19877245481073       -4.45117839843285       -1.00445638232048
H           44.30614465175583       -0.80103379722313       -0.05022922453241
H           44.58761405435071       -5.45845791405914        0.85303988019066
H           44.50455238549122       -7.87282837759303        0.26808642869936
H           42.39570771865612       -7.11983804650161       -3.17821773814633
H           42.40032630275874       -4.66992934229096       -2.75293339846599
H           40.84106418455833       -4.44605178618032       -0.63720735247923
H           39.01176773557225       -2.50641599220519       -0.26717338357002
C           79.69629073967494       -0.00906894071604        0.04502982748760
C           79.10510918224470       -1.21161600422222       -0.31944040090119
C           79.77383093892604       -2.40986821027664       -0.69726148523060
C           78.82435001069092       -3.34986910609277       -0.98276539344627
C           77.54446454673179       -2.75889301343243       -0.77851833635576
N           77.76491917916304       -1.46941815428798       -0.38569815246881
C           76.28972086480175       -3.34742160853017       -0.96930821533960
C           76.28289560871829       -4.76583154359514       -1.40136701024523
C           75.73022862653796       -5.14777480631572       -2.62330527821991
C           75.75207549687302       -6.48503519767644       -2.98655700448974
N           76.27610021476244       -7.43569994186347       -2.21944512632277
C           76.80272537030964       -7.08066370581548       -1.05199864508102
C           76.83263927037362       -5.76922292024578       -0.60425826530674
C           75.06176981157307       -2.70676734470386       -0.78669016780616
C           73.77713446164864       -3.36192850894026       -0.95464299412648
C           72.83724181586766       -2.43314282953332       -0.68460667786915
N           74.87981690297045       -1.41204275475017       -0.40709407847528
C           73.54633780449836       -1.21638956672754       -0.34009635192184
C           72.88697363413085       -0.01789376362609       -0.00175906956111
C           73.50645029432442        1.19875194676900        0.34134976484678
C           72.84823656658277        2.41170007239420        0.67519463006733
C           73.80276254720563        3.35232864947614        0.94539521072377
C           75.07668002166903        2.73705823598047        0.79996083848463
N           74.84591610245820        1.43871925586695        0.42867134106996
C           76.33004425455238        3.33424696289485        0.97126553666846
C           76.33905393924223        4.76154624273754        1.37031702906000
C           75.77488822999139        5.18573586895458        2.57292910411032
C           75.81061818726967        6.53262752120583        2.89822819504996
N           76.35629234050867        7.45402815137891        2.11103857457089
C           76.89507466390499        7.05842427828520        0.96210138818687
C           76.91313485092502        5.73461093678774        0.55268496917751
C           77.55887870889826        2.69021943231077        0.79656056470216
C           78.85066701226177        3.31505952860351        1.03679046423746
C           79.78281853205146        2.37599715355051        0.77921834139775
C           79.06161132128024        1.17679255162864        0.39004166316277
N           77.72498002036134        1.40095556257115        0.41796457197463
H           80.78149312040080       -0.00415155947713        0.05709524330408
H           80.84510620997179       -2.52230662395551       -0.74709044782266
H           78.98971899893381       -4.36218403240116       -1.31407650139529
H           77.03093676937547       -0.79998557729813       -0.18011645112986
H           75.30319047287310       -4.40531538246923       -3.28684532710187
H           75.33121981075735       -6.80593820898716       -3.93497577188048
H           77.22009487853390       -7.87986773938808       -0.44638303831293
H           77.26158499297691       -5.52891950924603        0.36135881685111
H           73.63472420936448       -4.39411064653443       -1.23040088249854
H           71.76513083319485       -2.53850254982135       -0.71149435856648
H           71.77892352747217        2.54145827916826        0.70350161094450
H           73.64112256314762        4.38287301743378        1.21604467388391
H           75.57623531974393        0.75916946762120        0.24287303122900
H           75.33056836058176        4.46887522461746        3.25321711918089
H           75.38206071456683        6.88605825040267        3.83154380587143
H           77.33137304460685        7.83430308977980        0.33979934927015
H           77.35285565408827        5.45971728355775       -0.39862762889307
H           78.99803681822385        4.32968381110209        1.37009692851746
H           80.85672389165484        2.45435293281919        0.84429112755102
C           48.41128966525302       -0.01986046070597        0.00783745937153
C           49.62812358945197       -0.02371220660620       -0.01329095513434
C           59.32366021698846       -0.00202527249462       -0.05958701006728
C           60.54199725106300        0.00187011495171       -0.05082900388244
C           70.25905374475130       -0.01735805984686       -0.00343489435893
C           71.47643869306955       -0.01915749303247       -0.00180953581012
C           51.03621350613821       -0.02517675557673       -0.03592155995050
C           51.66862160025283       -1.25472246765700        0.22807152602148
C           51.03363714137378       -2.47726151359339        0.56638319411053
C           52.00349866040997       -3.43289425428269        0.70274623665259
C           53.26008710563260       -2.82089471701827        0.44483919477946
N           53.00859513309054       -1.50139742861880        0.18103338249573
C           54.51950716324800       -3.43347225352120        0.44555324292388
C           54.54181353687443       -4.89633417505166        0.68090005436505
C           55.23864979395229       -5.44244722818390        1.75884728580443
C           55.22907130140613       -6.81554286563372        1.94491498426577
N           54.58536199731215       -7.65159935461598        1.13639812416481
C           53.92165555493380       -7.14033177621830        0.10471808664148
C           53.86806986469388       -5.78098114556268       -0.16080714858744
C           55.73950128922064       -2.78416864694051        0.24759783292660
C           57.01327584700985       -3.47338402300349        0.15017636424058
C           57.95320933649959       -2.51723846882004        0.00006626258983
N           55.92483136017201       -1.44058829038927        0.12682320316262
C           57.25445037120591       -1.24818627284872        0.00545791502469
C           57.91616590186052       -0.00508874821614       -0.06799557192354
C           57.28026279469015        1.24965044499559       -0.14850040120425
C           57.91154151487817        2.51938731685983       -0.16753880274759
C           56.94106947008594        3.47228117949358       -0.31608069672786
C           55.68636150678251        2.80974060266088       -0.39398103035262
N           55.93988289817596        1.47030032795081       -0.26627937100201
C           54.42838181993528        3.39920298107106       -0.57260293113507
C           54.41461945193902        4.86359751450961       -0.79858088618927
C           53.72866403886750        5.72480156443700        0.05750750066486
C           53.74635015990243        7.08691441732836       -0.19734976991110
N           54.38748779512824        7.62250417910524       -1.23125133741798
C           55.04199388261374        6.80897497504972       -2.05363404591864
C           55.08746085623869        5.43495607288909       -1.87863500378367
C           53.20568738799668        2.72596241121393       -0.55656784678127
C           51.92735176040963        3.36034457582042       -0.82473415273549
C           50.98733451452787        2.40520788676286       -0.66960426019213
C           51.69258436144663        1.18916842467462       -0.31645880461233
N           53.02349517693114        1.40575820755544       -0.27977505239125
H           49.97099720573597       -2.60112865211534        0.69751731208613
H           51.86253497425306       -4.46742592600106        0.96980432838179
H           53.72218791419208       -0.80716339705793       -0.01376070053945
H           55.76717370324038       -4.79796763585691        2.45112041622611
H           55.76057369911638       -7.26290611861620        2.77976051363327
H           53.40909304107780       -7.84848780390316       -0.53979454516780
H           53.32531696374231       -5.41192578966817       -1.02299651571590
H           57.14687537769721       -4.54270186061206        0.17344015960043
H           59.01710020997305       -2.63699063325837       -0.12238221209402
H           58.97220151885319        2.67916095773178       -0.06848307085341
H           57.08002728021240        4.54027026516885       -0.35468532405470
H           55.22782842404335        0.74780020470015       -0.25997683558936
H           53.20232992733393        5.33429767180838        0.92021593413156
H           53.22227642465158        7.77732984253321        0.45697696292999
H           55.55409822017747        7.27557504414539       -2.88999967025335
H           55.62339665871722        4.80966920120839       -2.58285956159802
H           51.79052081180642        4.39103258744205       -1.10889792728123
H           49.91971707107287        2.48751898715477       -0.79379642059534
C           61.94944860261152        0.00067037542064       -0.03755025635965
C           62.57754694646768       -1.20215513284971        0.34145155735458
C           61.93785622730736       -2.39319133442743        0.76956563836211
C           62.90497423409025       -3.33207309273998        1.00305192260193
C           64.16600052991804       -2.74048017502733        0.72082604434221
N           63.91863046823273       -1.44852983921025        0.34106515401507
C           65.42336365673653       -3.34812175924464        0.82219138227231
C           65.42669888864553       -4.78534880043891        1.18744851731293
C           66.04386934499502       -5.23723396894177        2.35331316147412
C           66.01780341901781       -6.59064496254197        2.65060068172246
N           65.43051800355551       -7.49262032243037        1.87071808644292
C           64.84131220268755       -7.07071891703553        0.75663533170625
C           64.81027829315489       -5.73815075397004        0.37688135070884
C           66.65350498303900       -2.72322524257018        0.61227968998348
C           67.92994682956810       -3.41157186075014        0.68451217476034
C           68.87871912307543       -2.48046188891058        0.45704718477416
N           66.84749759234047       -1.40789332946622        0.31988811775001
C           68.18227696475772       -1.22962244286981        0.23242740441544
C           68.84953058995639       -0.01163345134415       -0.00349062624115
C           68.22381233815564        1.22801920427289       -0.23628670254309
C           68.86672469904521        2.47418171289446       -0.44985574502588
C           67.89981416398331        3.41736912353029       -0.66649395142228
C           66.63597559484339        2.76971288238912       -0.60826671805918
N           66.88180396200852        1.45153799319514       -0.33147714792191
C           65.37765174005389        3.35191020205781       -0.80415162601873
C           65.36446967555101        4.79848172676315       -1.13007004702618
C           64.72535837961597        5.71623974179950       -0.29666412628246
C           64.74166934692637        7.06053161632861       -0.63255709079077
N           65.33808162955863        7.52669667690409       -1.72524043270688
C           65.94498283255710        6.65847440892761       -2.52774643295898
C           65.98787170257243        5.29645924444999       -2.27358963073114
C           64.14979137628706        2.69311870147537       -0.72295240085333
C           62.87962529638475        3.31942952604358       -1.04246968360129
C           61.93099160857209        2.38192010745519       -0.84010486758517
C           62.62045406412652        1.18758914357926       -0.39642250131486
N           63.95258878468139        1.39660984368320       -0.35702058211446
H           60.87417376666401       -2.50792373277216        0.89493896700354
H           62.75966615219958       -4.34130275736303        1.35189014318346
H           64.63382968252300       -0.77195237521484        0.09640590361475
H           66.52384560553989       -4.53613650698028        3.02556006223292
H           66.48804735314555       -6.96589329119344        3.55480287217005
H           64.37313081951581       -7.83135280259176        0.13869543678347
H           64.32848763132324       -5.44190294672984       -0.54738876877556
H           68.06106335292532       -4.46456425853573        0.87331090678093
H           69.94892782440517       -2.60500723969797        0.43963133609748
H           69.93358831462844        2.62482723591489       -0.43930486246310
H           68.04849553937107        4.46946185058992       -0.84628913707301
H           66.16500524175814        0.74316810592632       -0.21442365021942
H           64.23540983431258        5.38217688167701        0.61013655452892
H           64.25490866702306        7.79415027102967        0.00337137956831
H           66.41965871712357        7.06902187198608       -3.41416215304789
H           66.48375445549117        4.62513596463888       -2.96459701620862
H           62.75419118958440        4.33105172779761       -1.39275780523464
H           60.86639059164051        2.46356188878862       -0.98555441891853

          :  Hamiltonian                  GFN1-xTB          :
         :: total energy            -382.462324920053 Eh    ::
         :: gradient norm              0.000817743047 Eh/a0 ::
         :: HOMO-LUMO gap              0.741834082038 eV    ::
         :: SCC energy              -388.595816304015 Eh    ::
         :: repulsion energy           6.335638756913 Eh    ::

    * Orbital Energies and Occupations

         #    Occupation            Energy/Eh            Energy/eV
      -------------------------------------------------------------
         1        2.0000           -0.8117714             -22.0894
       ...           ...                  ...                  ...
       337        2.0000           -0.4215853             -11.4719
       338        2.0000           -0.4211039             -11.4588
       339        2.0000           -0.4208747             -11.4526
       340        2.0000           -0.4208369             -11.4516
       341        2.0000           -0.4207717             -11.4498
       342        2.0000           -0.4065985             -11.0641
       343        2.0000           -0.4062589             -11.0549
       344        2.0000           -0.4054575             -11.0331
       345        2.0000           -0.4053720             -11.0307
       346        2.0000           -0.4003287             -10.8935
       347        2.0000           -0.3949048             -10.7459
       348        2.0000           -0.3880852             -10.5603
       349        2.0000           -0.3809962             -10.3674 (HOMO)
       350        0.0000           -0.3537343              -9.6256 (LUMO)
       351                         -0.3451227              -9.3913
       352                         -0.3393369              -9.2338
       353                         -0.3391035              -9.2275
       354                         -0.3388055              -9.2194
       355                         -0.3384003              -9.2083
       356                         -0.3361617              -9.1474
       357                         -0.3289091              -8.9501
       358                         -0.3112312              -8.4690
       359                         -0.3048530              -8.2955
       360                         -0.3008096              -8.1854
       ...                                ...                  ...
       748                          1.3319779              36.2450
      -------------------------------------------------------------
                  HL-Gap            0.0272619 Eh            0.7418 eV

Wiberg/Mayer (AO) data.
largest (>0.10) Wiberg bond orders for each atom

     #   Z sym  total        # sym  WBO       # sym  WBO       # sym  WBO
 ---------------------------------------------------------------------------
     1   6 C    3.925 --    35 C    1.366     2 C    1.347    37 H    0.971
     2   6 C    3.902 --     1 C    1.347     3 C    1.229     6 N    1.169
     3   6 C    3.953 --     4 C    1.596     2 C    1.229    38 H    0.976
     4   6 C    3.959 --     3 C    1.596     5 C    1.234    39 H    0.974
     5   6 C    3.897 --     7 C    1.302     4 C    1.234     6 N    1.178
     6   7 N    3.470 --     5 C    1.178     2 C    1.169    40 H    0.873
     7   6 C    3.939 --    14 C    1.334     5 C    1.302     8 C    1.031
     8   6 C    3.986 --    13 C    1.392     9 C    1.392     7 C    1.031
                            11 N    0.106
     9   6 C    3.987 --    10 C    1.443     8 C    1.392    41 H    0.973
                            12 C    0.108
    10   6 C    3.972 --     9 C    1.443    11 N    1.415    42 H    0.972
                            13 C    0.108
    11   7 N    3.029 --    12 C    1.416    10 C    1.415     8 C    0.106
    12   6 C    3.972 --    13 C    1.442    11 N    1.416    43 H    0.972
                             9 C    0.108
    13   6 C    3.986 --    12 C    1.442     8 C    1.392    44 H    0.973
                            10 C    0.108
    14   6 C    3.915 --     7 C    1.334    17 N    1.287    15 C    1.125
    15   6 C    3.966 --    16 C    1.710    14 C    1.125    45 H    0.973
    16   6 C    3.964 --    15 C    1.710    18 C    1.127    46 H    0.971
    17   7 N    3.021 --    18 C    1.342    14 C    1.287
    18   6 C    3.913 --    17 N    1.342    19 C    1.259    16 C    1.127
    19   6 C    3.937 --    18 C    1.259    20 C    1.255   111 C    1.179
    20   6 C    3.889 --    19 C    1.255    21 C    1.249    24 N    1.188
    21   6 C    3.959 --    22 C    1.582    20 C    1.249    47 H    0.972
    22   6 C    3.954 --    21 C    1.582    23 C    1.241    48 H    0.974
    23   6 C    3.899 --    25 C    1.307    22 C    1.241    24 N    1.167
    24   7 N    3.474 --    20 C    1.188    23 C    1.167    49 H    0.873
    25   6 C    3.924 --    32 C    1.321    23 C    1.307    26 C    1.032
    26   6 C    3.986 --    27 C    1.392    31 C    1.391    25 C    1.032
                            29 N    0.106
    27   6 C    3.985 --    28 C    1.442    26 C    1.392    50 H    0.973
                            30 C    0.108
    28   6 C    3.972 --    27 C    1.442    29 N    1.416    51 H    0.972
                            31 C    0.108
    29   7 N    3.029 --    28 C    1.416    30 C    1.415    26 C    0.106
    30   6 C    3.972 --    31 C    1.443    29 N    1.415    52 H    0.972
                            27 C    0.108
    31   6 C    3.986 --    30 C    1.443    26 C    1.391    53 H    0.973
                            28 C    0.108
    32   6 C    3.930 --    25 C    1.321    36 N    1.317    33 C    1.117
    33   6 C    3.967 --    34 C    1.724    32 C    1.117    54 H    0.973
    34   6 C    3.966 --    33 C    1.724    35 C    1.116    55 H    0.976
    35   6 C    3.928 --     1 C    1.366    36 N    1.300    34 C    1.116
    36   7 N    3.011 --    32 C    1.317    35 C    1.300
    37   1 H    1.002 --     1 C    0.971
    38   1 H    0.997 --     3 C    0.976
    39   1 H    1.004 --     4 C    0.974
    40   1 H    0.986 --     6 N    0.873
    41   1 H    1.004 --     9 C    0.973
    42   1 H    1.013 --    10 C    0.972
    43   1 H    1.013 --    12 C    0.972
    44   1 H    1.004 --    13 C    0.973
    45   1 H    1.004 --    15 C    0.973
    46   1 H    1.005 --    16 C    0.971
    47   1 H    1.005 --    21 C    0.972
    48   1 H    1.004 --    22 C    0.974
    49   1 H    0.987 --    24 N    0.873
    50   1 H    1.004 --    27 C    0.973
    51   1 H    1.013 --    28 C    0.972
    52   1 H    1.013 --    30 C    0.972
    53   1 H    1.004 --    31 C    0.973
    54   1 H    1.005 --    33 C    0.973
    55   1 H    0.998 --    34 C    0.976
    56   6 C    3.925 --    90 C    1.366    57 C    1.347    92 H    0.971
    57   6 C    3.902 --    56 C    1.347    58 C    1.229    61 N    1.169
    58   6 C    3.954 --    59 C    1.597    57 C    1.229    93 H    0.976
    59   6 C    3.959 --    58 C    1.597    60 C    1.233    94 H    0.974
    60   6 C    3.897 --    62 C    1.304    59 C    1.233    61 N    1.177
    61   7 N    3.470 --    60 C    1.177    57 C    1.169    95 H    0.873
    62   6 C    3.939 --    69 C    1.334    60 C    1.304    63 C    1.028
    63   6 C    3.986 --    68 C    1.393    64 C    1.392    62 C    1.028
                            66 N    0.107
    64   6 C    3.987 --    65 C    1.442    63 C    1.392    96 H    0.973
                            67 C    0.109
    65   6 C    3.972 --    64 C    1.442    66 N    1.415    97 H    0.972
                            68 C    0.108
    66   7 N    3.030 --    67 C    1.416    65 C    1.415    63 C    0.107
    67   6 C    3.972 --    68 C    1.442    66 N    1.416    98 H    0.972
                            64 C    0.109
    68   6 C    3.986 --    67 C    1.442    63 C    1.393    99 H    0.973
                            65 C    0.108
    69   6 C    3.916 --    62 C    1.334    72 N    1.287    70 C    1.124
    70   6 C    3.966 --    71 C    1.710    69 C    1.124   100 H    0.973
    71   6 C    3.964 --    70 C    1.710    73 C    1.128   101 H    0.969
    72   7 N    3.021 --    73 C    1.341    69 C    1.287
    73   6 C    3.914 --    72 N    1.341    74 C    1.261    71 C    1.128
    74   6 C    3.937 --    73 C    1.261    75 C    1.256   116 C    1.177
    75   6 C    3.889 --    74 C    1.256    76 C    1.249    79 N    1.188
    76   6 C    3.959 --    77 C    1.582    75 C    1.249   102 H    0.970
    77   6 C    3.954 --    76 C    1.582    78 C    1.241   103 H    0.974
    78   6 C    3.899 --    80 C    1.308    77 C    1.241    79 N    1.166
    79   7 N    3.474 --    75 C    1.188    78 C    1.166   104 H    0.873
    80   6 C    3.925 --    87 C    1.322    78 C    1.308    81 C    1.030
    81   6 C    3.986 --    82 C    1.393    86 C    1.392    80 C    1.030
                            84 N    0.106
    82   6 C    3.986 --    83 C    1.442    81 C    1.393   105 H    0.973
                            85 C    0.108
    83   6 C    3.972 --    82 C    1.442    84 N    1.416   106 H    0.972
                            86 C    0.108
    84   7 N    3.029 --    83 C    1.416    85 C    1.415    81 C    0.106
    85   6 C    3.972 --    86 C    1.443    84 N    1.415   107 H    0.972
                            82 C    0.108
    86   6 C    3.986 --    85 C    1.443    81 C    1.392   108 H    0.973
                            83 C    0.108
    87   6 C    3.930 --    80 C    1.322    91 N    1.316    88 C    1.117
    88   6 C    3.967 --    89 C    1.724    87 C    1.117   109 H    0.974
    89   6 C    3.966 --    88 C    1.724    90 C    1.116   110 H    0.976
    90   6 C    3.928 --    56 C    1.366    91 N    1.300    89 C    1.116
    91   7 N    3.011 --    87 C    1.316    90 C    1.300
    92   1 H    1.002 --    56 C    0.971
    93   1 H    0.997 --    58 C    0.976
    94   1 H    1.004 --    59 C    0.974
    95   1 H    0.986 --    61 N    0.873
    96   1 H    1.004 --    64 C    0.973
    97   1 H    1.013 --    65 C    0.972
    98   1 H    1.013 --    67 C    0.972
    99   1 H    1.004 --    68 C    0.973
   100   1 H    1.005 --    70 C    0.973
   101   1 H    1.006 --    71 C    0.969
   102   1 H    1.006 --    76 C    0.970
   103   1 H    1.004 --    77 C    0.974
   104   1 H    0.987 --    79 N    0.873
   105   1 H    1.004 --    82 C    0.973
   106   1 H    1.013 --    83 C    0.972
   107   1 H    1.013 --    85 C    0.972
   108   1 H    1.004 --    86 C    0.973
   109   1 H    1.004 --    88 C    0.974
   110   1 H    0.998 --    89 C    0.976
   111   6 C    3.928 --   112 C    2.572    19 C    1.179
   112   6 C    3.932 --   111 C    2.572   117 C    1.181
   113   6 C    3.930 --   114 C    2.564   135 C    1.189
   114   6 C    3.930 --   113 C    2.564   171 C    1.189
   115   6 C    3.932 --   116 C    2.574   189 C    1.180
   116   6 C    3.928 --   115 C    2.574    74 C    1.177
   117   6 C    3.923 --   151 C    1.259   118 C    1.251   112 C    1.181
   118   6 C    3.890 --   119 C    1.254   117 C    1.251   122 N    1.188
   119   6 C    3.956 --   120 C    1.575   118 C    1.254   153 H    0.972
   120   6 C    3.955 --   119 C    1.575   121 C    1.247   154 H    0.974
   121   6 C    3.894 --   123 C    1.297   120 C    1.247   122 N    1.168
   122   7 N    3.470 --   118 C    1.188   121 C    1.168   155 H    0.874
   123   6 C    3.926 --   130 C    1.336   121 C    1.297   124 C    1.032
   124   6 C    3.986 --   129 C    1.392   125 C    1.390   123 C    1.032
                           127 N    0.106
   125   6 C    3.986 --   126 C    1.443   124 C    1.390   156 H    0.972
                           128 C    0.108
   126   6 C    3.972 --   125 C    1.443   127 N    1.415   157 H    0.972
                           129 C    0.108
   127   7 N    3.029 --   128 C    1.416   126 C    1.415   124 C    0.106
   128   6 C    3.972 --   129 C    1.442   127 N    1.416   158 H    0.972
                           125 C    0.108
   129   6 C    3.986 --   128 C    1.442   124 C    1.392   159 H    0.973
                           126 C    0.108
   130   6 C    3.917 --   123 C    1.336   133 N    1.284   131 C    1.126
   131   6 C    3.965 --   132 C    1.707   130 C    1.126   160 H    0.974
   132   6 C    3.964 --   131 C    1.707   134 C    1.131   161 H    0.969
   133   7 N    3.006 --   134 C    1.345   130 C    1.284
   134   6 C    3.912 --   133 N    1.345   135 C    1.254   132 C    1.131
   135   6 C    3.924 --   134 C    1.254   136 C    1.248   113 C    1.189
   136   6 C    3.889 --   137 C    1.255   135 C    1.248   140 N    1.189
   137   6 C    3.956 --   138 C    1.575   136 C    1.255   162 H    0.969
   138   6 C    3.955 --   137 C    1.575   139 C    1.247   163 H    0.974
   139   6 C    3.894 --   141 C    1.297   138 C    1.247   140 N    1.168
   140   7 N    3.470 --   136 C    1.189   139 C    1.168   164 H    0.874
   141   6 C    3.925 --   148 C    1.336   139 C    1.297   142 C    1.032
   142   6 C    3.986 --   143 C    1.391   147 C    1.391   141 C    1.032
                           145 N    0.106
   143   6 C    3.986 --   144 C    1.442   142 C    1.391   165 H    0.972
                           146 C    0.108
   144   6 C    3.972 --   143 C    1.442   145 N    1.415   166 H    0.972
                           147 C    0.108
   145   7 N    3.029 --   146 C    1.415   144 C    1.415   142 C    0.106
   146   6 C    3.972 --   147 C    1.442   145 N    1.415   167 H    0.972
                           143 C    0.108
   147   6 C    3.985 --   146 C    1.442   142 C    1.391   168 H    0.973
                           144 C    0.108
   148   6 C    3.918 --   141 C    1.336   152 N    1.285   149 C    1.125
   149   6 C    3.966 --   150 C    1.709   148 C    1.125   169 H    0.973
   150   6 C    3.964 --   149 C    1.709   151 C    1.129   170 H    0.971
   151   6 C    3.914 --   152 N    1.342   117 C    1.259   150 C    1.129
   152   7 N    3.005 --   151 C    1.342   148 C    1.285
   153   1 H    1.005 --   119 C    0.972
   154   1 H    1.004 --   120 C    0.974
   155   1 H    0.987 --   122 N    0.874
   156   1 H    1.004 --   125 C    0.972
   157   1 H    1.013 --   126 C    0.972
   158   1 H    1.013 --   128 C    0.972
   159   1 H    1.004 --   129 C    0.973
   160   1 H    1.004 --   131 C    0.974
   161   1 H    1.006 --   132 C    0.969
   162   1 H    1.006 --   137 C    0.969
   163   1 H    1.004 --   138 C    0.974
   164   1 H    0.987 --   140 N    0.874
   165   1 H    1.004 --   143 C    0.972
   166   1 H    1.013 --   144 C    0.972
   167   1 H    1.013 --   146 C    0.972
   168   1 H    1.004 --   147 C    0.973
   169   1 H    1.005 --   149 C    0.973
   170   1 H    1.005 --   150 C    0.971
   171   6 C    3.925 --   205 C    1.255   172 C    1.248   114 C    1.189
   172   6 C    3.889 --   173 C    1.255   171 C    1.248   176 N    1.189
   173   6 C    3.956 --   174 C    1.575   172 C    1.255   207 H    0.970
   174   6 C    3.955 --   173 C    1.575   175 C    1.246   208 H    0.974
   175   6 C    3.895 --   177 C    1.298   174 C    1.246   176 N    1.167
   176   7 N    3.470 --   172 C    1.189   175 C    1.167   209 H    0.874
   177   6 C    3.925 --   184 C    1.337   175 C    1.298   178 C    1.029
   178   6 C    3.986 --   183 C    1.392   179 C    1.392   177 C    1.029
                           181 N    0.106
   179   6 C    3.987 --   180 C    1.442   178 C    1.392   210 H    0.973
                           182 C    0.109
   180   6 C    3.972 --   179 C    1.442   181 N    1.415   211 H    0.972
                           183 C    0.108
   181   7 N    3.029 --   182 C    1.416   180 C    1.415   178 C    0.106
   182   6 C    3.972 --   183 C    1.442   181 N    1.416   212 H    0.972
                           179 C    0.109
   183   6 C    3.986 --   182 C    1.442   178 C    1.392   213 H    0.973
                           180 C    0.108
   184   6 C    3.918 --   177 C    1.337   187 N    1.285   185 C    1.124
   185   6 C    3.967 --   186 C    1.710   184 C    1.124   214 H    0.973
   186   6 C    3.964 --   185 C    1.710   188 C    1.129   215 H    0.969
   187   7 N    3.006 --   188 C    1.341   184 C    1.285
   188   6 C    3.914 --   187 N    1.341   189 C    1.260   186 C    1.129
   189   6 C    3.923 --   188 C    1.260   190 C    1.252   115 C    1.180
   190   6 C    3.890 --   191 C    1.254   189 C    1.252   194 N    1.188
   191   6 C    3.956 --   192 C    1.576   190 C    1.254   216 H    0.970
   192   6 C    3.955 --   191 C    1.576   193 C    1.246   217 H    0.974
   193   6 C    3.894 --   195 C    1.298   192 C    1.246   194 N    1.168
   194   7 N    3.470 --   190 C    1.188   193 C    1.168   218 H    0.874
   195   6 C    3.927 --   202 C    1.337   193 C    1.298   196 C    1.029
   196   6 C    3.986 --   201 C    1.393   197 C    1.391   195 C    1.029
                           199 N    0.106
   197   6 C    3.987 --   198 C    1.443   196 C    1.391   219 H    0.973
                           200 C    0.109
   198   6 C    3.972 --   197 C    1.443   199 N    1.415   220 H    0.972
                           201 C    0.108
   199   7 N    3.029 --   200 C    1.416   198 C    1.415   196 C    0.106
   200   6 C    3.972 --   201 C    1.441   199 N    1.416   221 H    0.972
                           197 C    0.109
   201   6 C    3.986 --   200 C    1.441   196 C    1.393   222 H    0.973
                           198 C    0.108
   202   6 C    3.917 --   195 C    1.337   206 N    1.284   203 C    1.125
   203   6 C    3.965 --   204 C    1.707   202 C    1.125   223 H    0.974
   204   6 C    3.964 --   203 C    1.707   205 C    1.130   224 H    0.969
   205   6 C    3.912 --   206 N    1.345   171 C    1.255   204 C    1.130
   206   7 N    3.007 --   205 C    1.345   202 C    1.284
   207   1 H    1.006 --   173 C    0.970
   208   1 H    1.004 --   174 C    0.974
   209   1 H    0.987 --   176 N    0.874
   210   1 H    1.004 --   179 C    0.973
   211   1 H    1.013 --   180 C    0.972
   212   1 H    1.013 --   182 C    0.972
   213   1 H    1.004 --   183 C    0.973
   214   1 H    1.005 --   185 C    0.973
   215   1 H    1.006 --   186 C    0.969
   216   1 H    1.006 --   191 C    0.970
   217   1 H    1.004 --   192 C    0.974
   218   1 H    0.987 --   194 N    0.874
   219   1 H    1.004 --   197 C    0.973
   220   1 H    1.013 --   198 C    0.972
   221   1 H    1.013 --   200 C    0.972
   222   1 H    1.004 --   201 C    0.973
   223   1 H    1.004 --   203 C    0.974
   224   1 H    1.006 --   204 C    0.969
 ---------------------------------------------------------------------------

           -------------------------------------------------
          | TOTAL ENERGY             -382.462324920053 Eh   |
          | GRADIENT NORM               0.000817743047 Eh/α |
          | HOMO-LUMO GAP               0.741834082038 eV   |
           -------------------------------------------------

 * finished run on 2022/07/27 at 03:28:31.816
