   * xtb version 6.5.1 (b24c23e) compiled by 'conda@728c89f4b128' on 2022-07-12
          program call               : xtb Co_m-CP_C8_3.xyz --gfn 1 --opt -T 48

   ID    Z sym.   atoms
    1   27 Co     1, 63, 141
    2    6 C      2-6, 8-12, 15-20, 22-27, 29-35, 38-42, 64-68, 70-74, 77-82,
                  84-89, 91-97, 100-104, 125-140, 142-146, 148-152, 155-160,
                  162-167, 169-175, 178-182
    3    7 N      7, 21, 28, 43, 69, 83, 90, 105, 147, 161, 168, 183
    4    8 O      13, 14, 36, 37, 75, 76, 98, 99, 153, 154, 176, 177
    5    1 H      44-62, 106-124, 184-201
########################################################################
[WARNING] Please study the warnings concerning your input carefully
-1- prog_main_parseArguments: Unknown option '-T' provided
########################################################################

          :  Hamiltonian                  GFN1-xTB          :
 * total energy  :  -382.7299726 Eh     change        0.1547278E-08 Eh
 * total energy  :  -383.5809010 Eh     change       -0.8509285E+00 Eh
 * total energy  :  -383.8337682 Eh     change       -0.2528671E+00 Eh
 * total energy  :  -383.9609707 Eh     change       -0.1272026E+00 Eh
 * total energy  :  -384.0295903 Eh     change       -0.6861956E-01 Eh
 * total energy  :  -384.0765615 Eh     change       -0.4697122E-01 Eh
 * total energy  :  -384.1135084 Eh     change       -0.3694692E-01 Eh
 * total energy  :  -384.1452917 Eh     change       -0.3178331E-01 Eh
 * total energy  :  -384.1727206 Eh     change       -0.2742884E-01 Eh
 * total energy  :  -384.1938744 Eh     change       -0.2115388E-01 Eh
 * total energy  :  -384.4719336 Eh     change        0.1454616E-03 Eh
 * total energy  :  -384.4720699 Eh     change       -0.1363024E-03 Eh
 * total energy  :  -384.4720858 Eh     change       -0.1589216E-04 Eh
 * total energy  :  -384.4720512 Eh     change        0.3460380E-04 Eh
 * total energy  :  -384.4720910 Eh     change       -0.3979329E-04 Eh
 * total energy  :  -384.4720843 Eh     change        0.6639530E-05 Eh
 * total energy  :  -384.4720796 Eh     change        0.4716650E-05 Eh
 * total energy  :  -384.4721003 Eh     change       -0.2068813E-04 Eh
 * total energy  :  -384.4721048 Eh     change       -0.4466092E-05 Eh
   *** GEOMETRY OPTIMIZATION CONVERGED AFTER 393 ITERATIONS ***

 final structure:
================
201
 xtb: 6.5.1 (b24c23e)
Co          28.10710114742939        0.33558759411967       -2.11145459693272
C           24.97461068571855        0.07151240762079       -3.29441581450600
C           25.46277151267361        1.32807357396235       -3.00758335255763
C           24.69381823937923        2.52895820677700       -3.13993544044032
C           25.39434125227639        3.50813739252426       -2.52085113178185
C           26.61386419472785        2.91554915883569       -2.05414312133286
N           26.65521266131113        1.58676602717687       -2.37850925498734
C           27.63185148742795        3.62494002004439       -1.42666238118962
C           27.36907797863871        5.02850482386074       -1.03009375025997
C           26.38634390412679        5.30861680372677       -0.08473377749593
C           26.12624265922020        6.62407536680638        0.29681344749494
C           25.06922576784170        6.85837674811598        1.31266179177969
O           24.89654551270678        8.15294547320122        1.61752833104444
O           24.41508211518105        5.98782042776057        1.82705863814650
C           26.84739168951375        7.67277360980977       -0.27409695892631
C           27.81863847739459        7.39702547580498       -1.22353250902398
C           28.07927406465573        6.08703716677678       -1.60081473605226
C           28.89570017352858        3.08333831145464       -1.25145703439248
C           30.03745877829187        3.82212239679942       -0.80067112452021
C           31.11905568799222        3.03123634668197       -1.00273729424626
N           29.27160387922926        1.81484218743127       -1.63448704950463
C           30.62979012575582        1.78848891010586       -1.51048183585841
C           31.44934070762975        0.68480563657727       -1.77018944207690
C           30.91737506657986       -0.59515375943955       -1.94638629448483
C           31.71409018146992       -1.78205489834469       -1.95229496940102
C           30.85400393973907       -2.82683679359259       -1.88531369684841
C           29.53204534060256       -2.27591681653932       -1.88796964557154
N           29.58626231828111       -0.90431099825716       -1.94512159045158
C           28.37457086517509       -3.04148534086442       -1.90779706909991
C           28.49521312802439       -4.50580330391090       -1.71124908739285
C           28.96683853280436       -5.00821461806568       -0.49656810226544
C           29.08603856280846       -6.37639041707523       -0.29605463231784
C           28.74359864866870       -7.25858943484330       -1.30716738212565
C           28.28124001944278       -6.76797529963146       -2.52924312530213
C           27.93400606948951       -7.74487718001254       -3.59153119928155
O           27.49092796819088       -7.17456253669237       -4.72156755379458
O           28.03119992706422       -8.93968353601117       -3.47408947854833
C           28.15786025418526       -5.39443245237561       -2.72941022159313
C           27.13665098246707       -2.48591486406221       -2.20190019435567
C           25.94413732210520       -3.24572184286150       -2.44248793885945
C           25.02416918639905       -2.38375276751267       -2.93658220226827
C           25.63032913772397       -1.08730085793555       -2.93131147536714
N           26.91429391162693       -1.15645948530126       -2.45759979469660
H           23.98497439184682       -0.01051573085094       -3.72815391457235
H           23.72932468397070        2.58747012719645       -3.61865290062915
H           25.13296738078952        4.54748855484041       -2.40420222457167
H           25.82112962862578        4.50441248425216        0.37355994039723
H           24.19309612153723        8.22108888400209        2.28340749145200
H           26.64334060336390        8.69454697172834        0.02216802559476
H           28.37661279107984        8.20801197798780       -1.67782039659346
H           28.82669715707449        5.88175706110795       -2.35890055080296
H           30.00898170115849        4.82136932108453       -0.39778673995316
H           32.15661919896198        3.24504145522326       -0.80225471964281
H           32.79191819674534       -1.79596636853027       -1.97354750253156
H           31.08132496626600       -3.88032697015975       -1.86301163463173
H           29.22963840703543       -4.31793445141299        0.29723530789376
H           29.44778417894071       -6.75239917566833        0.65415946037215
H           28.83107320106528       -8.33020230005836       -1.16792115951512
H           27.28761100224344       -7.87585965641232       -5.36157773492763
H           27.81721678772199       -5.01657596390223       -3.68603837097378
H           25.84079033055170       -4.30454478863661       -2.26924549830910
H           24.01248942146838       -2.58418924751902       -3.25165111170434
Co          62.53762059148897        0.31708386199839       -1.91922957626229
C           65.80479111918555        0.46350726829138       -2.68381380246916
C           65.14914446572081       -0.73859694998109       -2.84172239152984
C           65.79333758773805       -1.94538618119439       -3.26556461863717
C           64.91396116307304       -2.95140007836484       -3.04738645549803
C           63.71479949635316       -2.35199237184068       -2.53878697242075
N           63.86340781333100       -0.99573310227650       -2.43565935592416
C           62.54678924891288       -3.05807339411513       -2.27323474927040
C           62.59354875745547       -4.53886684220952       -2.32003670977408
C           63.37715175966429       -5.23655312618342       -1.40539245504083
C           63.42893218437684       -6.62944370339232       -1.43647463550941
C           64.27576426759227       -7.31736063227845       -0.42950107044309
O           64.25270880998876       -8.65419069340832       -0.53343507527561
O           64.92976952505384       -6.75248611929619        0.40924268312373
C           62.70005058124366       -7.33458486269933       -2.39417298518420
C           61.92871362506136       -6.64111412915764       -3.31339371197729
C           61.87343948350583       -5.25472955491606       -3.27887513946533
C           61.33777181983708       -2.41429418159882       -2.06205104223189
C           60.07026111125035       -3.07785827747677       -1.98958902903448
C           59.12117045002638       -2.11118360313801       -2.02249389413927
N           61.16112565042409       -1.04829892587981       -2.04634025210366
C           59.81063562433997       -0.86004402079506       -2.04627427886282
C           59.16056093643297        0.37868817665474       -1.99601784381194
C           59.85305009928003        1.55628106411649       -1.69692662152394
C           59.20217633251661        2.78823385788887       -1.37815120522729
C           60.15987386023476        3.62170292195638       -0.90467762990943
C           61.40119938313473        2.91179341507929       -0.98129082016147
N           61.19935027450822        1.64967464339379       -1.48599271661288
C           62.63180267736044        3.46979952255294       -0.66431424197251
C           62.65435847904148        4.80299623427392       -0.01671939237957
C           62.09965751218085        4.96741671478122        1.25440476512235
C           62.11198387055585        6.20825004544589        1.87600197518275
C           62.67099119536830        7.30062806856388        1.23404551058913
C           63.21877962919468        7.15097046973003       -0.04086759960545
C           63.80002400022763        8.34767574573362       -0.69943964121905
O           64.30958722781678        8.09781858507054       -1.91449427625325
O           63.82506457959251        9.44773254667971       -0.20964142493394
C           63.20951417627236        5.90446231587190       -0.66384872402105
C           63.82565421569149        2.85899328840128       -1.02506498350242
C           65.11595830206690        3.47612492915829       -0.91883314740546
C           65.98579217471612        2.68112532955415       -1.58589431243658
C           65.24163939753055        1.54491891235071       -2.03697391543121
N           63.92578502441307        1.65256821744312       -1.67018355723894
H           66.84435186723896        0.52663675727812       -2.98319497048244
H           66.80085224714685       -1.99920816075201       -3.64616102222214
H           65.04218920517357       -4.00565878242098       -3.23255481767927
H           63.94528579074771       -4.70358871200788       -0.65080999878432
H           64.82668360122857       -9.02641876888651        0.15569486485071
H           62.74261688800263       -8.41673090419796       -2.41828107868578
H           61.36663142659787       -7.18261544354031       -4.06588452050466
H           61.28167293846059       -4.71889123366520       -4.01247763930196
H           59.93240819095266       -4.14547417609098       -1.93678079254406
H           58.04864253191902       -2.21922622033674       -2.00235728009739
H           58.14384459094305        2.96633446689163       -1.48058664158582
H           60.05188535863031        4.63674903746979       -0.55831985191243
H           61.66733702096318        4.11100083073145        1.75968300188923
H           61.68303708934720        6.31979246959087        2.86528264352828
H           62.68883405508917        8.27718358561411        1.70459358100397
H           64.66654162336511        8.92576568944826       -2.27493478639203
H           63.61742043686593        5.79663989838915       -1.66181789661576
H           65.31634933540823        4.40616155769167       -0.41224836577290
H           67.04404422803316        2.81943331300999       -1.74045726553994
C           32.84158300725829        0.84445123358428       -1.70891422406980
C           34.05545527288738        0.98837497889237       -1.63847554995403
C           35.38186748238498        1.14447408666346       -1.49701920153997
C           36.58999470399858        1.29129248503641       -1.32048412303607
C           37.89185706210527        1.45116190041575       -1.04184511828261
C           39.07480826094149        1.59771952679218       -0.75000433509041
C           40.33733365640325        1.79531261696364       -0.25193549095811
C           41.53444927831168        2.44343634066104       -0.43534451920304
C           48.96154191497772        0.50913026938695       -1.00991910045132
C           50.13037495412831        0.51925450759678       -1.38186543245222
C           51.42902801893243        0.51426231822377       -1.70966048520600
C           52.64353740452039        0.50784204286797       -1.92026937338653
C           53.96952484133914        0.49250959744372       -2.07458725388630
C           55.19984299042421        0.47304201975876       -2.14329513981648
C           56.53966878129927        0.44439795115094       -2.15173590166452
C           57.76392371079334        0.41686473037751       -2.09600196073171
Co          44.52769514971780        0.60063399352818        0.57974016682374
C           41.23621355688447        1.05779722715580        0.58765485467031
C           41.70204825361959       -0.27070363914652        0.54208705764852
C           40.86515004045538       -1.41986209009207        0.54543742993573
C           41.69501839746577       -2.49928562753783        0.58396643016418
C           43.03135457890733       -1.99413931001319        0.54770080335311
N           43.01194512941989       -0.61406980182153        0.58170368027872
C           44.14829515570622       -2.74913623477482        0.21672485150616
C           43.99668838115237       -4.22096919006968        0.13684262590008
C           43.70492271212374       -4.94927882462013        1.28621579599370
C           43.55288128264142       -6.33379185998281        1.22505124276366
C           43.24333442185218       -7.05607396346664        2.48559967585737
O           43.12399903579198       -8.38146619057479        2.32700202164287
O           43.10617747911017       -6.52340210196999        3.55669540354828
C           43.68497068576432       -6.99814504106035        0.00596165789432
C           43.96306932327762       -6.27253311256897       -1.14172932630806
C           44.11760459124483       -4.89474189529824       -1.08045400603605
C           45.35282335241191       -2.16081741511178       -0.16386647818752
C           46.45744074638806       -2.84611691579082       -0.75744052493628
C           47.38645491421773       -1.90373608049243       -1.06520935435807
N           45.63031744891104       -0.81783333181960       -0.06824587595046
C           46.87684808803513       -0.65557956746636       -0.59709280911727
C           47.66387744620355        0.50661966670488       -0.48809162211734
C           47.27647544993227        1.56429568431266        0.34509337962569
C           48.16488615853461        2.56735738209149        0.85377199098560
C           47.49527954727488        3.22395830723577        1.83178588688208
C           46.17135661238566        2.67151151194823        1.87192677295471
N           46.06516507177619        1.64889956642657        0.95925695408255
C           45.10999235942704        3.18647676473168        2.60085833577139
C           45.38180139805429        4.20661497704345        3.63505970472582
C           44.84698059777432        5.49451911517350        3.54765963770003
C           45.12509656091142        6.44243007383733        4.52245096360095
C           45.94182878579030        6.12018245623742        5.59340538017356
C           46.49303020093814        4.84121457122205        5.68513266293831
C           47.37386881479681        4.53830371747850        6.84252003721056
O           47.86322598394184        3.29093555881516        6.83115845828425
O           47.63769665785644        5.32325974069798        7.71648364125990
C           46.21619869653958        3.88996633865718        4.70637538265098
C           43.79436816533784        2.86379596255060        2.23859774363662
C           42.60980630950207        3.52004394962540        2.74177645260649
C           41.57921376365675        3.12847910731657        1.97845810310625
C           42.10601952243488        2.19767326084492        0.96561538604681
N           43.48372277809261        2.00253022798658        1.25152924973722
H           39.78739300799042       -1.39654023785135        0.53706612478748
H           41.42811380185218       -3.54352818314468        0.58203850016016
H           43.60475993310029       -4.44830074805302        2.24285306024207
H           42.92172074372973       -8.77923350062378        3.18951842621697
H           43.56459151708891       -8.07368218681551       -0.04013575881234
H           44.05694297359816       -6.78144585458503       -2.09432235823850
H           44.31211446456761       -4.33202593778106       -1.98641136890123
H           46.51479000798572       -3.90972808813475       -0.92150118185848
H           48.35002394510347       -2.03786175159688       -1.52983859058169
H           49.17968121298777        2.71411321796974        0.52044193607547
H           47.83998265770236        4.03835203441637        2.44814229844168
H           44.23208224510174        5.76228983323966        2.69585025631712
H           44.70551704438458        7.43846131901351        4.43894627342963
H           46.16847069800068        6.84913893011295        6.36318573816270
H           48.42444362158860        3.17120163670593        7.61460389221296
H           46.63819215333481        2.89482287677652        4.78273221006247
H           42.59327923633883        4.19155951464652        3.58501394807174
H           40.54142165695505        3.41537991988997        2.02165942227782

          :  Hamiltonian                  GFN1-xTB          :
         :: total energy            -384.472104772428 Eh    ::
         :: gradient norm              0.000349619682 Eh/a0 ::
         :: HOMO-LUMO gap              0.022712822244 eV    ::
         :: SCC energy              -390.290583077247 Eh    ::
         :: repulsion energy           5.997543653009 Eh    ::

    * Orbital Energies and Occupations

         #    Occupation            Energy/Eh            Energy/eV
      -------------------------------------------------------------
         1        2.0000           -0.8381577             -22.8074
       ...           ...                  ...                  ...
       332        2.0000           -0.4004280             -10.8962
       333        2.0000           -0.4001095             -10.8875
       334        2.0000           -0.3980171             -10.8306
       335        2.0000           -0.3971434             -10.8068
       336        1.9999           -0.3953356             -10.7576
       337        1.9999           -0.3952014             -10.7540
       338        1.9999           -0.3951609             -10.7529
       339        1.9999           -0.3950271             -10.7492
       340        1.9992           -0.3932268             -10.7002
       341        1.9967           -0.3919378             -10.6652
       342        1.9366           -0.3890813             -10.5874
       343        1.1651           -0.3859876             -10.5033
       344        1.1442           -0.3859419             -10.5020 (HOMO)
       345        0.7586           -0.3851073             -10.4793 (LUMO)
       346                         -0.3516548              -9.5690
       347                         -0.3454020              -9.3989
       348                         -0.3406168              -9.2687
       349                         -0.3342047              -9.0942
       350                         -0.3337402              -9.0815
       351                         -0.3331830              -9.0664
       352                         -0.3218082              -8.7568
       353                         -0.3173669              -8.6360
       354                         -0.3168019              -8.6206
       355                         -0.3128831              -8.5140
       ...                                ...                  ...
       707                          1.5896360              43.2562
      -------------------------------------------------------------
                  HL-Gap            0.0008347 Eh            0.0227 eV

Wiberg/Mayer (AO) data.
largest (>0.10) Wiberg bond orders for each atom

     #   Z sym  total        # sym  WBO       # sym  WBO       # sym  WBO
 ---------------------------------------------------------------------------
     1  27 Co   3.015 --     7 N    0.637    43 N    0.634    28 N    0.630
                            21 N    0.628
     2   6 C    3.932 --     3 C    1.370    42 C    1.358    44 H    0.970
     3   6 C    3.924 --     2 C    1.370     7 N    1.197     4 C    1.171
     4   6 C    3.960 --     5 C    1.651     3 C    1.171    45 H    0.975
     5   6 C    3.964 --     4 C    1.651     6 C    1.175    46 H    0.973
     6   6 C    3.921 --     8 C    1.312     7 N    1.221     5 C    1.175
     7   7 N    3.352 --     6 C    1.221     3 C    1.197     1 Co   0.637
     8   6 C    3.936 --    18 C    1.339     6 C    1.312     9 C    1.026
     9   6 C    3.988 --    10 C    1.408    17 C    1.388     8 C    1.026
                            15 C    0.102
    10   6 C    3.983 --     9 C    1.408    11 C    1.397    47 H    0.968
                            16 C    0.104
    11   6 C    3.988 --    10 C    1.397    15 C    1.391    12 C    1.005
    12   6 C    3.836 --    14 O    1.693    13 O    1.089    11 C    1.005
    13   8 O    2.098 --    12 C    1.089    48 H    0.838    14 O    0.129
    14   8 O    1.962 --    12 C    1.693    13 O    0.129
    15   6 C    3.987 --    16 C    1.449    11 C    1.391    49 H    0.971
                             9 C    0.102
    16   6 C    3.994 --    15 C    1.449    17 C    1.440    50 H    0.972
                            10 C    0.104
    17   6 C    3.987 --    16 C    1.440     9 C    1.388    51 H    0.972
    18   6 C    3.918 --     8 C    1.339    21 N    1.190    19 C    1.179
    19   6 C    3.958 --    20 C    1.638    18 C    1.179    52 H    0.972
    20   6 C    3.960 --    19 C    1.638    22 C    1.189    53 H    0.974
    21   7 N    3.350 --    22 C    1.240    18 C    1.190     1 Co   0.628
    22   6 C    3.905 --    23 C    1.253    21 N    1.240    20 C    1.189
    23   6 C    3.940 --    24 C    1.263    22 C    1.253   125 C    1.191
    24   6 C    3.904 --    23 C    1.263    28 N    1.229    25 C    1.186
    25   6 C    3.961 --    26 C    1.639    24 C    1.186    54 H    0.974
    26   6 C    3.959 --    25 C    1.639    27 C    1.181    55 H    0.974
    27   6 C    3.918 --    29 C    1.328    28 N    1.200    26 C    1.181
    28   7 N    3.352 --    24 C    1.229    27 C    1.200     1 Co   0.630
    29   6 C    3.936 --    27 C    1.328    39 C    1.324    30 C    1.025
    30   6 C    3.988 --    38 C    1.407    31 C    1.390    29 C    1.025
                            33 C    0.103
    31   6 C    3.986 --    32 C    1.440    30 C    1.390    56 H    0.973
                            34 C    0.100
    32   6 C    3.994 --    33 C    1.450    31 C    1.440    57 H    0.972
                            38 C    0.104
    33   6 C    3.986 --    32 C    1.450    34 C    1.388    58 H    0.969
                            30 C    0.103
    34   6 C    3.988 --    38 C    1.399    33 C    1.388    35 C    1.005
                            31 C    0.100
    35   6 C    3.836 --    37 O    1.692    36 O    1.090    34 C    1.005
    36   8 O    2.099 --    35 C    1.090    59 H    0.838    37 O    0.129
    37   8 O    1.961 --    35 C    1.692    36 O    0.129
    38   6 C    3.986 --    30 C    1.407    34 C    1.399    60 H    0.969
                            32 C    0.104
    39   6 C    3.922 --    29 C    1.324    43 N    1.210    40 C    1.174
    40   6 C    3.962 --    41 C    1.649    39 C    1.174    61 H    0.972
    41   6 C    3.960 --    40 C    1.649    42 C    1.175    62 H    0.975
    42   6 C    3.924 --     2 C    1.358    43 N    1.208    41 C    1.175
    43   7 N    3.350 --    39 C    1.210    42 C    1.208     1 Co   0.634
    44   1 H    1.000 --     2 C    0.970
    45   1 H    0.997 --     4 C    0.975
    46   1 H    1.003 --     5 C    0.973
    47   1 H    1.006 --    10 C    0.968
    48   1 H    0.873 --    13 O    0.838
    49   1 H    1.005 --    15 C    0.971
    50   1 H    1.002 --    16 C    0.972
    51   1 H    1.005 --    17 C    0.972
    52   1 H    1.004 --    19 C    0.972
    53   1 H    1.001 --    20 C    0.974
    54   1 H    1.001 --    25 C    0.974
    55   1 H    1.003 --    26 C    0.974
    56   1 H    1.004 --    31 C    0.973
    57   1 H    1.002 --    32 C    0.972
    58   1 H    1.005 --    33 C    0.969
    59   1 H    0.873 --    36 O    0.838
    60   1 H    1.008 --    38 C    0.969
    61   1 H    1.003 --    40 C    0.972
    62   1 H    0.997 --    41 C    0.975
    63  27 Co   3.007 --    69 N    0.634   105 N    0.631    90 N    0.628
                            83 N    0.625
    64   6 C    3.928 --    65 C    1.370   104 C    1.357   106 H    0.970
    65   6 C    3.924 --    64 C    1.370    69 N    1.198    66 C    1.171
    66   6 C    3.960 --    67 C    1.651    65 C    1.171   107 H    0.975
    67   6 C    3.964 --    66 C    1.651    68 C    1.176   108 H    0.974
    68   6 C    3.920 --    70 C    1.311    69 N    1.222    67 C    1.176
    69   7 N    3.349 --    68 C    1.222    65 C    1.198    63 Co   0.634
    70   6 C    3.932 --    80 C    1.340    68 C    1.311    71 C    1.025
    71   6 C    3.988 --    72 C    1.409    79 C    1.388    70 C    1.025
                            77 C    0.103
    72   6 C    3.983 --    71 C    1.409    73 C    1.397   109 H    0.968
                            78 C    0.104
    73   6 C    3.988 --    72 C    1.397    77 C    1.391    74 C    1.005
                            79 C    0.100
    74   6 C    3.836 --    76 O    1.693    75 O    1.090    73 C    1.005
    75   8 O    2.098 --    74 C    1.090   110 H    0.838    76 O    0.129
    76   8 O    1.962 --    74 C    1.693    75 O    0.129
    77   6 C    3.987 --    78 C    1.449    73 C    1.391   111 H    0.970
                            71 C    0.103
    78   6 C    3.994 --    77 C    1.449    79 C    1.440   112 H    0.972
                            72 C    0.104
    79   6 C    3.988 --    78 C    1.440    71 C    1.388   113 H    0.972
                            73 C    0.100
    80   6 C    3.918 --    70 C    1.340    83 N    1.189    81 C    1.179
    81   6 C    3.958 --    82 C    1.637    80 C    1.179   114 H    0.972
    82   6 C    3.960 --    81 C    1.637    84 C    1.189   115 H    0.973
    83   7 N    3.346 --    84 C    1.243    80 C    1.189    63 Co   0.625
    84   6 C    3.903 --    85 C    1.249    83 N    1.243    82 C    1.189
    85   6 C    3.934 --    86 C    1.257    84 C    1.249   140 C    1.200
    86   6 C    3.902 --    85 C    1.257    90 N    1.232    87 C    1.188
    87   6 C    3.961 --    88 C    1.638    86 C    1.188   116 H    0.973
    88   6 C    3.959 --    87 C    1.638    89 C    1.181   117 H    0.974
    89   6 C    3.917 --    91 C    1.328    90 N    1.199    88 C    1.181
    90   7 N    3.349 --    86 C    1.232    89 C    1.199    63 Co   0.628
    91   6 C    3.932 --    89 C    1.328   101 C    1.322    92 C    1.026
    92   6 C    3.988 --   100 C    1.407    93 C    1.389    91 C    1.026
                            95 C    0.103
    93   6 C    3.986 --    94 C    1.440    92 C    1.389   118 H    0.973
                            96 C    0.100
    94   6 C    3.994 --    95 C    1.450    93 C    1.440   119 H    0.972
                           100 C    0.104
    95   6 C    3.986 --    94 C    1.450    96 C    1.388   120 H    0.969
                            92 C    0.103
    96   6 C    3.988 --   100 C    1.399    95 C    1.388    97 C    1.005
                            93 C    0.100
    97   6 C    3.836 --    99 O    1.692    98 O    1.090    96 C    1.005
    98   8 O    2.099 --    97 C    1.090   121 H    0.838    99 O    0.129
    99   8 O    1.961 --    97 C    1.692    98 O    0.129
   100   6 C    3.985 --    92 C    1.407    96 C    1.399   122 H    0.969
                            94 C    0.104
   101   6 C    3.922 --    91 C    1.322   105 N    1.212   102 C    1.174
   102   6 C    3.962 --   103 C    1.649   101 C    1.174   123 H    0.972
   103   6 C    3.959 --   102 C    1.649   104 C    1.175   124 H    0.975
   104   6 C    3.924 --    64 C    1.357   105 N    1.209   103 C    1.175
   105   7 N    3.347 --   101 C    1.212   104 C    1.209    63 Co   0.631
   106   1 H    1.000 --    64 C    0.970
   107   1 H    0.997 --    66 C    0.975
   108   1 H    1.003 --    67 C    0.974
   109   1 H    1.006 --    72 C    0.968
   110   1 H    0.873 --    75 O    0.838
   111   1 H    1.005 --    77 C    0.970
   112   1 H    1.002 --    78 C    0.972
   113   1 H    1.005 --    79 C    0.972
   114   1 H    1.003 --    81 C    0.972
   115   1 H    1.001 --    82 C    0.973
   116   1 H    1.001 --    87 C    0.973
   117   1 H    1.003 --    88 C    0.974
   118   1 H    1.003 --    93 C    0.973
   119   1 H    1.002 --    94 C    0.972
   120   1 H    1.005 --    95 C    0.969
   121   1 H    0.873 --    98 O    0.838
   122   1 H    1.008 --   100 C    0.969
   123   1 H    1.003 --   102 C    0.972
   124   1 H    0.997 --   103 C    0.975
   125   6 C    3.881 --   126 C    2.441    23 C    1.191   128 C    0.188
   126   6 C    3.935 --   125 C    2.441   127 C    1.341
   127   6 C    3.912 --   128 C    2.350   126 C    1.341   130 C    0.187
   128   6 C    3.925 --   127 C    2.350   129 C    1.351   125 C    0.188
   129   6 C    3.958 --   130 C    2.401   128 C    1.351   132 C    0.102
   130   6 C    3.888 --   129 C    2.401   131 C    1.251   127 C    0.187
   131   6 C    3.938 --   132 C    1.455   130 C    1.251   142 C    1.090
   132   6 C    3.050 --   131 C    1.455   182 C    0.817   142 C    0.445
                           129 C    0.102
   133   6 C    3.874 --   134 C    2.411   163 C    1.211   136 C    0.183
   134   6 C    3.922 --   133 C    2.411   135 C    1.362
   135   6 C    3.885 --   136 C    2.310   134 C    1.362   138 C    0.179
   136   6 C    3.915 --   135 C    2.310   137 C    1.385   133 C    0.183
   137   6 C    3.920 --   138 C    2.313   136 C    1.385   140 C    0.184
   138   6 C    3.883 --   137 C    2.313   139 C    1.358   135 C    0.179
   139   6 C    3.931 --   140 C    2.421   138 C    1.358
   140   6 C    3.868 --   139 C    2.421    85 C    1.200   137 C    0.184
   141  27 Co   3.216 --   183 N    0.668   168 N    0.648   161 N    0.630
                           147 N    0.597
   142   6 C    3.832 --   143 C    1.174   131 C    1.090   182 C    0.918
                           132 C    0.445
   143   6 C    3.903 --   147 N    1.292   144 C    1.217   142 C    1.174
   144   6 C    3.962 --   145 C    1.601   143 C    1.217   184 H    0.976
   145   6 C    3.955 --   144 C    1.601   146 C    1.199   185 H    0.974
   146   6 C    3.925 --   148 C    1.339   145 C    1.199   147 N    1.167
   147   7 N    3.349 --   143 C    1.292   146 C    1.167   141 Co   0.597
   148   6 C    3.930 --   146 C    1.339   158 C    1.308   149 C    1.026
   149   6 C    3.988 --   150 C    1.409   157 C    1.388   148 C    1.026
                           155 C    0.103
   150   6 C    3.983 --   149 C    1.409   151 C    1.397   186 H    0.968
                           156 C    0.105
   151   6 C    3.988 --   150 C    1.397   155 C    1.392   152 C    1.003
                           157 C    0.100
   152   6 C    3.837 --   154 O    1.694   153 O    1.092   151 C    1.003
   153   8 O    2.100 --   152 C    1.092   187 H    0.837   154 O    0.130
   154   8 O    1.963 --   152 C    1.694   153 O    0.130
   155   6 C    3.987 --   156 C    1.448   151 C    1.392   188 H    0.970
                           149 C    0.103
   156   6 C    3.994 --   155 C    1.448   157 C    1.441   189 H    0.972
                           150 C    0.105
   157   6 C    3.987 --   156 C    1.441   149 C    1.388   190 H    0.972
                           151 C    0.100
   158   6 C    3.921 --   148 C    1.308   161 N    1.197   159 C    1.196
   159   6 C    3.961 --   160 C    1.619   158 C    1.196   191 H    0.972
   160   6 C    3.956 --   159 C    1.619   162 C    1.199   192 H    0.974
   161   7 N    3.359 --   162 C    1.246   158 C    1.197   141 Co   0.630
   162   6 C    3.901 --   161 N    1.246   163 C    1.230   160 C    1.199
   163   6 C    3.926 --   164 C    1.256   162 C    1.230   133 C    1.211
   164   6 C    3.908 --   163 C    1.256   168 N    1.240   165 C    1.173
   165   6 C    3.969 --   166 C    1.655   164 C    1.173   193 H    0.974
   166   6 C    3.962 --   165 C    1.655   167 C    1.168   194 H    0.974
   167   6 C    3.929 --   169 C    1.354   168 N    1.187   166 C    1.168
   168   7 N    3.331 --   164 C    1.240   167 C    1.187   141 Co   0.648
   169   6 C    3.914 --   167 C    1.354   179 C    1.262   170 C    1.038
   170   6 C    3.988 --   178 C    1.401   171 C    1.386   169 C    1.038
                           173 C    0.101
   171   6 C    3.983 --   172 C    1.441   170 C    1.386   195 H    0.971
   172   6 C    3.994 --   173 C    1.449   171 C    1.441   196 H    0.972
                           178 C    0.104
   173   6 C    3.982 --   172 C    1.449   174 C    1.387   197 H    0.969
                           170 C    0.101
   174   6 C    3.988 --   178 C    1.403   173 C    1.387   175 C    1.002
   175   6 C    3.837 --   177 O    1.694   176 O    1.092   174 C    1.002
   176   8 O    2.100 --   175 C    1.092   198 H    0.837   177 O    0.130
   177   8 O    1.963 --   175 C    1.694   176 O    0.130
   178   6 C    3.980 --   174 C    1.403   170 C    1.401   199 H    0.969
                           172 C    0.104
   179   6 C    3.940 --   183 N    1.324   169 C    1.262   180 C    1.134
   180   6 C    3.976 --   181 C    1.748   179 C    1.134   200 H    0.969
   181   6 C    3.963 --   180 C    1.748   182 C    1.030   201 H    0.973
   182   6 C    3.938 --   181 C    1.030   183 N    1.023   142 C    0.918
                           132 C    0.817
   183   7 N    3.304 --   179 C    1.324   182 C    1.023   141 Co   0.668
   184   1 H    0.998 --   144 C    0.976
   185   1 H    1.002 --   145 C    0.974
   186   1 H    1.006 --   150 C    0.968
   187   1 H    0.872 --   153 O    0.837
   188   1 H    1.005 --   155 C    0.970
   189   1 H    1.001 --   156 C    0.972
   190   1 H    1.004 --   157 C    0.972
   191   1 H    1.003 --   159 C    0.972
   192   1 H    1.001 --   160 C    0.974
   193   1 H    1.001 --   165 C    0.974
   194   1 H    1.002 --   166 C    0.974
   195   1 H    1.004 --   171 C    0.971
   196   1 H    1.001 --   172 C    0.972
   197   1 H    1.005 --   173 C    0.969
   198   1 H    0.871 --   176 O    0.837
   199   1 H    1.007 --   178 C    0.969
   200   1 H    1.002 --   180 C    0.969
   201   1 H    1.001 --   181 C    0.973
 ---------------------------------------------------------------------------

           -------------------------------------------------
          | TOTAL ENERGY             -384.472104772428 Eh   |
          | GRADIENT NORM               0.000349619682 Eh/α |
          | HOMO-LUMO GAP               0.022712822244 eV   |
           -------------------------------------------------

 * finished run on 2022/07/30 at 00:46:47.549
