   * xtb version 6.5.1 (b24c23e) compiled by 'conda@728c89f4b128' on 2022-07-12
          program call               : xtb Co_PhOH_C2_2.xyz --gfn 1 --opt -T 48

   ID    Z sym.   atoms
    1   27 Co     1, 59
    2    6 C      2-6, 8-12, 14-18, 20-25, 27-31, 33-38, 60-64, 66-70, 72-76,
                  78-83, 85-89, 91-96, 117, 118
    3    7 N      7, 19, 26, 39, 65, 77, 84, 97
    4    8 O      13, 32, 71, 90
    5    1 H      40-58, 98-116
########################################################################
[WARNING] Please study the warnings concerning your input carefully
-1- prog_main_parseArguments: Unknown option '-T' provided
########################################################################

          :  Hamiltonian                  GFN1-xTB          :
 * total energy  :  -210.9787246 Eh     change       -0.6962466E-09 Eh
 * total energy  :  -211.1975608 Eh     change       -0.2188361E+00 Eh
 * total energy  :  -211.2747729 Eh     change       -0.7721217E-01 Eh
 * total energy  :  -211.3053347 Eh     change       -0.3056174E-01 Eh
 * total energy  :  -211.3171076 Eh     change       -0.1177296E-01 Eh
 * total energy  :  -211.3239600 Eh     change       -0.6852343E-02 Eh
 * total energy  :  -211.3277702 Eh     change       -0.3810168E-02 Eh
 * total energy  :  -211.3301156 Eh     change       -0.2345487E-02 Eh
 * total energy  :  -211.3317216 Eh     change       -0.1606002E-02 Eh
 * total energy  :  -211.3327730 Eh     change       -0.1051317E-02 Eh
 * total energy  :  -211.3355993 Eh     change       -0.1677232E-04 Eh
 * total energy  :  -211.3356139 Eh     change       -0.1463864E-04 Eh
 * total energy  :  -211.3356266 Eh     change       -0.1268448E-04 Eh
 * total energy  :  -211.3356375 Eh     change       -0.1093110E-04 Eh
 * total energy  :  -211.3356472 Eh     change       -0.9641652E-05 Eh
 * total energy  :  -211.3356556 Eh     change       -0.8388647E-05 Eh
 * total energy  :  -211.3356631 Eh     change       -0.7502022E-05 Eh
 * total energy  :  -211.3356681 Eh     change       -0.5090149E-05 Eh
 * total energy  :  -211.3356714 Eh     change       -0.3250719E-05 Eh
   *** GEOMETRY OPTIMIZATION CONVERGED AFTER 42 ITERATIONS ***

 final structure:
================
118
 xtb: 6.5.1 (b24c23e)
Co          16.88605114662348       -0.05536987922518       -0.06072367972126
C           13.52684547865735       -0.10651794004915       -0.37012611681956
C           14.21339841112787       -1.29403787971980       -0.50211196102920
C           13.57640382799165       -2.55694159395775       -0.72079368790631
C           14.52437131392170       -3.50569106343058       -0.53776694026364
C           15.74581599210474       -2.82045028019901       -0.23111989258808
N           15.55414137644629       -1.46273783533369       -0.25846004320997
C           16.91379842445728       -3.45194112050828        0.17770774674336
C           16.91656666237260       -4.92601200245221        0.34041596741986
C           16.73894077684819       -5.76358857935128       -0.76035906585772
C           16.73648951519159       -7.14161569657856       -0.60710299226709
C           16.90691626413211       -7.69651532038472        0.65900389736825
O           16.90442536382449       -9.04019799780677        0.85503760646640
C           17.08679336128419       -6.86966298746231        1.76643216476495
C           17.09469655965033       -5.49573096726971        1.60286444316657
C           18.08195115232716       -2.74641100905502        0.42337936312380
C           19.32831811362549       -3.36159455661755        0.76866517849932
C           20.27836378616016       -2.40042211545896        0.67469568447673
N           18.26545928862569       -1.40553688703487        0.16849741121868
C           19.61162612687191       -1.20121580345109        0.27800725506455
C           20.27914160265443       -0.01896312623183       -0.05252218296658
C           19.58961896814270        1.16103449509524       -0.33848592122556
C           20.23373856933821        2.39364261365405       -0.66432359309734
C           19.27097528773279        3.34717812915127       -0.66540388693175
C           18.03981978667717        2.69148697272044       -0.34297926206519
N           18.23951257266158        1.33673960419561       -0.20992762594325
C           16.83911921950974        3.35212200660461       -0.12296731632965
C           16.82494088638961        4.83193003197943       -0.12643829508544
C           17.62584466360675        5.55226624906932        0.76389015218806
C           17.61947467459226        6.93554362391869        0.76306918578619
C           16.81271321560192        7.62287122013803       -0.14230475131026
O           16.83503250646977        8.98007996281547       -0.12043994184710
C           16.01279603158733        6.91862107993356       -1.03934757031667
C           16.01944509183883        5.53274150087712       -1.02532281359567
C           15.64937051920433        2.65986913401330        0.06508703415026
C           14.37810991807712        3.28424967919853        0.28727772022830
C           13.44046206652136        2.31298013488580        0.17820144466736
C           14.14197657251787        1.09300461155911       -0.07911278725285
N           15.49678264765629        1.30537712781318       -0.09065359724174
H           12.44742930288969       -0.12254913878099       -0.46485208657289
H           12.53035002813862       -2.68186366581387       -0.95155889685850
H           14.41431685096071       -4.57686503236453       -0.58594517299609
H           16.61887159292245       -5.33310299792024       -1.74821906735750
H           16.60333198735995       -7.78924872288774       -1.46707338223209
H           16.77097181475164       -9.51731699227046        0.02505208563054
H           17.21646521617469       -7.31512328051772        2.74498733811473
H           17.22309910788390       -4.85160588496792        2.46554380208134
H           19.45314956005991       -4.40151893492892        1.02276636496222
H           21.33899061361566       -2.48301847066837        0.84872472262779
H           21.28871074493155        2.50187983942186       -0.85749608159922
H           19.37375462462062        4.40026383321274       -0.87070526551888
H           18.24502410810118        5.01804871942592        1.47579180570770
H           18.23337455348915        7.49615174662201        1.45707119773150
H           16.24138919101457        9.35327533382106       -0.78584132205885
H           15.39113265602685        7.45741597142586       -1.74638977816511
H           15.40887091101601        4.98666184461005       -1.73575806353556
H           14.23415807573414        4.33231316409432        0.49433202591595
H           12.36869846468753        2.39500961441219        0.26585004323205
Co          27.70168544101423        0.04608754866999       -0.06801352301946
C           31.06088943755828        0.05232405494946       -0.38161409638799
C           30.37432977583557        1.20861940739053       -0.68259716261358
C           31.01132040932417        2.42708760957205       -1.08019427528931
C           30.06334928838882        3.39227676044479       -1.03517893815279
C           28.84190600919028        2.75811475483642       -0.63340107852920
N           29.03358981152790        1.41052949275254       -0.46563659991001
C           27.67392069865224        3.44172425349485       -0.31941440285558
C           27.67115467184160        4.92388993727213       -0.36986307786727
C           27.84879063474115        5.59487571613903       -1.57941409321547
C           27.85123412673990        6.98063332764808       -1.62544830202885
C           27.68079273868047        7.71143917471109       -0.45205278538923
O           27.68328849039399        9.06934633838113       -0.45082299330830
C           27.50091276196219        7.05202265732843        0.76254761015289
C           27.49301676523855        5.66883722901622        0.79778935015442
C           26.50576931644315        2.77873725271136        0.02494270746759
C           25.25939987528466        3.43708988347684        0.27840505329871
C           24.30935802934118        2.47237549932740        0.32329936189627
N           26.32226920375513        1.41516524584787       -0.03489393122870
C           24.97610310316475        1.22866366811800        0.10278623100209
C           24.30859502180308        0.01121491191048       -0.05469212665534
C           24.99812399243884       -1.19760049916678       -0.16838653370840
C           24.35400964216021       -2.46420906074366       -0.31399921805391
C           25.31677535776108       -3.40802940118063       -0.17824935793963
C           26.54793327244234       -2.71285648650949        0.04673512743631
N           26.34823180913576       -1.35303593886460       -0.01595081725314
C           27.74863954465755       -3.33508545237694        0.35924541388789
C           27.76283086228650       -4.80007926642187        0.56814305237916
C           26.96193322188845       -5.38522045245475        1.55261903566824
C           26.96828654887414       -6.75430480937423        1.75026292910240
C           27.77501500102857       -7.56442425908763        0.95284776499007
O           27.75271326483714       -8.90445225843432        1.16922813200914
C           28.57495000731446       -6.99616409248966       -0.03594716377670
C           28.56832630698111       -5.62260904313581       -0.22089149269479
C           28.93838456657575       -2.62300853172624        0.44602700757903
C           30.20964896356677       -3.20904470474782        0.75549536806356
C           31.14729032434022       -2.26346664942680        0.50819672258964
C           30.44576741627145       -1.09303823110492        0.07849875430407
N           29.09096208366592       -1.30487056276619        0.09758065264744
H           32.14030626011940        0.05461108564522       -0.47764367506949
H           32.05737227032476        2.51761238626198       -1.32650586105563
H           30.17339854851717        4.44545646825836       -1.23655115715754
H           27.96885904496207        5.02711618008981       -2.49529568706286
H           27.98440194247880        7.49818731157576       -2.56943554019005
H           27.81675332678358        9.42245186795747       -1.34067240436820
H           27.37122679978047        7.63326621838601        1.66706698874502
H           27.36459207583606        5.15514312727198        1.74395069547067
H           25.13456304254196        4.50271207730084        0.38067089003352
H           23.24873038359034        2.57908147169026        0.48366699914810
H           23.29903703594123       -2.59904725262763       -0.48963750325237
H           25.21399867670578       -4.47967590687367       -0.23032473646320
H           26.34274068747261       -4.75438874080767        2.18050062773558
H           26.35440197649175       -7.20953752752756        2.51752914831817
H           28.34635615803710       -9.36925802286627        0.56425341341250
H           29.19661438103556       -7.63082909399184       -0.65837119206038
H           29.17885880494001       -5.18411567370857       -1.00235341955502
H           30.35360793086298       -4.21655959899541        1.11076842214339
H           32.21905503176693       -2.33206740691691        0.60669778688929
C           21.68539961000337       -0.00906930283899       -0.06268626656907
C           22.90233706766769       -0.00004117311666       -0.06333443368407

          :  Hamiltonian                  GFN1-xTB          :
         :: total energy            -211.335671395447 Eh    ::
         :: gradient norm              0.000253747085 Eh/a0 ::
         :: HOMO-LUMO gap              0.011322248671 eV    ::
         :: SCC energy              -214.476703533853 Eh    ::
         :: repulsion energy           3.247875261894 Eh    ::

    * Orbital Energies and Occupations

         #    Occupation            Energy/Eh            Energy/eV
      -------------------------------------------------------------
         1        2.0000           -0.8061949             -21.9377
       ...           ...                  ...                  ...
       180        2.0000           -0.4196546             -11.4194
       181        2.0000           -0.4195074             -11.4154
       182        2.0000           -0.3962802             -10.7833
       183        2.0000           -0.3948679             -10.7449
       184        2.0000           -0.3948598             -10.7447
       185        2.0000           -0.3926561             -10.6847
       186        2.0000           -0.3922447             -10.6735
       187        1.9998           -0.3893032             -10.5935
       188        1.9998           -0.3893020             -10.5934
       189        1.9998           -0.3892673             -10.5925
       190        1.9998           -0.3892659             -10.5925
       191        1.8999           -0.3831294             -10.4255
       192        1.1592           -0.3806385             -10.3577 (HOMO)
       193        0.9416           -0.3802225             -10.3464 (LUMO)
       194                         -0.3364351              -9.1549
       195                         -0.3254608              -8.8562
       196                         -0.3254445              -8.8558
       197                         -0.3202567              -8.7146
       198                         -0.2949661              -8.0264
       199                         -0.2907540              -7.9118
       200                         -0.2907381              -7.9114
       201                         -0.2863048              -7.7907
       202                         -0.2679522              -7.2914
       203                         -0.2679503              -7.2913
       ...                                ...                  ...
       406                          1.3433637              36.5548
      -------------------------------------------------------------
                  HL-Gap            0.0004161 Eh            0.0113 eV

Wiberg/Mayer (AO) data.
largest (>0.10) Wiberg bond orders for each atom

     #   Z sym  total        # sym  WBO       # sym  WBO       # sym  WBO
 ---------------------------------------------------------------------------
     1  27 Co   3.056 --     7 N    0.640    39 N    0.635    26 N    0.635
                            19 N    0.633
     2   6 C    3.927 --     3 C    1.368    38 C    1.359    40 H    0.970
     3   6 C    3.925 --     2 C    1.368     7 N    1.199     4 C    1.174
     4   6 C    3.960 --     5 C    1.649     3 C    1.174    41 H    0.975
     5   6 C    3.963 --     4 C    1.649     6 C    1.177    42 H    0.972
     6   6 C    3.919 --     8 C    1.317     7 N    1.215     5 C    1.177
     7   7 N    3.343 --     6 C    1.215     3 C    1.199     1 Co   0.640
     8   6 C    3.930 --    16 C    1.335     6 C    1.317     9 C    1.023
     9   6 C    3.988 --    10 C    1.395    15 C    1.385     8 C    1.023
    10   6 C    3.988 --    11 C    1.451     9 C    1.395    43 H    0.973
                            14 C    0.105
    11   6 C    3.988 --    10 C    1.451    12 C    1.372    44 H    0.970
                            15 C    0.103
    12   6 C    3.902 --    11 C    1.372    14 C    1.364    13 O    1.040
    13   8 O    2.044 --    12 C    1.040    45 H    0.865
    14   6 C    3.990 --    15 C    1.466    12 C    1.364    46 H    0.971
                            10 C    0.105
    15   6 C    3.988 --    14 C    1.466     9 C    1.385    47 H    0.973
                            11 C    0.103
    16   6 C    3.916 --     8 C    1.335    19 N    1.191    17 C    1.181
    17   6 C    3.959 --    18 C    1.637    16 C    1.181    48 H    0.973
    18   6 C    3.963 --    17 C    1.637    20 C    1.191    49 H    0.971
    19   7 N    3.348 --    20 C    1.233    16 C    1.191     1 Co   0.633
    20   6 C    3.910 --    21 C    1.260    19 N    1.233    18 C    1.191
    21   6 C    3.931 --    22 C    1.265    20 C    1.260   117 C    1.180
    22   6 C    3.910 --    21 C    1.265    26 N    1.228    23 C    1.191
    23   6 C    3.962 --    24 C    1.635    22 C    1.191    50 H    0.971
    24   6 C    3.960 --    23 C    1.635    25 C    1.184    51 H    0.973
    25   6 C    3.917 --    27 C    1.327    26 N    1.197    24 C    1.184
    26   7 N    3.345 --    22 C    1.228    25 C    1.197     1 Co   0.635
    27   6 C    3.931 --    25 C    1.327    35 C    1.317    28 C    1.034
    28   6 C    3.988 --    34 C    1.390    29 C    1.380    27 C    1.034
    29   6 C    3.986 --    30 C    1.468    28 C    1.380    52 H    0.973
                            33 C    0.102
    30   6 C    3.990 --    29 C    1.468    31 C    1.363    53 H    0.971
                            34 C    0.104
    31   6 C    3.899 --    33 C    1.371    30 C    1.363    32 O    1.041
    32   8 O    2.044 --    31 C    1.041    54 H    0.865
    33   6 C    3.988 --    34 C    1.454    31 C    1.371    55 H    0.970
                            29 C    0.102
    34   6 C    3.986 --    33 C    1.454    28 C    1.390    56 H    0.972
                            30 C    0.104
    35   6 C    3.920 --    27 C    1.317    39 N    1.211    36 C    1.178
    36   6 C    3.963 --    37 C    1.645    35 C    1.178    57 H    0.973
    37   6 C    3.958 --    36 C    1.645    38 C    1.177    58 H    0.975
    38   6 C    3.925 --     2 C    1.359    39 N    1.204    37 C    1.177
    39   7 N    3.345 --    35 C    1.211    38 C    1.204     1 Co   0.635
    40   1 H    1.000 --     2 C    0.970
    41   1 H    0.998 --     4 C    0.975
    42   1 H    1.005 --     5 C    0.972
    43   1 H    1.004 --    10 C    0.973
    44   1 H    0.999 --    11 C    0.970
    45   1 H    0.887 --    13 O    0.865
    46   1 H    0.999 --    14 C    0.971
    47   1 H    1.004 --    15 C    0.973
    48   1 H    1.004 --    17 C    0.973
    49   1 H    1.004 --    18 C    0.971
    50   1 H    1.004 --    23 C    0.971
    51   1 H    1.004 --    24 C    0.973
    52   1 H    1.005 --    29 C    0.973
    53   1 H    0.999 --    30 C    0.971
    54   1 H    0.887 --    32 O    0.865
    55   1 H    0.999 --    33 C    0.970
    56   1 H    1.005 --    34 C    0.972
    57   1 H    1.004 --    36 C    0.973
    58   1 H    0.998 --    37 C    0.975
    59  27 Co   3.056 --    65 N    0.640    97 N    0.635    84 N    0.635
                            77 N    0.633
    60   6 C    3.927 --    61 C    1.368    96 C    1.359    98 H    0.970
    61   6 C    3.925 --    60 C    1.368    65 N    1.199    62 C    1.174
    62   6 C    3.960 --    63 C    1.649    61 C    1.174    99 H    0.975
    63   6 C    3.963 --    62 C    1.649    64 C    1.177   100 H    0.972
    64   6 C    3.919 --    66 C    1.317    65 N    1.215    63 C    1.177
    65   7 N    3.343 --    64 C    1.215    61 C    1.199    59 Co   0.640
    66   6 C    3.930 --    74 C    1.335    64 C    1.317    67 C    1.023
    67   6 C    3.988 --    68 C    1.395    73 C    1.385    66 C    1.023
    68   6 C    3.988 --    69 C    1.451    67 C    1.395   101 H    0.973
                            72 C    0.105
    69   6 C    3.988 --    68 C    1.451    70 C    1.372   102 H    0.970
                            73 C    0.103
    70   6 C    3.902 --    69 C    1.372    72 C    1.364    71 O    1.040
    71   8 O    2.044 --    70 C    1.040   103 H    0.865
    72   6 C    3.990 --    73 C    1.466    70 C    1.364   104 H    0.971
                            68 C    0.105
    73   6 C    3.988 --    72 C    1.466    67 C    1.385   105 H    0.973
                            69 C    0.103
    74   6 C    3.916 --    66 C    1.335    77 N    1.191    75 C    1.181
    75   6 C    3.959 --    76 C    1.637    74 C    1.181   106 H    0.973
    76   6 C    3.963 --    75 C    1.637    78 C    1.191   107 H    0.971
    77   7 N    3.348 --    78 C    1.233    74 C    1.191    59 Co   0.633
    78   6 C    3.910 --    79 C    1.260    77 N    1.233    76 C    1.191
    79   6 C    3.931 --    80 C    1.265    78 C    1.260   118 C    1.180
    80   6 C    3.910 --    79 C    1.265    84 N    1.228    81 C    1.191
    81   6 C    3.962 --    82 C    1.635    80 C    1.191   108 H    0.971
    82   6 C    3.960 --    81 C    1.635    83 C    1.184   109 H    0.973
    83   6 C    3.917 --    85 C    1.327    84 N    1.197    82 C    1.184
    84   7 N    3.345 --    80 C    1.228    83 C    1.197    59 Co   0.635
    85   6 C    3.931 --    83 C    1.327    93 C    1.317    86 C    1.034
    86   6 C    3.988 --    92 C    1.390    87 C    1.380    85 C    1.034
    87   6 C    3.986 --    88 C    1.468    86 C    1.380   110 H    0.973
                            91 C    0.102
    88   6 C    3.990 --    87 C    1.468    89 C    1.363   111 H    0.971
                            92 C    0.104
    89   6 C    3.899 --    91 C    1.371    88 C    1.363    90 O    1.041
    90   8 O    2.044 --    89 C    1.041   112 H    0.865
    91   6 C    3.988 --    92 C    1.454    89 C    1.371   113 H    0.970
                            87 C    0.102
    92   6 C    3.986 --    91 C    1.454    86 C    1.390   114 H    0.972
                            88 C    0.104
    93   6 C    3.920 --    85 C    1.317    97 N    1.211    94 C    1.178
    94   6 C    3.963 --    95 C    1.645    93 C    1.178   115 H    0.973
    95   6 C    3.958 --    94 C    1.645    96 C    1.177   116 H    0.975
    96   6 C    3.925 --    60 C    1.359    97 N    1.204    95 C    1.177
    97   7 N    3.345 --    93 C    1.211    96 C    1.204    59 Co   0.635
    98   1 H    1.000 --    60 C    0.970
    99   1 H    0.998 --    62 C    0.975
   100   1 H    1.005 --    63 C    0.972
   101   1 H    1.004 --    68 C    0.973
   102   1 H    0.999 --    69 C    0.970
   103   1 H    0.887 --    71 O    0.865
   104   1 H    0.999 --    72 C    0.971
   105   1 H    1.004 --    73 C    0.973
   106   1 H    1.004 --    75 C    0.973
   107   1 H    1.004 --    76 C    0.971
   108   1 H    1.004 --    81 C    0.971
   109   1 H    1.004 --    82 C    0.973
   110   1 H    1.005 --    87 C    0.973
   111   1 H    0.999 --    88 C    0.971
   112   1 H    0.887 --    90 O    0.865
   113   1 H    0.999 --    91 C    0.970
   114   1 H    1.005 --    92 C    0.972
   115   1 H    1.004 --    94 C    0.973
   116   1 H    0.998 --    95 C    0.975
   117   6 C    3.929 --   118 C    2.571    21 C    1.180
   118   6 C    3.929 --   117 C    2.571    79 C    1.180
 ---------------------------------------------------------------------------

           -------------------------------------------------
          | TOTAL ENERGY             -211.335671395447 Eh   |
          | GRADIENT NORM               0.000253747085 Eh/α |
          | HOMO-LUMO GAP               0.011322248671 eV   |
           -------------------------------------------------

 * finished run on 2022/07/30 at 01:48:38.259
