   * xtb version 6.5.1 (b24c23e) compiled by 'conda@728c89f4b128' on 2022-07-12
          program call               : xtb Fe_PhNO2_C2_3.xyz --gfn 1 --opt -T 48

   ID    Z sym.   atoms
    1   26 Fe     1, 61, 125
    2    6 C      2-6, 8-12, 16-20, 22-27, 29-33, 37-42, 62-66, 68-72, 76-80,
                  82-87, 89-93, 97-102, 121-124, 126-130, 132-136, 140-144,
                  146-151, 153-157, 161-166
    3    7 N      7, 13, 21, 28, 34, 43, 67, 73, 81, 88, 94, 103, 131, 137,
                  145, 152, 158, 167
    4    8 O      14, 15, 35, 36, 74, 75, 95, 96, 138, 139, 159, 160
    5    1 H      44-60, 104-120, 168-183
########################################################################
[WARNING] Please study the warnings concerning your input carefully
-1- prog_main_parseArguments: Unknown option '-T' provided
########################################################################

          :  Hamiltonian                  GFN1-xTB          :
 * total energy  :  -359.7574545 Eh     change        0.7086385E-08 Eh
 * total energy  :  -360.1073237 Eh     change       -0.3498692E+00 Eh
 * total energy  :  -360.2909914 Eh     change       -0.1836677E+00 Eh
 * total energy  :  -360.3516330 Eh     change       -0.6064161E-01 Eh
 * total energy  :  -360.3777141 Eh     change       -0.2608111E-01 Eh
 * total energy  :  -360.3947138 Eh     change       -0.1699967E-01 Eh
 * total energy  :  -360.4056682 Eh     change       -0.1095444E-01 Eh
 * total energy  :  -360.4128680 Eh     change       -0.7199811E-02 Eh
 * total energy  :  -360.4193643 Eh     change       -0.6496237E-02 Eh
 * total energy  :  -360.4233443 Eh     change       -0.3979999E-02 Eh
 * total energy  :  -360.4362316 Eh     change       -0.4729110E-05 Eh
 * total energy  :  -360.4362391 Eh     change       -0.7467533E-05 Eh
 * total energy  :  -360.4362456 Eh     change       -0.6578130E-05 Eh
 * total energy  :  -360.4362543 Eh     change       -0.8687039E-05 Eh
 * total energy  :  -360.4362593 Eh     change       -0.4929746E-05 Eh
 * total energy  :  -360.4362640 Eh     change       -0.4713302E-05 Eh
 * total energy  :  -360.4362701 Eh     change       -0.6089394E-05 Eh
 * total energy  :  -360.4362759 Eh     change       -0.5792378E-05 Eh
 * total energy  :  -360.4362793 Eh     change       -0.3436905E-05 Eh
   *** GEOMETRY OPTIMIZATION CONVERGED AFTER 58 ITERATIONS ***

 final structure:
================
183
 xtb: 6.5.1 (b24c23e)
Fe          34.91477327600695       -0.01902564360046       -0.07638035841492
C           31.52596329272098       -0.01902385340266       -0.18516229741839
C           32.17146956486476       -1.23777522454089       -0.21635545595353
C           31.48865187118554       -2.49545847853139       -0.26499096059184
C           32.44198445689800       -3.44987934347624       -0.37435003482588
C           33.70571343779068       -2.77092164363200       -0.40646288073093
N           33.52837431384395       -1.42142753139399       -0.26903113443527
C           34.92681914138241       -3.40877982959941       -0.59878934876465
C           34.92860960739915       -4.87043095976610       -0.83654845502926
C           35.57645608044798       -5.73130768616016        0.05394982513461
C           35.57371786047529       -7.09740678727317       -0.16297586012234
C           34.92343422040415       -7.60525849577496       -1.28381041520956
N           34.91784579003385       -9.03968059091464       -1.51696372540119
O           34.34538803369109       -9.44223907536269       -2.49658373993247
O           35.48435577379003       -9.73621915098255       -0.71505777866653
C           34.27748879877970       -6.76445659086998       -2.18538119939041
C           34.28032846581981       -5.40064368300835       -1.95595525083262
C           36.14084592359288       -2.73623368565991       -0.59206813658502
C           37.40348717670586       -3.36152589620078       -0.85337320225915
C           38.35105987751613       -2.40657435546164       -0.69627480013246
N           36.31705950563161       -1.40191756724180       -0.31551814794017
C           37.66544196438147       -1.20220108429010       -0.34487113462017
C           38.32495890869721       -0.00814950745174       -0.03235117208296
C           37.65061884158175        1.17751360880815        0.28112347330491
C           38.31921809480813        2.37765185451850        0.67673784320958
C           37.36001590176993        3.31833773116911        0.84896392991114
C           36.10822970033907        2.69163441883126        0.54202973306021
N           36.30128460375287        1.36646265158683        0.23339416608105
C           34.89129258838980        3.35852520742058        0.51934790329703
C           34.87254041089070        4.81311244333684        0.79558009490865
C           34.15820943352551        5.31063112730186        1.88957938151085
C           34.13314855258466        6.66795502535965        2.15368075615684
C           34.82388467641707        7.53546496679349        1.31261591304030
N           34.79544777598924        8.96328648700414        1.58162294271535
O           34.15768340575058        9.33819236005392        2.53146891369052
O           35.41083470579937        9.68244094226360        0.83777748214493
C           35.53949423183554        7.06059608140043        0.21744795161347
C           35.56290881336036        5.70080340985065       -0.03474199594008
C           33.68439130632088        2.72400749155599        0.24224465660032
C           32.42567275513991        3.40512510819201        0.13768782397750
C           31.48375419402964        2.45563678062401       -0.06943780238609
C           32.16837115836171        1.19820241385482       -0.09662319755584
N           33.51801796386253        1.37887933436325        0.05986299435059
H           30.44266684857178       -0.01858029949807       -0.22528265039538
H           30.41778091864206       -2.61216461195103       -0.21859711304438
H           32.31421435429960       -4.51888884775317       -0.42510410257558
H           36.06964979029025       -5.32334126301632        0.92848234608167
H           36.06643545956399       -7.77427849216867        0.52461490500377
H           33.78274140145410       -7.18499414570355       -3.05258935417662
H           33.78995418862357       -4.73349165710066       -2.65514808514100
H           37.53710954119732       -4.39453463228761       -1.13005636773615
H           39.41927677104657       -2.49504402969043       -0.81007139976200
H           39.38462956342670        2.47206399874350        0.81089468207082
H           37.47974651631136        4.34291055979828        1.16100941764725
H           33.63274847754864        4.62308789342481        2.54199371163769
H           33.58682009011523        7.06317017161877        3.00161817220020
H           36.06537699397691        7.75779788621070       -0.42367593817224
H           36.10544414444438        5.31917448762685       -0.89175290281158
H           32.29386545730966        4.47260609503599        0.20700082613541
H           30.41929880156095        2.57533584110630       -0.19255061049737
Fe          56.59665207881613        0.06797414278989       -0.02729850892100
C           59.97710648773190        0.10406170042180       -0.13670395672009
C           59.33321714469793        1.22673745750919        0.34311781297460
C           60.00759310240144        2.39125127835358        0.83282700467442
C           59.05318919174294        3.32219491215012        1.06915738169157
C           57.79763239375251        2.72967189040407        0.70634126807109
N           57.97829720416029        1.43001435937269        0.32004046362294
C           56.58687865845272        3.41483515970904        0.66257862977609
C           56.57953790378482        4.86277648319825        0.96607634602482
C           55.80820694914784        5.35514897008751        2.02332977944234
C           55.80331403307765        6.70585463661429        2.32005004662670
C           56.57138489909095        7.57277988452231        1.54825543088174
N           56.57116464457385        8.99283637344058        1.85678685273280
O           57.25657563307683        9.71083818397466        1.17576601953285
O           55.88619559781867        9.36257808581353        2.77534046362123
C           57.34059833278025        7.10402732615260        0.48725284188382
C           57.34343639653255        5.75063692546411        0.20248715256471
C           55.38518826993555        2.79791683195753        0.33871223666913
C           54.13732197679216        3.48597634088235        0.19105994991112
C           53.18883126493213        2.53636965066030        0.00296609017096
N           55.20219950585124        1.44544114514261        0.18404425459821
C           53.85754131076730        1.27386913106800        0.03615088942876
C           53.19236699978176        0.04019563672822        0.03607995792788
C           53.87576100966776       -1.18348039273382        0.02730817950951
C           53.22927635410128       -2.45557848309175        0.10546810042027
C           54.18775877430581       -3.39363887274128       -0.09004739970464
C           55.41819560316988       -2.68861988191925       -0.29518669049103
N           55.21767601483572       -1.33636181669151       -0.15901130631840
C           56.61482261024890       -3.28946274773346       -0.66430854317393
C           56.62549885886018       -4.74298105482504       -0.93912482773192
C           57.45721400493684       -5.59479537994060       -0.20568749972533
C           57.47595018287812       -6.95313086901110       -0.46481236071616
C           56.65944990628672       -7.46364544014014       -1.46974083786660
N           56.68183582939814       -8.88896254105976       -1.75226444167071
O           57.42832346287807       -9.57383697701326       -1.10202696307175
O           55.95165641111171       -9.29612886546185       -2.61859029599933
C           55.82365782184512       -6.63326663846961       -2.21069203583908
C           55.80834370349943       -5.27709540298219       -1.94020720071660
C           57.80603742537622       -2.58004225038898       -0.79224305058610
C           59.04723107893492       -3.15040709342121       -1.23195958068258
C           59.99252595361978       -2.19255275488715       -1.08261841137601
C           59.32672621162352       -1.03584116791457       -0.56351677055226
N           57.98193255829720       -1.27043766752916       -0.44035455303808
H           61.06030713335279        0.11659278457055       -0.17591252321154
H           61.07427108451825        2.46822016508934        0.97008613135344
H           59.17608336273543        4.32128354252821        1.45453225521418
H           55.22458557942175        4.66738619261250        2.62408394102223
H           55.21542471344483        7.09623288420850        3.14204346334848
H           57.92500064133830        7.80084325997415       -0.10148935401513
H           57.92847547790186        5.37448850580971       -0.62858447298139
H           54.01325950321915        4.55623451042583        0.21915370039254
H           52.12997017822570        2.66715782440465       -0.14766150545840
H           52.17796092709936       -2.60029546468750        0.29257963437734
H           54.08087462682051       -4.46610749051095       -0.09025781976964
H           58.07956282401852       -5.18630477314114        0.58188418100155
H           58.11366324458768       -7.62194635704380        0.10059376293681
H           55.20035570846579       -7.05573517236093       -2.98959808606348
H           55.17296610068270       -4.61760083753469       -2.51975557509291
H           59.16717257037368       -4.15347532344348       -1.60778398833782
H           61.04816740157302       -2.24723565630191       -1.29522134357954
C           39.72918957178354       -0.00236890157651       -0.02210759304075
C           40.94760950163428        0.00197284213608       -0.01473900037803
C           50.56988033250896        0.02481562099790        0.04956498419319
C           51.78938265197318        0.03070384006812        0.04759663440949
Fe          45.75769474868940        0.01123373129691        0.01548459765807
C           42.35066384830672        0.00462397765394       -0.00962816485643
C           43.02450376409586       -1.20143922993338        0.22238420383772
C           42.36574319393942       -2.43397376296390        0.52041138456704
C           43.32372672017494       -3.39331670162944        0.53446339402631
C           44.56307527666532       -2.74111303500166        0.23466708498352
N           44.36902797538166       -1.38880562136509        0.10013346859734
C           45.76750167360562       -3.40085653166038        0.01719264136673
C           45.77864843719253       -4.88008545828485        0.04191590420842
C           46.58294118613960       -5.55922971560264        0.96230423475778
C           46.59422442679810       -6.94158779737018        0.99963789835379
C           45.79921486057521       -7.65066218799805        0.10418332154530
N           45.80864593362926       -9.10430692282307        0.13865398703620
O           45.09701571219740       -9.68354238262289       -0.64001190156826
O           46.52601559675406       -9.63640155801911        0.94537137334585
C           44.99529820352027       -6.99407226919964       -0.82279028870396
C           44.98609836205350       -5.61111928843580       -0.84795582446158
C           46.96550018244228       -2.73354278355002       -0.21329673190744
C           48.20612155184664       -3.38055936363864       -0.51768669944669
C           49.15887559825071       -2.41587942224894       -0.51303028945730
N           47.15324090679589       -1.37932449594177       -0.08937539767108
C           48.49725530648971       -1.18646067498423       -0.21055119034793
C           49.16757098052534        0.01871646235058        0.04320277582886
C           48.48473223642711        1.22009474161035        0.28120307818926
C           49.13174976308810        2.45374476711358        0.59714347968553
C           48.17645310153891        3.41542859264027        0.56238477211030
C           46.94835960113677        2.76177686291065        0.22399201721998
N           47.14450877126110        1.40770299565978        0.11502145539112
C           45.75455439702962        3.42242047527692       -0.04595192585251
C           45.76603870985877        4.90081585737751       -0.09734215938045
C           46.59727295203056        5.56102377760055       -1.00770208551232
C           46.61033095089114        6.94225243459427       -1.07367537517412
C           45.78980848499894        7.66978700886143       -0.21686410525841
N           45.79991752587743        9.12232450231582       -0.28231265033836
O           46.53752037620075        9.63747026221392       -1.08176422606561
O           45.06845841069185        9.71770156641846        0.46523342762123
C           44.95998203357392        7.03248324440698        0.70068757159516
C           44.94965646409463        5.65033401276991        0.75481772303105
C           44.55591981137487        2.75562924292768       -0.27294024189301
C           43.31593726986477        3.39963314372541       -0.58821648991175
C           42.35997818613266        2.43869164737556       -0.55890285644812
C           43.02157139451577        1.21201843399153       -0.24315780015115
N           44.36543042583630        1.40410855830367       -0.12313824570285
H           41.30765724206607       -2.53867532196966        0.69743045657226
H           43.20982819983112       -4.44632452161345        0.73372702589936
H           47.18759932764336       -4.99434685992328        1.66214910590054
H           47.20826659676946       -7.47724844820452        1.71357295843541
H           44.38949274795840       -7.57044895069781       -1.51164014330967
H           44.37389286520202       -5.08761827426554       -1.57293836821327
H           48.32395528726952       -4.43363732881665       -0.71430445185325
H           50.21561663581844       -2.51628933219332       -0.69800870535750
H           50.18100512966293        2.55867450204107        0.81843852717094
H           48.28399520278543        4.47016639698461        0.75604886634540
H           47.22205347186000        4.98184785314850       -1.67756383423523
H           47.24521331062904        7.46288815801048       -1.78047002442652
H           44.33509374631071        7.62304542823560        1.35983489049827
H           44.31772701836388        5.14243885784163        1.47392873096951
H           43.19952797118478        4.44888340299269       -0.80490715018978
H           41.30161326813815        2.53841040368962       -0.73739820922833

          :  Hamiltonian                  GFN1-xTB          :
         :: total energy            -360.436279298016 Eh    ::
         :: gradient norm              0.000845584083 Eh/a0 ::
         :: HOMO-LUMO gap              0.053872824778 eV    ::
         :: SCC energy              -365.323490637727 Eh    ::
         :: repulsion energy           5.060568422190 Eh    ::

    * Orbital Energies and Occupations

         #    Occupation            Energy/Eh            Energy/eV
      -------------------------------------------------------------
         1        2.0000           -0.9278782             -25.2488
       ...           ...                  ...                  ...
       306        2.0000           -0.4248931             -11.5619
       307        2.0000           -0.4246044             -11.5541
       308        1.9999           -0.4213847             -11.4665
       309        1.9937           -0.4172260             -11.3533
       310        1.9932           -0.4171543             -11.3513
       311        1.9922           -0.4170191             -11.3477
       312        1.9650           -0.4155843             -11.3086
       313        1.9581           -0.4154114             -11.3039
       314        1.9503           -0.4152451             -11.2994
       315        1.9495           -0.4152288             -11.2990
       316        1.9424           -0.4151003             -11.2955
       317        1.9421           -0.4150949             -11.2953
       318        1.2741           -0.4122924             -11.2190 (HOMO)
       319        0.3585           -0.4103126             -11.1652 (LUMO)
       320        0.3429           -0.4102611             -11.1638
       321        0.3382           -0.4102454             -11.1633
       322                         -0.3724520             -10.1349
       323                         -0.3650435              -9.9333
       324                         -0.3624193              -9.8619
       325                         -0.3614575              -9.8358
       326                         -0.3604777              -9.8091
       327                         -0.3541991              -9.6382
       328                         -0.3533156              -9.6142
       329                         -0.3528678              -9.6020
       ...                                ...                  ...
       647                          1.3065832              35.5539
      -------------------------------------------------------------
                  HL-Gap            0.0019798 Eh            0.0539 eV

Wiberg/Mayer (AO) data.
largest (>0.10) Wiberg bond orders for each atom

     #   Z sym  total        # sym  WBO       # sym  WBO       # sym  WBO
 ---------------------------------------------------------------------------
     1  26 Fe   3.090 --     7 N    0.665    43 N    0.664    28 N    0.655
                            21 N    0.655
     2   6 C    3.917 --    42 C    1.364     3 C    1.363    44 H    0.970
     3   6 C    3.921 --     2 C    1.363     7 N    1.209     4 C    1.171
     4   6 C    3.959 --     5 C    1.651     3 C    1.171    45 H    0.974
     5   6 C    3.961 --     4 C    1.651     6 C    1.173    46 H    0.973
     6   6 C    3.920 --     8 C    1.312     7 N    1.226     5 C    1.173
     7   7 N    3.379 --     6 C    1.226     3 C    1.209     1 Fe   0.665
     8   6 C    3.918 --    18 C    1.331     6 C    1.312     9 C    1.031
     9   6 C    3.985 --    10 C    1.385    17 C    1.384     8 C    1.031
    10   6 C    3.987 --    11 C    1.462     9 C    1.385    47 H    0.971
                            16 C    0.102
    11   6 C    3.987 --    10 C    1.462    12 C    1.389    48 H    0.964
                            17 C    0.102
    12   6 C    3.942 --    11 C    1.389    16 C    1.388    13 N    0.919
    13   7 N    3.867 --    15 O    1.456    14 O    1.455    12 C    0.919
    14   8 O    1.831 --    13 N    1.455    15 O    0.253
    15   8 O    1.831 --    13 N    1.456    14 O    0.253
    16   6 C    3.987 --    17 C    1.463    12 C    1.388    49 H    0.964
                            10 C    0.102
    17   6 C    3.986 --    16 C    1.463     9 C    1.384    50 H    0.971
                            11 C    0.102
    18   6 C    3.918 --     8 C    1.331    21 N    1.203    19 C    1.178
    19   6 C    3.956 --    20 C    1.639    18 C    1.178    51 H    0.973
    20   6 C    3.960 --    19 C    1.639    22 C    1.186    52 H    0.971
    21   7 N    3.376 --    22 C    1.245    18 C    1.203     1 Fe   0.655
    22   6 C    3.907 --    23 C    1.255    21 N    1.245    20 C    1.186
    23   6 C    3.918 --    22 C    1.255    24 C    1.254   121 C    1.191
    24   6 C    3.907 --    23 C    1.254    28 N    1.246    25 C    1.187
    25   6 C    3.960 --    26 C    1.639    24 C    1.187    53 H    0.971
    26   6 C    3.956 --    25 C    1.639    27 C    1.178    54 H    0.973
    27   6 C    3.918 --    29 C    1.332    28 N    1.202    26 C    1.178
    28   7 N    3.376 --    24 C    1.246    27 C    1.202     1 Fe   0.655
    29   6 C    3.918 --    27 C    1.332    39 C    1.310    30 C    1.032
    30   6 C    3.985 --    38 C    1.385    31 C    1.384    29 C    1.032
    31   6 C    3.986 --    32 C    1.463    30 C    1.384    55 H    0.971
                            37 C    0.102
    32   6 C    3.987 --    31 C    1.463    33 C    1.388    56 H    0.964
                            38 C    0.102
    33   6 C    3.942 --    37 C    1.389    32 C    1.388    34 N    0.919
    34   7 N    3.866 --    36 O    1.456    35 O    1.455    33 C    0.919
    35   8 O    1.831 --    34 N    1.455    36 O    0.252
    36   8 O    1.831 --    34 N    1.456    35 O    0.252
    37   6 C    3.987 --    38 C    1.462    33 C    1.389    57 H    0.964
                            31 C    0.102
    38   6 C    3.986 --    37 C    1.462    30 C    1.385    58 H    0.971
                            32 C    0.102
    39   6 C    3.920 --    29 C    1.310    43 N    1.228    40 C    1.173
    40   6 C    3.961 --    41 C    1.652    39 C    1.173    59 H    0.973
    41   6 C    3.959 --    40 C    1.652    42 C    1.171    60 H    0.974
    42   6 C    3.921 --     2 C    1.364    43 N    1.207    41 C    1.171
    43   7 N    3.379 --    39 C    1.228    42 C    1.207     1 Fe   0.664
    44   1 H    1.000 --     2 C    0.970
    45   1 H    0.996 --     4 C    0.974
    46   1 H    1.003 --     5 C    0.973
    47   1 H    1.003 --    10 C    0.971
    48   1 H    1.006 --    11 C    0.964
    49   1 H    1.006 --    16 C    0.964
    50   1 H    1.003 --    17 C    0.971
    51   1 H    1.003 --    19 C    0.973
    52   1 H    1.004 --    20 C    0.971
    53   1 H    1.003 --    25 C    0.971
    54   1 H    1.003 --    26 C    0.973
    55   1 H    1.003 --    31 C    0.971
    56   1 H    1.006 --    32 C    0.964
    57   1 H    1.006 --    37 C    0.964
    58   1 H    1.003 --    38 C    0.971
    59   1 H    1.003 --    40 C    0.973
    60   1 H    0.996 --    41 C    0.974
    61  26 Fe   3.116 --    67 N    0.667   103 N    0.666    88 N    0.658
                            81 N    0.657
    62   6 C    3.916 --   102 C    1.364    63 C    1.362   104 H    0.970
    63   6 C    3.921 --    62 C    1.362    67 N    1.207    64 C    1.172
    64   6 C    3.959 --    65 C    1.651    63 C    1.172   105 H    0.974
    65   6 C    3.961 --    64 C    1.651    66 C    1.173   106 H    0.973
    66   6 C    3.921 --    68 C    1.310    67 N    1.225    65 C    1.173
    67   7 N    3.377 --    66 C    1.225    63 C    1.207    61 Fe   0.667
    68   6 C    3.917 --    78 C    1.328    66 C    1.310    69 C    1.036
    69   6 C    3.985 --    77 C    1.383    70 C    1.383    68 C    1.036
    70   6 C    3.986 --    71 C    1.463    69 C    1.383   107 H    0.971
                            76 C    0.102
    71   6 C    3.987 --    70 C    1.463    72 C    1.388   108 H    0.964
                            77 C    0.102
    72   6 C    3.942 --    76 C    1.388    71 C    1.388    73 N    0.919
    73   7 N    3.866 --    74 O    1.456    75 O    1.455    72 C    0.919
    74   8 O    1.831 --    73 N    1.456    75 O    0.252
    75   8 O    1.831 --    73 N    1.455    74 O    0.252
    76   6 C    3.987 --    77 C    1.463    72 C    1.388   109 H    0.964
                            70 C    0.102
    77   6 C    3.986 --    76 C    1.463    69 C    1.383   110 H    0.971
                            71 C    0.102
    78   6 C    3.918 --    68 C    1.328    81 N    1.202    79 C    1.179
    79   6 C    3.955 --    80 C    1.636    78 C    1.179   111 H    0.973
    80   6 C    3.960 --    79 C    1.636    82 C    1.189   112 H    0.969
    81   7 N    3.375 --    82 C    1.243    78 C    1.202    61 Fe   0.657
    82   6 C    3.905 --    83 C    1.251    81 N    1.243    80 C    1.189
    83   6 C    3.917 --    82 C    1.251    84 C    1.250   124 C    1.200
    84   6 C    3.905 --    83 C    1.250    88 N    1.245    85 C    1.189
    85   6 C    3.960 --    86 C    1.636    84 C    1.189   113 H    0.969
    86   6 C    3.955 --    85 C    1.636    87 C    1.179   114 H    0.973
    87   6 C    3.918 --    89 C    1.330    88 N    1.201    86 C    1.179
    88   7 N    3.375 --    84 C    1.245    87 C    1.201    61 Fe   0.658
    89   6 C    3.917 --    87 C    1.330    99 C    1.309    90 C    1.036
    90   6 C    3.985 --    98 C    1.383    91 C    1.383    89 C    1.036
    91   6 C    3.985 --    92 C    1.463    90 C    1.383   115 H    0.971
                            97 C    0.102
    92   6 C    3.987 --    91 C    1.463    93 C    1.388   116 H    0.964
                            98 C    0.102
    93   6 C    3.941 --    97 C    1.388    92 C    1.388    94 N    0.919
    94   7 N    3.866 --    95 O    1.456    96 O    1.455    93 C    0.919
    95   8 O    1.831 --    94 N    1.456    96 O    0.252
    96   8 O    1.831 --    94 N    1.455    95 O    0.252
    97   6 C    3.987 --    98 C    1.463    93 C    1.388   117 H    0.964
                            91 C    0.102
    98   6 C    3.986 --    97 C    1.463    90 C    1.383   118 H    0.971
                            92 C    0.102
    99   6 C    3.920 --    89 C    1.309   103 N    1.227   100 C    1.173
   100   6 C    3.961 --   101 C    1.651    99 C    1.173   119 H    0.973
   101   6 C    3.959 --   100 C    1.651   102 C    1.172   120 H    0.974
   102   6 C    3.921 --    62 C    1.364   103 N    1.206   101 C    1.172
   103   7 N    3.377 --    99 C    1.227   102 C    1.206    61 Fe   0.666
   104   1 H    0.999 --    62 C    0.970
   105   1 H    0.996 --    64 C    0.974
   106   1 H    1.003 --    65 C    0.973
   107   1 H    1.003 --    70 C    0.971
   108   1 H    1.006 --    71 C    0.964
   109   1 H    1.006 --    76 C    0.964
   110   1 H    1.003 --    77 C    0.971
   111   1 H    1.003 --    79 C    0.973
   112   1 H    1.005 --    80 C    0.969
   113   1 H    1.004 --    85 C    0.969
   114   1 H    1.003 --    86 C    0.973
   115   1 H    1.003 --    91 C    0.971
   116   1 H    1.006 --    92 C    0.964
   117   1 H    1.006 --    97 C    0.964
   118   1 H    1.003 --    98 C    0.971
   119   1 H    1.003 --   100 C    0.973
   120   1 H    0.996 --   101 C    0.974
   121   6 C    3.915 --   122 C    2.547    23 C    1.191
   122   6 C    3.922 --   121 C    2.547   126 C    1.196
   123   6 C    3.922 --   124 C    2.541   147 C    1.204
   124   6 C    3.916 --   123 C    2.541    83 C    1.200
   125  26 Fe   3.079 --   145 N    0.651   167 N    0.650   152 N    0.649
                           131 N    0.648
   126   6 C    3.904 --   127 C    1.251   166 C    1.250   122 C    1.196
   127   6 C    3.908 --   126 C    1.251   131 N    1.245   128 C    1.190
   128   6 C    3.960 --   129 C    1.634   127 C    1.190   168 H    0.971
   129   6 C    3.958 --   128 C    1.634   130 C    1.182   169 H    0.973
   130   6 C    3.916 --   132 C    1.319   131 N    1.206   129 C    1.182
   131   7 N    3.365 --   127 C    1.245   130 C    1.206   125 Fe   0.648
   132   6 C    3.910 --   130 C    1.319   142 C    1.319   133 C    1.036
   133   6 C    3.985 --   141 C    1.384   134 C    1.383   132 C    1.036
   134   6 C    3.986 --   135 C    1.463   133 C    1.383   170 H    0.971
                           140 C    0.102
   135   6 C    3.987 --   134 C    1.463   136 C    1.389   171 H    0.964
                           141 C    0.102
   136   6 C    3.942 --   140 C    1.389   135 C    1.389   137 N    0.918
   137   7 N    3.867 --   138 O    1.457   139 O    1.456   136 C    0.918
   138   8 O    1.833 --   137 N    1.457   139 O    0.253
   139   8 O    1.832 --   137 N    1.456   138 O    0.253
   140   6 C    3.987 --   141 C    1.462   136 C    1.389   172 H    0.964
                           134 C    0.102
   141   6 C    3.986 --   140 C    1.462   133 C    1.384   173 H    0.971
                           135 C    0.102
   142   6 C    3.916 --   132 C    1.319   145 N    1.205   143 C    1.183
   143   6 C    3.957 --   144 C    1.632   142 C    1.183   174 H    0.973
   144   6 C    3.960 --   143 C    1.632   146 C    1.191   175 H    0.969
   145   7 N    3.367 --   146 C    1.246   142 C    1.205   125 Fe   0.651
   146   6 C    3.907 --   147 C    1.247   145 N    1.246   144 C    1.191
   147   6 C    3.905 --   146 C    1.247   148 C    1.247   123 C    1.204
   148   6 C    3.907 --   147 C    1.247   152 N    1.245   149 C    1.192
   149   6 C    3.960 --   150 C    1.631   148 C    1.192   176 H    0.969
   150   6 C    3.957 --   149 C    1.631   151 C    1.183   177 H    0.973
   151   6 C    3.916 --   153 C    1.317   152 N    1.206   150 C    1.183
   152   7 N    3.365 --   148 C    1.245   151 C    1.206   125 Fe   0.649
   153   6 C    3.911 --   163 C    1.320   151 C    1.317   154 C    1.036
   154   6 C    3.985 --   162 C    1.384   155 C    1.382   153 C    1.036
   155   6 C    3.985 --   156 C    1.463   154 C    1.382   178 H    0.971
                           161 C    0.102
   156   6 C    3.987 --   155 C    1.463   157 C    1.389   179 H    0.964
                           162 C    0.102
   157   6 C    3.942 --   161 C    1.389   156 C    1.389   158 N    0.918
   158   7 N    3.867 --   160 O    1.457   159 O    1.456   157 C    0.918
   159   8 O    1.832 --   158 N    1.456   160 O    0.253
   160   8 O    1.833 --   158 N    1.457   159 O    0.253
   161   6 C    3.987 --   162 C    1.462   157 C    1.389   180 H    0.964
                           155 C    0.102
   162   6 C    3.986 --   161 C    1.462   154 C    1.384   181 H    0.971
                           156 C    0.102
   163   6 C    3.916 --   153 C    1.320   167 N    1.205   164 C    1.182
   164   6 C    3.958 --   165 C    1.634   163 C    1.182   182 H    0.973
   165   6 C    3.960 --   164 C    1.634   166 C    1.190   183 H    0.971
   166   6 C    3.908 --   126 C    1.250   167 N    1.246   165 C    1.190
   167   7 N    3.366 --   166 C    1.246   163 C    1.205   125 Fe   0.650
   168   1 H    1.003 --   128 C    0.971
   169   1 H    1.003 --   129 C    0.973
   170   1 H    1.003 --   134 C    0.971
   171   1 H    1.006 --   135 C    0.964
   172   1 H    1.006 --   140 C    0.964
   173   1 H    1.003 --   141 C    0.971
   174   1 H    1.002 --   143 C    0.973
   175   1 H    1.005 --   144 C    0.969
   176   1 H    1.005 --   149 C    0.969
   177   1 H    1.002 --   150 C    0.973
   178   1 H    1.003 --   155 C    0.971
   179   1 H    1.006 --   156 C    0.964
   180   1 H    1.006 --   161 C    0.964
   181   1 H    1.003 --   162 C    0.971
   182   1 H    1.003 --   164 C    0.973
   183   1 H    1.003 --   165 C    0.971
 ---------------------------------------------------------------------------

           -------------------------------------------------
          | TOTAL ENERGY             -360.436279298016 Eh   |
          | GRADIENT NORM               0.000845584083 Eh/α |
          | HOMO-LUMO GAP               0.053872824778 eV   |
           -------------------------------------------------

 * finished run on 2022/07/29 at 20:16:04.875
