   * xtb version 6.5.1 (b24c23e) compiled by 'conda@728c89f4b128' on 2022-07-12
          program call               : xtb Zn_PhNO2_C4_3.xyz --gfn 1 --opt -T 48

   ID    Z sym.   atoms
    1   30 Zn     1, 61, 129
    2    6 C      2-6, 8-12, 16-20, 22-27, 29-33, 37-42, 62-66, 68-72, 76-80,
                  82-87, 89-93, 97-102, 121-128, 130-134, 136-140, 144-148,
                  150-155, 157-161, 165-170
    3    7 N      7, 13, 21, 28, 34, 43, 67, 73, 81, 88, 94, 103, 135, 141,
                  149, 156, 162, 171
    4    8 O      14, 15, 35, 36, 74, 75, 95, 96, 142, 143, 163, 164
    5    1 H      44-60, 104-120, 172-187
########################################################################
[WARNING] Please study the warnings concerning your input carefully
-1- prog_main_parseArguments: Unknown option '-T' provided
########################################################################

          :  Hamiltonian                  GFN1-xTB          :
 * total energy  :  -360.7149173 Eh     change       -0.3063008E-08 Eh
 * total energy  :  -361.5726211 Eh     change       -0.8577038E+00 Eh
 * total energy  :  -361.8424642 Eh     change       -0.2698431E+00 Eh
 * total energy  :  -361.9740502 Eh     change       -0.1315860E+00 Eh
 * total energy  :  -362.0424760 Eh     change       -0.6842586E-01 Eh
 * total energy  :  -362.0792984 Eh     change       -0.3682242E-01 Eh
 * total energy  :  -362.0979069 Eh     change       -0.1860849E-01 Eh
 * total energy  :  -362.1084465 Eh     change       -0.1053958E-01 Eh
 * total energy  :  -362.1152574 Eh     change       -0.6810857E-02 Eh
 * total energy  :  -362.1217443 Eh     change       -0.6486965E-02 Eh
 * total energy  :  -362.1480796 Eh     change       -0.7722915E-05 Eh
 * total energy  :  -362.1480750 Eh     change        0.4566909E-05 Eh
 * total energy  :  -362.1480834 Eh     change       -0.8441518E-05 Eh
 * total energy  :  -362.1480616 Eh     change        0.2181258E-04 Eh
 * total energy  :  -362.1480849 Eh     change       -0.2323168E-04 Eh
 * total energy  :  -362.1480858 Eh     change       -0.9397479E-06 Eh
 * total energy  :  -362.1480779 Eh     change        0.7929512E-05 Eh
 * total energy  :  -362.1480910 Eh     change       -0.1317688E-04 Eh
 * total energy  :  -362.1480926 Eh     change       -0.1515900E-05 Eh
   *** GEOMETRY OPTIMIZATION CONVERGED AFTER 51 ITERATIONS ***

 final structure:
================
187
 xtb: 6.5.1 (b24c23e)
Zn          32.27649095324355       -0.00604067702523       -0.05209427223182
C           28.86886568970981       -0.03491185221013       -0.13723149086082
C           29.50216692809942       -1.25749419398064       -0.32327833418798
C           28.83129198349789       -2.51291373755764       -0.51572575426799
C           29.79248050421277       -3.45894732300803       -0.65663247525325
C           31.06380204866937       -2.78980097801490       -0.56360359159298
N           30.85245619934470       -1.45964987642575       -0.35196407276057
C           32.31809998523421       -3.40831356690505       -0.64400594340205
C           32.33599387854774       -4.86798178474024       -0.90015682962608
C           32.90245621472011       -5.74324980787020        0.03190424846380
C           32.91994776154443       -7.10598183189826       -0.20232751885044
C           32.37087796719998       -7.59922065602169       -1.38275790311382
N           32.38959462347064       -9.02839988259973       -1.63571709604912
O           31.89895889030435       -9.41952160192307       -2.66403522341377
O           32.89433671483172       -9.73616182898413       -0.80191308265064
C           31.80422144157162       -6.74522452177239       -2.32492188998452
C           31.78685389450867       -5.38479224169001       -2.07792376751139
C           33.55628869627696       -2.76931384458932       -0.50853806134226
C           34.83851849039262       -3.40237659648208       -0.65251172575541
C           35.78062307937507       -2.44196789045572       -0.47345127040115
N           33.74378371100649       -1.43685915838915       -0.25829398072669
C           35.08494187156906       -1.21293299141066       -0.22724825335884
C           35.71119803948189        0.02769279317663        0.00667217631064
C           35.05361762619431        1.25384079949301        0.22964934051735
C           35.71622630938699        2.49299181548090        0.51303196397023
C           34.74974843249792        3.43263256612316        0.67185543976604
C           33.48590374908416        2.77747546391638        0.47363459369033
N           33.70798553943028        1.45153003621911        0.21703527782137
C           32.23123684293071        3.39244067194895        0.56128295260352
C           32.20782426751115        4.84860606522720        0.83562891155867
C           31.58606988502019        5.33777305702146        1.98904956100607
C           31.55972840826387        6.69471658203089        2.25338291600037
C           32.15619230710416        7.57342216665358        1.35323937155030
N           32.12813324897900        8.99919086146075        1.62369151065701
O           31.57555197006570        9.36557322648867        2.62947979767045
O           32.65882034437167        9.72915572923430        0.82589456790717
C           32.77822994739876        7.10796732479379        0.19800277620095
C           32.80337105628807        5.74845245535386       -0.05388871233694
C           30.99332520902107        2.75304912678165        0.41401057757894
C           29.70789966210244        3.40083040630481        0.44382045946061
C           28.77121321980696        2.44049460022849        0.24618701224558
C           29.47178042774585        1.19718483180467        0.08357770733241
N           30.81527747102195        1.42114849051967        0.18386868663735
H           27.78375926716718       -0.04355289156746       -0.16594886877089
H           27.76067636840704       -2.64293941707192       -0.53035067232055
H           29.65709811097928       -4.51915447231344       -0.79847593996448
H           33.31571161963527       -5.34816163432245        0.95264687258209
H           33.35074139508654       -7.79199101260095        0.51705529020925
H           31.38768070705214       -7.15357973981448       -3.23784955221928
H           31.36027401736261       -4.70855292008168       -2.80960620858990
H           34.99703101989417       -4.44488354955792       -0.87660561411231
H           36.85306578286215       -2.54789971601458       -0.51052310898874
H           36.78451869826936        2.61842224706111        0.58932448451580
H           34.88009675731602        4.47476107451457        0.91506712599126
H           31.13617092250688        4.64266743627351        2.68838400502165
H           31.08579040804142        7.08157201348710        3.14748524245095
H           33.23098863018705        7.81278525069073       -0.48898168157073
H           33.27262822010794        5.37529987625728       -0.95675416423283
H           29.54751336620530        4.45780276913549        0.58367929700549
H           27.69936811064686        2.55330028283066        0.20429733004397
Zn          59.23564757122595        0.05325050857918       -0.01724943152456
C           62.64203865269212        0.11103947124109       -0.12273817164332
C           62.01198736744717        1.31500445529263        0.16695434257516
C           62.68617194538377        2.55116420007363        0.45075541218788
C           61.72757137046077        3.48260116093465        0.67929885540818
C           60.45438689089513        2.82840322219727        0.52526060610453
N           60.66228623432181        1.51458030043262        0.22602977952499
C           59.20161307533652        3.43440518184769        0.68566103578407
C           59.18659988713526        4.88429466334007        0.99193956654402
C           58.62121637184019        5.34853599399036        2.18390607201085
C           58.60696985786159        6.69981676861263        2.47692187425050
C           59.15850609350069        7.59777144575510        1.56715053009446
N           59.14402507742476        9.01758850672774        1.86831457656478
O           59.64033999680256        9.76388053371885        1.06348113071758
O           58.63737851456942        9.36294101286984        2.90520190791597
C           59.72377404103125        7.15719969712429        0.37363570364314
C           59.73754161535563        5.80320174152463        0.09312041312638
C           57.96205447343484        2.79209185112176        0.58052063434227
C           56.68109534817503        3.43579557573660        0.68267719616318
C           55.73689558012801        2.47719354079448        0.50464438394748
N           57.77171497242598        1.46047266179318        0.32844671890737
C           56.42998474011723        1.24188692756151        0.28421947610314
C           55.80147219510037       -0.00052278674338        0.06649585241241
C           56.45695288407173       -1.22472801380321       -0.17308749088706
C           55.79297459673817       -2.48254459715501       -0.35157572028067
C           56.75708256150322       -3.41303169818600       -0.56828434349494
C           58.02057054150650       -2.72873628244820       -0.53539812095530
N           57.80114835220768       -1.40201761246291       -0.28092772472482
C           59.27288616608477       -3.33057526768022       -0.70739946097821
C           59.29067852587616       -4.78242092377089       -1.00413836543229
C           59.92706394058628       -5.67367857841391       -0.13429820784328
C           59.94722120560627       -7.02934709527444       -0.40607440189023
C           59.32993374987907       -7.49944245220002       -1.56197127834320
N           59.35187666905175       -8.92090655606266       -1.85472853521473
O           59.91782298795953       -9.64282107758495       -1.07394731292882
O           58.80321205990516       -9.29198173233473       -2.86089145989842
C           58.69276725234747       -6.62933161696368       -2.44237379783461
C           58.67379462542251       -5.27622271827395       -2.15803715614950
C           60.51178746233604       -2.68157844620931       -0.62604217086693
C           61.79435358086972       -3.29281549252737       -0.85879798174188
C           62.73298521136135       -2.32799782428104       -0.69506851136724
C           62.03624842267730       -1.11432427662214       -0.37153581110180
N           60.69312003900307       -1.36001435061003       -0.34429343800408
H           63.72684539411232        0.12957182784067       -0.15753468334052
H           63.75713584558803        2.67627631696460        0.47767090713886
H           61.86616484705144        4.51918735775519        0.94151252466313
H           58.20638306684891        4.63848476588748        2.88987681735354
H           58.17713182785986        7.06758918443954        3.40086966529900
H           60.14209063692539        7.87663713111641       -0.31999494706992
H           60.16273846551848        5.44923375086291       -0.83883040064407
H           56.52475909125694        4.48865673940375        0.85360382412985
H           54.66460441565982        2.59055711447622        0.51412169199841
H           54.72557324149360       -2.62899873310233       -0.30686892263741
H           56.62578591887019       -4.47175873171829       -0.72335490091373
H           60.39325991582958       -5.29710201918146        0.76874127076363
H           60.43229557823042       -7.72752953275676        0.26544863108403
H           58.22367458320531       -7.01965996276501       -3.33752398685447
H           58.19247123596223       -4.58736720533688       -2.84246934059028
H           61.95152448949797       -4.32532032037658       -1.12658119403242
H           63.80368610997514       -2.41656520587556       -0.79043224809755
C           38.33940822668429        0.04380749157896        0.01474574448289
C           37.11726728446473        0.04094396914935        0.01641325899754
C           39.68904409332365        0.04357914110322        0.01070197509516
C           40.91124549570380        0.03747422801341        0.00360215719740
C           51.82390326443549       -0.02558628203991        0.08913274346450
C           50.60166574895774       -0.02231631772406        0.08107030792944
C           53.17348693671135       -0.02358010169251        0.09033230343034
C           54.39563137564090       -0.01760460114271        0.08507551199036
Zn          45.75663241833141        0.00630521661485        0.02003489631941
C           42.31684702150629        0.02851894571403        0.00172721305176
C           42.95229803994818       -1.22805841734212        0.06071433862180
C           42.26599395023894       -2.48313112274466        0.14624189057730
C           43.21516643208074       -3.45328579653818        0.17399054268880
C           44.49120921300935       -2.79802303374492        0.09728372257976
N           44.29485699274768       -1.44484763172231        0.03961773041849
C           45.73440422651404       -3.44136655207833        0.11299473780818
C           45.72381630093353       -4.92345406414988        0.14582530633561
C           46.29428152169266       -5.61166430683199        1.22113411739360
C           46.28468021735713       -6.99406774158112        1.25642685254595
C           45.70400437426581       -7.69619447572689        0.20394832427331
N           45.69363025447726       -9.14771866225245        0.23449854970861
O           45.17220124591874       -9.72125364800186       -0.68728906854222
O           46.20692508393663       -9.68923270210420        1.18005934219436
C           45.13280493634650       -7.03069026877499       -0.87712704511391
C           45.14292507441645       -5.64806013556637       -0.89966234266583
C           46.98605844368522       -2.81474773310443        0.10045280525952
C           48.25399122544113       -3.48914691224957        0.06636298475329
C           49.21550355034158       -2.53091079098183        0.05323793327782
N           47.19961855195612       -1.46293179492464        0.08980180628891
C           48.54493518307802       -1.26457354345201        0.06778691437978
C           49.19621884930003       -0.01476782731562        0.06531349015489
C           48.56021202727774        1.24274931720581        0.04057787408537
C           49.24531955102373        2.50121340715708        0.06069516624848
C           48.29642037358817        3.47047447313151        0.00512671801094
C           47.02193737843335        2.81070791844314       -0.05733760727075
N           47.21851780517583        1.45683768227703       -0.02211134538839
C           45.77932195371633        3.45296080715160       -0.11410926287515
C           45.79057032195146        4.93342500733752       -0.18841373865938
C           46.39905649860074        5.57965010463796       -1.26909921535357
C           46.40753614226926        6.96006060357612       -1.34971269517067
C           45.80671207054828        7.70291289219454       -0.33725383737654
N           45.81303175556744        9.15256959036444       -0.41662416938578
O           46.35473953911588        9.65666030845719       -1.36698687994238
O           45.27568363357215        9.76215705038442        0.47231155932422
C           45.19939341846221        7.07977134545256        0.74935892447840
C           45.19199913419963        5.69855147920866        0.81739110557927
C           44.52765767963086        2.82610680109485       -0.10980457520943
C           43.26092552325439        3.49551826545638       -0.21460054945128
C           42.29924181732044        2.53812285047833       -0.17709621170365
C           42.96875571417775        1.27631677859219       -0.06284889957926
N           44.31357781689105        1.47662101145716       -0.03102601250884
H           41.19477651632862       -2.59958416757409        0.18654806964366
H           43.06515303658993       -4.51783170464186        0.25377974740821
H           46.73216604073922       -5.05351022019539        2.04048188029187
H           46.71843624957183       -7.53560964983092        2.08846194724370
H           44.69102450962360       -7.60036378330209       -1.68583154616441
H           44.71235474176879       -5.11838399694886       -1.74149656115373
H           48.39095170797086       -4.55814266976638        0.04203203813465
H           50.28541007312752       -2.66271820295916        0.02797585347424
H           50.31546900440329        2.62091023953671        0.11678623254331
H           48.44539006896964        4.53805232403464        0.01974815543690
H           46.85214710989449        4.98983090486717       -2.05743756458164
H           46.87015736238378        7.46891260408549       -2.18682472769271
H           44.74320649206785        7.68071749898720        1.52681645962138
H           44.73331128475864        5.20203753225083        1.66454632333238
H           43.12478235912054        4.55992446144426       -0.31747549187808
H           41.23007449012670        2.66700528497156       -0.23153952820162

          :  Hamiltonian                  GFN1-xTB          :
         :: total energy            -362.148092553612 Eh    ::
         :: gradient norm              0.000218111161 Eh/a0 ::
         :: HOMO-LUMO gap              0.954167076640 eV    ::
         :: SCC energy              -367.236693496507 Eh    ::
         :: repulsion energy           5.258355480744 Eh    ::

    * Orbital Energies and Occupations

         #    Occupation            Energy/Eh            Energy/eV
      -------------------------------------------------------------
         1        2.0000           -0.9224290             -25.1006
       ...           ...                  ...                  ...
       305        2.0000           -0.4455343             -12.1236
       306        2.0000           -0.4451655             -12.1136
       307        2.0000           -0.4451552             -12.1133
       308        2.0000           -0.4447653             -12.1027
       309        2.0000           -0.4438670             -12.0782
       310        2.0000           -0.4434731             -12.0675
       311        2.0000           -0.4400450             -11.9742
       312        2.0000           -0.4195377             -11.4162
       313        2.0000           -0.4178536             -11.3704
       314        2.0000           -0.4178370             -11.3699
       315        2.0000           -0.4160417             -11.3211
       316        2.0000           -0.4079904             -11.1020
       317        2.0000           -0.3996516             -10.8751 (HOMO)
       318                         -0.3645866              -9.9209 (LUMO)
       319                         -0.3582469              -9.7484
       320                         -0.3572583              -9.7215
       321                         -0.3572114              -9.7202
       322                         -0.3547683              -9.6537
       323                         -0.3486913              -9.4884
       324                         -0.3485535              -9.4846
       325                         -0.3485115              -9.4835
       326                         -0.3456787              -9.4064
       327                         -0.3428622              -9.3298
       328                         -0.3418718              -9.3028
       ...                                ...                  ...
       648                          1.4960455              40.7095
      -------------------------------------------------------------
                  HL-Gap            0.0350650 Eh            0.9542 eV

Wiberg/Mayer (AO) data.
largest (>0.10) Wiberg bond orders for each atom

     #   Z sym  total        # sym  WBO       # sym  WBO       # sym  WBO
 ---------------------------------------------------------------------------
     1  30 Zn   1.989 --    43 N    0.459     7 N    0.458    21 N    0.454
                            28 N    0.454
     2   6 C    3.929 --    42 C    1.359     3 C    1.358    44 H    0.971
     3   6 C    3.919 --     2 C    1.358     7 N    1.232     4 C    1.169
     4   6 C    3.960 --     5 C    1.661     3 C    1.169    45 H    0.975
     5   6 C    3.963 --     4 C    1.661     6 C    1.170    46 H    0.973
     6   6 C    3.919 --     8 C    1.311     7 N    1.247     5 C    1.170
     7   7 N    3.293 --     6 C    1.247     3 C    1.232     1 Zn   0.458
     8   6 C    3.930 --    18 C    1.319     6 C    1.311     9 C    1.035
     9   6 C    3.984 --    10 C    1.382    17 C    1.382     8 C    1.035
    10   6 C    3.986 --    11 C    1.465     9 C    1.382    47 H    0.971
                            16 C    0.101
    11   6 C    3.987 --    10 C    1.465    12 C    1.386    48 H    0.965
                            17 C    0.101
    12   6 C    3.940 --    16 C    1.386    11 C    1.386    13 N    0.922
    13   7 N    3.865 --    15 O    1.453    14 O    1.453    12 C    0.922
    14   8 O    1.827 --    13 N    1.453    15 O    0.251
    15   8 O    1.828 --    13 N    1.453    14 O    0.251
    16   6 C    3.987 --    17 C    1.465    12 C    1.386    49 H    0.965
                            10 C    0.101
    17   6 C    3.986 --    16 C    1.465     9 C    1.382    50 H    0.971
                            11 C    0.101
    18   6 C    3.912 --     8 C    1.319    21 N    1.229    19 C    1.177
    19   6 C    3.959 --    20 C    1.648    18 C    1.177    51 H    0.973
    20   6 C    3.961 --    19 C    1.648    22 C    1.185    52 H    0.974
    21   7 N    3.295 --    22 C    1.262    18 C    1.229     1 Zn   0.454
    22   6 C    3.900 --    21 N    1.262    23 C    1.255    20 C    1.185
    23   6 C    3.939 --    24 C    1.256    22 C    1.255   122 C    1.189
    24   6 C    3.900 --    28 N    1.262    23 C    1.256    25 C    1.185
    25   6 C    3.961 --    26 C    1.647    24 C    1.185    53 H    0.974
    26   6 C    3.959 --    25 C    1.647    27 C    1.177    54 H    0.973
    27   6 C    3.912 --    29 C    1.319    28 N    1.229    26 C    1.177
    28   7 N    3.295 --    24 C    1.262    27 C    1.229     1 Zn   0.454
    29   6 C    3.930 --    27 C    1.319    39 C    1.310    30 C    1.035
    30   6 C    3.984 --    38 C    1.383    31 C    1.382    29 C    1.035
    31   6 C    3.986 --    32 C    1.465    30 C    1.382    55 H    0.971
                            37 C    0.101
    32   6 C    3.987 --    31 C    1.465    33 C    1.386    56 H    0.965
                            38 C    0.101
    33   6 C    3.940 --    37 C    1.386    32 C    1.386    34 N    0.922
    34   7 N    3.865 --    36 O    1.453    35 O    1.453    33 C    0.922
    35   8 O    1.827 --    34 N    1.453    36 O    0.251
    36   8 O    1.828 --    34 N    1.453    35 O    0.251
    37   6 C    3.987 --    38 C    1.465    33 C    1.386    57 H    0.965
                            31 C    0.101
    38   6 C    3.986 --    37 C    1.465    30 C    1.383    58 H    0.971
                            32 C    0.101
    39   6 C    3.918 --    29 C    1.310    43 N    1.248    40 C    1.170
    40   6 C    3.963 --    41 C    1.661    39 C    1.170    59 H    0.973
    41   6 C    3.960 --    40 C    1.661    42 C    1.169    60 H    0.975
    42   6 C    3.919 --     2 C    1.359    43 N    1.231    41 C    1.169
    43   7 N    3.293 --    39 C    1.248    42 C    1.231     1 Zn   0.459
    44   1 H    1.001 --     2 C    0.971
    45   1 H    0.997 --     4 C    0.975
    46   1 H    1.003 --     5 C    0.973
    47   1 H    1.004 --    10 C    0.971
    48   1 H    1.006 --    11 C    0.965
    49   1 H    1.006 --    16 C    0.965
    50   1 H    1.004 --    17 C    0.971
    51   1 H    1.003 --    19 C    0.973
    52   1 H    1.002 --    20 C    0.974
    53   1 H    1.002 --    25 C    0.974
    54   1 H    1.003 --    26 C    0.973
    55   1 H    1.004 --    31 C    0.971
    56   1 H    1.006 --    32 C    0.965
    57   1 H    1.006 --    37 C    0.965
    58   1 H    1.004 --    38 C    0.971
    59   1 H    1.003 --    40 C    0.973
    60   1 H    0.997 --    41 C    0.975
    61  30 Zn   1.989 --   103 N    0.459    67 N    0.458    81 N    0.454
                            88 N    0.454
    62   6 C    3.929 --   102 C    1.358    63 C    1.358   104 H    0.971
    63   6 C    3.919 --    62 C    1.358    67 N    1.232    64 C    1.169
    64   6 C    3.960 --    65 C    1.661    63 C    1.169   105 H    0.975
    65   6 C    3.963 --    64 C    1.661    66 C    1.170   106 H    0.973
    66   6 C    3.919 --    68 C    1.311    67 N    1.247    65 C    1.170
    67   7 N    3.293 --    66 C    1.247    63 C    1.232    61 Zn   0.458
    68   6 C    3.929 --    78 C    1.319    66 C    1.311    69 C    1.035
    69   6 C    3.984 --    77 C    1.382    70 C    1.382    68 C    1.035
    70   6 C    3.986 --    71 C    1.465    69 C    1.382   107 H    0.971
                            76 C    0.101
    71   6 C    3.987 --    70 C    1.465    72 C    1.386   108 H    0.965
                            77 C    0.101
    72   6 C    3.940 --    76 C    1.386    71 C    1.386    73 N    0.922
    73   7 N    3.865 --    74 O    1.453    75 O    1.453    72 C    0.922
    74   8 O    1.827 --    73 N    1.453    75 O    0.251
    75   8 O    1.827 --    73 N    1.453    74 O    0.251
    76   6 C    3.987 --    77 C    1.465    72 C    1.386   109 H    0.965
                            70 C    0.101
    77   6 C    3.986 --    76 C    1.465    69 C    1.382   110 H    0.971
                            71 C    0.101
    78   6 C    3.912 --    68 C    1.319    81 N    1.229    79 C    1.177
    79   6 C    3.959 --    80 C    1.647    78 C    1.177   111 H    0.973
    80   6 C    3.961 --    79 C    1.647    82 C    1.185   112 H    0.974
    81   7 N    3.295 --    82 C    1.261    78 C    1.229    61 Zn   0.454
    82   6 C    3.900 --    81 N    1.261    83 C    1.255    80 C    1.185
    83   6 C    3.939 --    84 C    1.255    82 C    1.255   128 C    1.189
    84   6 C    3.900 --    88 N    1.262    83 C    1.255    85 C    1.185
    85   6 C    3.961 --    86 C    1.647    84 C    1.185   113 H    0.974
    86   6 C    3.959 --    85 C    1.647    87 C    1.177   114 H    0.973
    87   6 C    3.912 --    89 C    1.319    88 N    1.229    86 C    1.177
    88   7 N    3.295 --    84 C    1.262    87 C    1.229    61 Zn   0.454
    89   6 C    3.929 --    87 C    1.319    99 C    1.311    90 C    1.035
    90   6 C    3.984 --    98 C    1.382    91 C    1.382    89 C    1.035
    91   6 C    3.986 --    92 C    1.465    90 C    1.382   115 H    0.971
                            97 C    0.101
    92   6 C    3.987 --    91 C    1.465    93 C    1.386   116 H    0.965
                            98 C    0.101
    93   6 C    3.940 --    92 C    1.386    97 C    1.386    94 N    0.922
    94   7 N    3.865 --    95 O    1.453    96 O    1.453    93 C    0.922
    95   8 O    1.827 --    94 N    1.453    96 O    0.251
    96   8 O    1.827 --    94 N    1.453    95 O    0.251
    97   6 C    3.987 --    98 C    1.465    93 C    1.386   117 H    0.965
                            91 C    0.101
    98   6 C    3.986 --    97 C    1.465    90 C    1.382   118 H    0.971
                            92 C    0.101
    99   6 C    3.919 --    89 C    1.311   103 N    1.248   100 C    1.170
   100   6 C    3.963 --   101 C    1.661    99 C    1.170   119 H    0.973
   101   6 C    3.960 --   100 C    1.661   102 C    1.169   120 H    0.975
   102   6 C    3.919 --    62 C    1.358   103 N    1.232   101 C    1.169
   103   7 N    3.293 --    99 C    1.248   102 C    1.232    61 Zn   0.459
   104   1 H    1.001 --    62 C    0.971
   105   1 H    0.997 --    64 C    0.975
   106   1 H    1.003 --    65 C    0.973
   107   1 H    1.004 --    70 C    0.971
   108   1 H    1.006 --    71 C    0.965
   109   1 H    1.006 --    76 C    0.965
   110   1 H    1.004 --    77 C    0.971
   111   1 H    1.003 --    79 C    0.973
   112   1 H    1.002 --    80 C    0.974
   113   1 H    1.002 --    85 C    0.974
   114   1 H    1.003 --    86 C    0.973
   115   1 H    1.004 --    91 C    0.971
   116   1 H    1.006 --    92 C    0.965
   117   1 H    1.006 --    97 C    0.965
   118   1 H    1.004 --    98 C    0.971
   119   1 H    1.003 --   100 C    0.973
   120   1 H    0.997 --   101 C    0.975
   121   6 C    3.935 --   122 C    2.475   123 C    1.308
   122   6 C    3.924 --   121 C    2.475    23 C    1.189   124 C    0.199
   123   6 C    3.932 --   124 C    2.474   121 C    1.308
   124   6 C    3.925 --   123 C    2.474   130 C    1.191   122 C    0.199
   125   6 C    3.932 --   126 C    2.474   127 C    1.309
   126   6 C    3.925 --   125 C    2.474   151 C    1.191   128 C    0.199
   127   6 C    3.935 --   128 C    2.475   125 C    1.309
   128   6 C    3.924 --   127 C    2.475    83 C    1.189   126 C    0.199
   129  30 Zn   1.987 --   135 N    0.455   156 N    0.455   149 N    0.455
                           171 N    0.455
   130   6 C    3.928 --   131 C    1.253   170 C    1.253   124 C    1.191
   131   6 C    3.901 --   135 N    1.262   130 C    1.253   132 C    1.187
   132   6 C    3.960 --   133 C    1.645   131 C    1.187   172 H    0.974
   133   6 C    3.960 --   132 C    1.645   134 C    1.180   173 H    0.973
   134   6 C    3.911 --   136 C    1.316   135 N    1.228   133 C    1.180
   135   7 N    3.291 --   131 C    1.262   134 C    1.228   129 Zn   0.455
   136   6 C    3.925 --   146 C    1.316   134 C    1.316   137 C    1.034
   137   6 C    3.984 --   138 C    1.383   145 C    1.383   136 C    1.034
   138   6 C    3.986 --   139 C    1.464   137 C    1.383   174 H    0.971
                           144 C    0.101
   139   6 C    3.987 --   138 C    1.464   140 C    1.386   175 H    0.965
                           145 C    0.101
   140   6 C    3.940 --   139 C    1.386   144 C    1.386   141 N    0.921
   141   7 N    3.865 --   142 O    1.454   143 O    1.453   140 C    0.921
   142   8 O    1.828 --   141 N    1.454   143 O    0.251
   143   8 O    1.828 --   141 N    1.453   142 O    0.251
   144   6 C    3.987 --   145 C    1.464   140 C    1.386   176 H    0.965
                           138 C    0.101
   145   6 C    3.986 --   144 C    1.464   137 C    1.383   177 H    0.971
                           139 C    0.101
   146   6 C    3.911 --   136 C    1.316   149 N    1.228   147 C    1.180
   147   6 C    3.960 --   148 C    1.645   146 C    1.180   178 H    0.973
   148   6 C    3.960 --   147 C    1.645   150 C    1.187   179 H    0.974
   149   7 N    3.290 --   150 C    1.262   146 C    1.228   129 Zn   0.455
   150   6 C    3.901 --   149 N    1.262   151 C    1.253   148 C    1.187
   151   6 C    3.928 --   150 C    1.253   152 C    1.253   126 C    1.191
   152   6 C    3.901 --   156 N    1.262   151 C    1.253   153 C    1.187
   153   6 C    3.960 --   154 C    1.644   152 C    1.187   180 H    0.974
   154   6 C    3.960 --   153 C    1.644   155 C    1.180   181 H    0.973
   155   6 C    3.911 --   157 C    1.316   156 N    1.228   154 C    1.180
   156   7 N    3.291 --   152 C    1.262   155 C    1.228   129 Zn   0.455
   157   6 C    3.926 --   167 C    1.316   155 C    1.316   158 C    1.034
   158   6 C    3.984 --   166 C    1.383   159 C    1.383   157 C    1.034
   159   6 C    3.986 --   160 C    1.464   158 C    1.383   182 H    0.971
                           165 C    0.101
   160   6 C    3.987 --   159 C    1.464   161 C    1.386   183 H    0.965
                           166 C    0.101
   161   6 C    3.940 --   165 C    1.386   160 C    1.386   162 N    0.922
   162   7 N    3.865 --   164 O    1.454   163 O    1.453   161 C    0.922
   163   8 O    1.828 --   162 N    1.453   164 O    0.251
   164   8 O    1.828 --   162 N    1.454   163 O    0.251
   165   6 C    3.987 --   166 C    1.464   161 C    1.386   184 H    0.965
                           159 C    0.101
   166   6 C    3.986 --   165 C    1.464   158 C    1.383   185 H    0.971
                           160 C    0.101
   167   6 C    3.911 --   157 C    1.316   171 N    1.228   168 C    1.180
   168   6 C    3.960 --   169 C    1.645   167 C    1.180   186 H    0.973
   169   6 C    3.960 --   168 C    1.645   170 C    1.187   187 H    0.974
   170   6 C    3.901 --   171 N    1.262   130 C    1.253   169 C    1.187
   171   7 N    3.290 --   170 C    1.262   167 C    1.228   129 Zn   0.455
   172   1 H    1.002 --   132 C    0.974
   173   1 H    1.003 --   133 C    0.973
   174   1 H    1.004 --   138 C    0.971
   175   1 H    1.006 --   139 C    0.965
   176   1 H    1.006 --   144 C    0.965
   177   1 H    1.004 --   145 C    0.971
   178   1 H    1.003 --   147 C    0.973
   179   1 H    1.002 --   148 C    0.974
   180   1 H    1.002 --   153 C    0.974
   181   1 H    1.003 --   154 C    0.973
   182   1 H    1.004 --   159 C    0.971
   183   1 H    1.006 --   160 C    0.965
   184   1 H    1.006 --   165 C    0.965
   185   1 H    1.004 --   166 C    0.971
   186   1 H    1.003 --   168 C    0.973
   187   1 H    1.002 --   169 C    0.974
 ---------------------------------------------------------------------------

           -------------------------------------------------
          | TOTAL ENERGY             -362.148092553612 Eh   |
          | GRADIENT NORM               0.000218111161 Eh/α |
          | HOMO-LUMO GAP               0.954167076640 eV   |
           -------------------------------------------------

 * finished run on 2022/07/30 at 10:07:26.364
