   * xtb version 6.5.1 (b24c23e) compiled by 'conda@728c89f4b128' on 2022-07-12
          program call               : xtb Cu_PhNH2_C2_3.xyz --gfn 1 --opt -T 48

   ID    Z sym.   atoms
    1   29 Cu     1, 61, 125
    2    6 C      2-6, 8-12, 14-18, 20-25, 27-31, 33-38, 62-66, 68-72, 74-78,
                  80-85, 87-91, 93-98, 121-124, 126-130, 132-136, 138-142,
                  144-149, 151-155, 157-162
    3    7 N      7, 13, 19, 26, 32, 39, 67, 73, 79, 86, 92, 99, 131, 137,
                  143, 150, 156, 163
    4    1 H      40-60, 100-120, 164-183
########################################################################
[WARNING] Please study the warnings concerning your input carefully
-1- prog_main_parseArguments: Unknown option '-T' provided
########################################################################

          :  Hamiltonian                  GFN1-xTB          :
 * total energy  :  -315.1992262 Eh     change        0.8193638E-08 Eh
 * total energy  :  -315.5976488 Eh     change       -0.3984226E+00 Eh
 * total energy  :  -315.7419000 Eh     change       -0.1442512E+00 Eh
 * total energy  :  -315.8025396 Eh     change       -0.6063958E-01 Eh
 * total energy  :  -315.8208816 Eh     change       -0.1834198E-01 Eh
 * total energy  :  -315.8311886 Eh     change       -0.1030697E-01 Eh
 * total energy  :  -315.8370022 Eh     change       -0.5813686E-02 Eh
 * total energy  :  -315.8413373 Eh     change       -0.4335071E-02 Eh
 * total energy  :  -315.8443627 Eh     change       -0.3025379E-02 Eh
 * total energy  :  -315.8467534 Eh     change       -0.2390710E-02 Eh
 * total energy  :  -315.8595473 Eh     change       -0.1370208E-04 Eh
 * total energy  :  -315.8595611 Eh     change       -0.1373755E-04 Eh
 * total energy  :  -315.8595771 Eh     change       -0.1606503E-04 Eh
 * total energy  :  -315.8595933 Eh     change       -0.1613728E-04 Eh
 * total energy  :  -315.8596052 Eh     change       -0.1193105E-04 Eh
 * total energy  :  -315.8596160 Eh     change       -0.1077052E-04 Eh
 * total energy  :  -315.8596221 Eh     change       -0.6168810E-05 Eh
 * total energy  :  -315.8596310 Eh     change       -0.8812191E-05 Eh
 * total energy  :  -315.8596355 Eh     change       -0.4538638E-05 Eh
   *** GEOMETRY OPTIMIZATION CONVERGED AFTER 46 ITERATIONS ***

 final structure:
================
183
 xtb: 6.5.1 (b24c23e)
Cu          34.20062230110177        0.03045478055143        0.02974681943740
C           30.79354805885289        0.06393343348800        0.09211359429900
C           31.41979632116164        1.17388508701862       -0.45529258676921
C           30.73884988862005        2.28280713066262       -1.05881849401719
C           31.69216102781984        3.16151795224074       -1.45815201453037
C           32.96357871677010        2.60513088261282       -1.08424264298755
N           32.76784968057274        1.39184352146094       -0.48962896650668
C           34.20334216309971        3.21765354274498       -1.28635945815500
C           34.21568307736576        4.57836883886717       -1.87215012821739
C           34.90072780037114        4.82865761354061       -3.06436677297588
C           34.91501516553146        6.09366979362251       -3.62382879510676
C           34.25362750323105        7.14812793854653       -2.98890280960517
N           34.23422179842284        8.40691196813239       -3.56412346387326
C           33.56350878296985        6.90630449897944       -1.79830117959421
C           33.54559850130062        5.63545434812152       -1.25127239383532
C           35.43734032383830        2.63865164904815       -0.97644620461844
C           36.69866092087858        3.31620430883790       -1.05676994006762
C           37.65277124985849        2.42332763227367       -0.68922264049482
N           35.64275578871091        1.35411238389339       -0.54641356641991
C           36.98631365813976        1.19532084003161       -0.38404309585134
C           37.63881426574193        0.00271645198328       -0.01880108908438
C           36.97878634322412       -1.18205977252460        0.35851214313733
C           37.63399095765453       -2.42305750165480        0.63459302403493
C           36.67573109405846       -3.30335266041084        1.02217726387601
C           35.42395524390588       -2.60442732485241        0.98513085185628
N           35.63805083053314       -1.32036083685945        0.55781003949962
C           34.18990689616071       -3.16216721021347        1.33226140766871
C           34.19356214214415       -4.52774978484975        1.90614993256451
C           34.91936973686931       -4.80653267541540        3.06748238649970
C           34.92308357996264       -6.07673835944150        3.61536143960699
C           34.20882158699690       -7.10782015934146        2.99968990746291
N           34.17948803684928       -8.37059139505172        3.56594448163892
C           33.47769292198018       -6.83752870569312        1.84007968482880
C           33.47156396749062       -5.56176355266570        1.30449897562890
C           32.95591913841497       -2.52360018115305        1.17935572649130
C           31.68865414836933       -3.05515616147641        1.60053159024665
C           30.73880896779843       -2.15561644983356        1.24115811720774
C           31.41837215931595       -1.05897275229423        0.61439471317545
N           32.76210749044152       -1.30421701602183        0.59652761580717
H           29.70856857480402        0.07461671271295        0.11301391855500
H           29.66859378135826        2.35946936807134       -1.17037085684741
H           31.55342747177479        4.09868751917247       -1.97289211847045
H           35.41005017029742        4.01370948766058       -3.56718223416893
H           35.44046130828421        6.27171533469702       -4.55578809414547
H           34.98956126270773        8.59436555851839       -4.20398291731119
H           34.04218601200026        9.16378587842176       -2.92760557339084
H           33.04595577489782        7.72047569776338       -1.30268766546378
H           33.02442296972094        5.46145382843755       -0.31618576682951
H           36.83261677509212        4.34938291750987       -1.33372476892467
H           38.71505407494610        2.58309022948084       -0.61432133565797
H           38.69113556808276       -2.59957692569243        0.52669006219049
H           36.80073458297494       -4.34105157036821        1.28623582578419
H           35.46898837286679       -4.00965891079906        3.55656204030541
H           35.48080452540778       -6.27716795116824        4.52370125993887
H           34.95629857965433       -8.58400930225847        4.17096347402146
H           33.94062546578380       -9.11632069984899        2.93190678401599
H           32.91879831518820       -7.63310625352776        1.35937536918162
H           32.91776473884776       -5.36579729678884        0.39276893503751
H           31.55011372643482       -3.99062910466575        2.11838041132678
H           29.67234745817908       -2.21088141818131        1.39408253867774
Cu          56.02720374025316       -0.03604751439009        0.06680932133218
C           59.43299052005602       -0.02274216070800        0.13911623367876
C           58.79958694270135       -1.08520266248439        0.76671948993915
C           59.47542313746114       -2.19481513149580        1.37497914937591
C           58.51720355753300       -3.01606454352803        1.87240727585759
C           57.24704457345745       -2.40654445384994        1.58651291091882
N           57.44973584638017       -1.23968078435067        0.90742290746122
C           56.00299714859482       -2.93437084223584        1.94367762803917
C           55.98850724636360       -4.18288122178461        2.74227796370010
C           55.35457302915348       -5.32936886152094        2.25662460937631
C           55.33996317439506       -6.49954619538270        2.99465305772517
C           55.94945464573907       -6.54327886832300        4.25109576049167
N           55.96882256161629       -7.72223414287655        4.97693462711055
C           56.58970811506286       -5.40276188759866        4.74236528554407
C           56.60821558294280       -4.23965414337851        3.99309119545092
C           54.77002381767054       -2.37129481309700        1.60339359822182
C           53.49679506359810       -2.85338211375339        2.05675270922095
C           52.54954156100578       -2.04252786227665        1.51980620500314
N           54.57809888339504       -1.27126363393037        0.80989605153339
C           53.23506474487103       -1.05918555157006        0.73755307283502
C           52.59774912449384       -0.04144145649443        0.00598941528808
C           53.25741664008278        0.97446722566503       -0.70818837687368
C           52.59721387101910        1.94939265656132       -1.52175555050510
C           53.56042344063631        2.75886179551424       -2.03186439021486
C           54.81805969662503        2.28595012534865       -1.52828826494707
N           54.60148333690147        1.19068554437137       -0.73434591858232
C           56.06047661756724        2.85362339456336       -1.82415905989754
C           56.07134693167941        4.09275111568699       -2.63703892032863
C           55.40430291776160        5.23903587439082       -2.19731266200944
C           55.41183515930008        6.39863608595375       -2.95200377798258
C           56.07842677006070        6.43190112758534       -4.17943631140598
N           56.11914234761437        7.60123090369799       -4.91996069431282
C           56.75259587919093        5.29194996407407       -4.62434432480380
C           56.74783084144636        4.13946925322736       -3.85862449976426
C           57.29217808677164        2.33772146287636       -1.41069959584663
C           58.56850379075655        2.95672773286723       -1.64371698242618
C           59.51080978002349        2.14641374049654       -1.09997883719672
C           58.81834527698273        1.03349365392876       -0.51715065043067
N           57.47469272121918        1.17596538969663       -0.71722238056653
H           60.51801523972732       -0.01806231445174        0.16263305335168
H           60.54618131827299       -2.32412828021396        1.39827695719162
H           58.65192550061519       -3.95971768859806        2.37625185029210
H           54.88612458572636       -5.30552788101669        1.27870149418783
H           54.85454960647353       -7.38617868875950        2.60141291592481
H           55.23734086440126       -8.37536622430251        4.74567812700353
H           56.11493046403183       -7.60896004785991        5.96737369269528
H           57.06803540828442       -5.43222715460137        5.71536368392100
H           57.09073113108551       -3.35322668011641        4.39026100196395
H           53.35019141006493       -3.69058002837913        2.71996729256217
H           51.48058439928803       -2.09150925835630        1.65050783185268
H           51.53366948044665        1.99304453036969       -1.69216101613189
H           53.43406583538797        3.58948056078216       -2.70736517567035
H           54.89180660862149        5.22407647294502       -1.24158560095350
H           54.89937491135795        7.28520900794362       -2.59460713703881
H           55.37013775941561        8.24870498321977       -4.73318610466831
H           56.31287941416566        7.47639349367661       -5.90082632213604
H           57.27526252847348        5.31290691097795       -5.57446228595933
H           57.25700432826039        3.25292161985329       -4.22073276569228
H           58.71741835027269        3.89929552462596       -2.14560077429650
H           60.58040779627246        2.28503390795585       -1.07662834629138
C           39.04893078000583       -0.00643837557494       -0.03232096274298
C           40.26736292830555       -0.01258726616793       -0.03736067624912
C           49.97139653304255       -0.03659349262384       -0.01786691657064
C           51.18843490761048       -0.03927136995813       -0.01061897282704
Cu          45.12304695973980       -0.02715837688348       -0.02646417239499
C           41.67732953502450       -0.02015984231740       -0.04490208966220
C           42.33659694603074        1.13508276463686       -0.50632179882992
C           41.67197127975114        2.31015012929048       -0.98014845926729
C           42.63079522153564        3.23336903112020       -1.24463771967663
C           43.89430559971269        2.62038245340869       -0.95331111297150
N           43.68234649587282        1.34142090752311       -0.50953253869672
C           45.13217122007059        3.25965877320040       -1.05101206184060
C           45.13469636402728        4.68565158469558       -1.46524864996658
C           44.69013966847915        5.06570707195971       -2.73298380807834
C           44.69130336223752        6.39599566730314       -3.11528554386005
C           45.13864506946381        7.37957137795455       -2.22989762470985
N           45.09444912901974        8.71649460936877       -2.59054067920633
C           45.57522556340091        7.00809262829101       -0.95611007598388
C           45.57825085194035        5.67486078320189       -0.58511556906665
C           46.36866836514330        2.66861118993333       -0.78225791990952
C           47.63755745957860        3.32664772736026       -0.90598676534381
C           48.59254897515949        2.40694128393034       -0.61393573673292
N           46.57141041490729        1.36231122563037       -0.42517273240638
C           47.91608986334303        1.17968405821811       -0.32192515518069
C           48.56249963904415       -0.03079127849573       -0.01527342561365
C           47.90810094387874       -1.23832251976462        0.28858937162740
C           48.57326832473144       -2.48637095423358        0.50614997440543
C           47.61291883854807       -3.40322373210536        0.79214932518781
C           46.35372242853225       -2.71734633114722        0.75768736219938
N           46.56438862600279       -1.40480868696855        0.42874609597414
C           45.11352677066400       -3.30247219674352        1.02794904799402
C           45.10819621474970       -4.71302084742695        1.48110398855023
C           44.40338562528435       -5.68810864237645        0.77036237620461
C           44.40259980674205       -7.00788950330110        1.18530217758116
C           45.10875803840965       -7.38314555756766        2.33108748343575
N           45.07110817226938       -8.69352041991810        2.77618424749505
C           45.80445546968268       -6.41223169735683        3.05597941459474
C           45.80790098803772       -5.09652968073097        2.62825715924857
C           43.87865234366102       -2.65951102938673        0.90566127804946
C           42.61853989924654       -3.22634381049145        1.28918321632376
C           41.66332099661975       -2.30881734623714        0.99046283995664
C           42.32969975394916       -1.17556474549066        0.42671261528963
N           43.67229436373799       -1.40171704301476        0.40303914086096
H           40.60591369987299        2.41244975217327       -1.09191527493260
H           42.49471545052184        4.24245339146849       -1.59820230209668
H           44.35626104927810        4.30642397990297       -3.43179189095566
H           44.34755787676046        6.67927546996062       -4.10426481978846
H           45.10089813811372        8.88781494353926       -3.58366782960283
H           45.71718720379882        9.31543628135451       -2.07171679011192
H           45.91254523604475        7.76830273559602       -0.25975242591616
H           45.91187153301313        5.39454412401975        0.40813128343010
H           47.77827616896065        4.35692991914231       -1.19035698582541
H           49.66192558673114        2.54150988694597       -0.59620914345955
H           49.63767320853490       -2.64026566427228        0.43150013334109
H           47.74331332657211       -4.45532956430123        0.98777334100156
H           43.86819982093321       -5.40879050368430       -0.13067381246443
H           43.85772713655265       -7.75664595390367        0.62061865206195
H           45.83484670975688       -8.96173786890992        3.37604000703992
H           44.84921034870305       -9.37677513080756        2.06989757910227
H           46.34226964031565       -6.69489211673241        3.95443961007966
H           46.34235582968739       -4.34729100847814        3.20210977792703
H           42.48498871567895       -4.19173986956072        1.74985341469493
H           40.60097577472181       -2.38187748689337        1.15282912755826

          :  Hamiltonian                  GFN1-xTB          :
         :: total energy            -315.859635497973 Eh    ::
         :: gradient norm              0.000798430434 Eh/a0 ::
         :: HOMO-LUMO gap              0.009691935276 eV    ::
         :: SCC energy              -320.697191354200 Eh    ::
         :: repulsion energy           5.006039234756 Eh    ::

    * Orbital Energies and Occupations

         #    Occupation            Energy/Eh            Energy/eV
      -------------------------------------------------------------
         1        2.0000           -0.7777012             -21.1623
       ...           ...                  ...                  ...
       281        2.0000           -0.3973950             -10.8137
       282        2.0000           -0.3963807             -10.7861
       283        2.0000           -0.3947673             -10.7422
       284        2.0000           -0.3946712             -10.7396
       285        2.0000           -0.3943441             -10.7306
       286        2.0000           -0.3862045             -10.5092
       287        2.0000           -0.3859356             -10.5018
       288        2.0000           -0.3855931             -10.4925
       289        2.0000           -0.3829368             -10.4202
       290        2.0000           -0.3758705             -10.2280
       291        2.0000           -0.3663625              -9.9692
       292        1.0929           -0.3462838              -9.4229
       293        1.0364           -0.3461623              -9.4196 (HOMO)
       294        0.8708           -0.3458061              -9.4099 (LUMO)
       295        0.0000           -0.3321743              -9.0389
       296                         -0.3207774              -8.7288
       297                         -0.3178518              -8.6492
       298                         -0.3175149              -8.6400
       299                         -0.3168812              -8.6228
       300                         -0.3092942              -8.4163
       301                         -0.2890969              -7.8667
       302                         -0.2814469              -7.6586
       303                         -0.2762269              -7.5165
       304                         -0.2551111              -6.9419
       ...                                ...                  ...
       623                          1.3501163              36.7385
      -------------------------------------------------------------
                  HL-Gap            0.0003562 Eh            0.0097 eV

Wiberg/Mayer (AO) data.
largest (>0.10) Wiberg bond orders for each atom

     #   Z sym  total        # sym  WBO       # sym  WBO       # sym  WBO
 ---------------------------------------------------------------------------
     1  29 Cu   2.194 --    39 N    0.505     7 N    0.505    19 N    0.503
                            26 N    0.503
     2   6 C    3.924 --     3 C    1.360    38 C    1.360    40 H    0.971
     3   6 C    3.919 --     2 C    1.360     7 N    1.229     4 C    1.173
     4   6 C    3.954 --     5 C    1.652     3 C    1.173    41 H    0.976
     5   6 C    3.958 --     4 C    1.652     6 C    1.175    42 H    0.973
     6   6 C    3.912 --     8 C    1.316     7 N    1.239     5 C    1.175
     7   7 N    3.240 --     6 C    1.239     3 C    1.229     1 Cu   0.505
     8   6 C    3.932 --    16 C    1.320     6 C    1.316     9 C    1.036
     9   6 C    3.988 --    15 C    1.380    10 C    1.379     8 C    1.036
    10   6 C    3.987 --    11 C    1.470     9 C    1.379    43 H    0.973
    11   6 C    3.990 --    10 C    1.470    12 C    1.353    44 H    0.972
    12   6 C    3.951 --    14 C    1.354    11 C    1.353    13 N    1.115
    13   7 N    3.133 --    12 C    1.115    45 H    0.934    46 H    0.934
    14   6 C    3.989 --    15 C    1.468    12 C    1.354    47 H    0.972
    15   6 C    3.987 --    14 C    1.468     9 C    1.380    48 H    0.973
    16   6 C    3.908 --     8 C    1.320    19 N    1.224    17 C    1.184
    17   6 C    3.954 --    18 C    1.635    16 C    1.184    49 H    0.973
    18   6 C    3.956 --    17 C    1.635    20 C    1.192    50 H    0.965
    19   7 N    3.244 --    20 C    1.254    16 C    1.224     1 Cu   0.503
    20   6 C    3.902 --    21 C    1.259    19 N    1.254    18 C    1.192
    21   6 C    3.934 --    20 C    1.259    22 C    1.259   121 C    1.183
    22   6 C    3.902 --    21 C    1.259    26 N    1.255    23 C    1.192
    23   6 C    3.956 --    24 C    1.635    22 C    1.192    51 H    0.967
    24   6 C    3.954 --    23 C    1.635    25 C    1.184    52 H    0.973
    25   6 C    3.908 --    27 C    1.320    26 N    1.223    24 C    1.184
    26   7 N    3.244 --    22 C    1.255    25 C    1.223     1 Cu   0.503
    27   6 C    3.932 --    25 C    1.320    35 C    1.316    28 C    1.037
    28   6 C    3.988 --    34 C    1.380    29 C    1.378    27 C    1.037
    29   6 C    3.987 --    30 C    1.470    28 C    1.378    53 H    0.973
    30   6 C    3.990 --    29 C    1.470    31 C    1.353    54 H    0.972
    31   6 C    3.951 --    33 C    1.354    30 C    1.353    32 N    1.115
    32   7 N    3.133 --    31 C    1.115    56 H    0.934    55 H    0.934
    33   6 C    3.989 --    34 C    1.469    31 C    1.354    57 H    0.972
    34   6 C    3.987 --    33 C    1.469    28 C    1.380    58 H    0.973
    35   6 C    3.912 --    27 C    1.316    39 N    1.239    36 C    1.175
    36   6 C    3.958 --    37 C    1.651    35 C    1.175    59 H    0.973
    37   6 C    3.954 --    36 C    1.651    38 C    1.173    60 H    0.976
    38   6 C    3.919 --     2 C    1.360    39 N    1.229    37 C    1.173
    39   7 N    3.241 --    35 C    1.239    38 C    1.229     1 Cu   0.505
    40   1 H    1.002 --     2 C    0.971
    41   1 H    0.998 --     4 C    0.976
    42   1 H    1.005 --     5 C    0.973
    43   1 H    1.006 --    10 C    0.973
    44   1 H    0.999 --    11 C    0.972
    45   1 H    0.961 --    13 N    0.934
    46   1 H    0.961 --    13 N    0.934
    47   1 H    0.999 --    14 C    0.972
    48   1 H    1.006 --    15 C    0.973
    49   1 H    1.005 --    17 C    0.973
    50   1 H    1.008 --    18 C    0.965
    51   1 H    1.007 --    23 C    0.967
    52   1 H    1.005 --    24 C    0.973
    53   1 H    1.006 --    29 C    0.973
    54   1 H    0.999 --    30 C    0.972
    55   1 H    0.961 --    32 N    0.934
    56   1 H    0.961 --    32 N    0.934
    57   1 H    0.999 --    33 C    0.972
    58   1 H    1.006 --    34 C    0.973
    59   1 H    1.005 --    36 C    0.973
    60   1 H    0.998 --    37 C    0.976
    61  29 Cu   2.184 --    99 N    0.504    67 N    0.504    79 N    0.501
                            86 N    0.501
    62   6 C    3.926 --    63 C    1.360    98 C    1.360   100 H    0.971
    63   6 C    3.919 --    62 C    1.360    67 N    1.230    64 C    1.173
    64   6 C    3.954 --    65 C    1.652    63 C    1.173   101 H    0.976
    65   6 C    3.958 --    64 C    1.652    66 C    1.174   102 H    0.973
    66   6 C    3.912 --    68 C    1.316    67 N    1.240    65 C    1.174
    67   7 N    3.241 --    66 C    1.240    63 C    1.230    61 Cu   0.504
    68   6 C    3.933 --    76 C    1.322    66 C    1.316    69 C    1.034
    69   6 C    3.988 --    75 C    1.381    70 C    1.380    68 C    1.034
    70   6 C    3.987 --    71 C    1.469    69 C    1.380   103 H    0.973
    71   6 C    3.990 --    70 C    1.469    72 C    1.354   104 H    0.972
    72   6 C    3.951 --    74 C    1.355    71 C    1.354    73 N    1.114
    73   7 N    3.132 --    72 C    1.114   105 H    0.934   106 H    0.934
    74   6 C    3.989 --    75 C    1.468    72 C    1.355   107 H    0.972
    75   6 C    3.987 --    74 C    1.468    69 C    1.381   108 H    0.973
    76   6 C    3.908 --    68 C    1.322    79 N    1.224    77 C    1.182
    77   6 C    3.955 --    78 C    1.638    76 C    1.182   109 H    0.973
    78   6 C    3.956 --    77 C    1.638    80 C    1.190   110 H    0.971
    79   7 N    3.245 --    80 C    1.255    76 C    1.224    61 Cu   0.501
    80   6 C    3.903 --    81 C    1.262    79 N    1.255    78 C    1.190
    81   6 C    3.935 --    80 C    1.262    82 C    1.261   124 C    1.178
    82   6 C    3.903 --    81 C    1.261    86 N    1.256    83 C    1.190
    83   6 C    3.956 --    84 C    1.637    82 C    1.190   111 H    0.970
    84   6 C    3.955 --    83 C    1.637    85 C    1.183   112 H    0.973
    85   6 C    3.908 --    87 C    1.322    86 N    1.224    84 C    1.183
    86   7 N    3.245 --    82 C    1.256    85 C    1.224    61 Cu   0.501
    87   6 C    3.933 --    85 C    1.322    95 C    1.316    88 C    1.035
    88   6 C    3.988 --    94 C    1.380    89 C    1.380    87 C    1.035
    89   6 C    3.987 --    90 C    1.469    88 C    1.380   113 H    0.973
    90   6 C    3.990 --    89 C    1.469    91 C    1.354   114 H    0.972
    91   6 C    3.951 --    93 C    1.355    90 C    1.354    92 N    1.114
    92   7 N    3.132 --    91 C    1.114   115 H    0.934   116 H    0.934
    93   6 C    3.989 --    94 C    1.468    91 C    1.355   117 H    0.972
    94   6 C    3.987 --    93 C    1.468    88 C    1.380   118 H    0.973
    95   6 C    3.912 --    87 C    1.316    99 N    1.240    96 C    1.175
    96   6 C    3.958 --    97 C    1.652    95 C    1.175   119 H    0.973
    97   6 C    3.954 --    96 C    1.652    98 C    1.173   120 H    0.976
    98   6 C    3.919 --    62 C    1.360    99 N    1.230    97 C    1.173
    99   7 N    3.241 --    95 C    1.240    98 C    1.230    61 Cu   0.504
   100   1 H    1.002 --    62 C    0.971
   101   1 H    0.998 --    64 C    0.976
   102   1 H    1.005 --    65 C    0.973
   103   1 H    1.005 --    70 C    0.973
   104   1 H    0.999 --    71 C    0.972
   105   1 H    0.961 --    73 N    0.934
   106   1 H    0.961 --    73 N    0.934
   107   1 H    0.999 --    74 C    0.972
   108   1 H    1.005 --    75 C    0.973
   109   1 H    1.006 --    77 C    0.973
   110   1 H    1.006 --    78 C    0.971
   111   1 H    1.006 --    83 C    0.970
   112   1 H    1.006 --    84 C    0.973
   113   1 H    1.005 --    89 C    0.973
   114   1 H    0.999 --    90 C    0.972
   115   1 H    0.961 --    92 N    0.934
   116   1 H    0.961 --    92 N    0.934
   117   1 H    0.999 --    93 C    0.972
   118   1 H    1.005 --    94 C    0.973
   119   1 H    1.005 --    96 C    0.973
   120   1 H    0.998 --    97 C    0.976
   121   6 C    3.933 --   122 C    2.573    21 C    1.183
   122   6 C    3.934 --   121 C    2.573   126 C    1.184
   123   6 C    3.934 --   124 C    2.576   145 C    1.179
   124   6 C    3.932 --   123 C    2.576    81 C    1.178
   125  29 Cu   2.164 --   163 N    0.499   131 N    0.498   150 N    0.498
                           143 N    0.498
   126   6 C    3.926 --   127 C    1.258   162 C    1.256   122 C    1.184
   127   6 C    3.902 --   131 N    1.258   126 C    1.258   128 C    1.190
   128   6 C    3.955 --   129 C    1.637   127 C    1.190   164 H    0.965
   129   6 C    3.955 --   128 C    1.637   130 C    1.183   165 H    0.973
   130   6 C    3.906 --   132 C    1.323   131 N    1.222   129 C    1.183
   131   7 N    3.238 --   127 C    1.258   130 C    1.222   125 Cu   0.498
   132   6 C    3.927 --   130 C    1.323   140 C    1.322   133 C    1.025
   133   6 C    3.988 --   134 C    1.385   139 C    1.384   132 C    1.025
   134   6 C    3.989 --   135 C    1.465   133 C    1.385   166 H    0.973
                           138 C    0.101
   135   6 C    3.990 --   134 C    1.465   136 C    1.356   167 H    0.972
                           139 C    0.101
   136   6 C    3.953 --   135 C    1.356   138 C    1.356   137 N    1.112
   137   7 N    3.131 --   136 C    1.112   168 H    0.934   169 H    0.934
   138   6 C    3.990 --   139 C    1.466   136 C    1.356   170 H    0.972
                           134 C    0.101
   139   6 C    3.989 --   138 C    1.466   133 C    1.384   171 H    0.973
                           135 C    0.101
   140   6 C    3.906 --   132 C    1.322   143 N    1.223   141 C    1.183
   141   6 C    3.955 --   142 C    1.638   140 C    1.183   172 H    0.973
   142   6 C    3.955 --   141 C    1.638   144 C    1.189   173 H    0.970
   143   7 N    3.239 --   144 C    1.258   140 C    1.223   125 Cu   0.498
   144   6 C    3.904 --   145 C    1.261   143 N    1.258   142 C    1.189
   145   6 C    3.925 --   144 C    1.261   146 C    1.259   123 C    1.179
   146   6 C    3.904 --   145 C    1.259   150 N    1.257   147 C    1.191
   147   6 C    3.954 --   148 C    1.634   146 C    1.191   174 H    0.971
   148   6 C    3.956 --   147 C    1.634   149 C    1.185   175 H    0.973
   149   6 C    3.906 --   151 C    1.318   150 N    1.224   148 C    1.185
   150   7 N    3.239 --   146 C    1.257   149 C    1.224   125 Cu   0.498
   151   6 C    3.930 --   159 C    1.319   149 C    1.318   152 C    1.037
   152   6 C    3.988 --   158 C    1.379   153 C    1.379   151 C    1.037
   153   6 C    3.987 --   154 C    1.469   152 C    1.379   176 H    0.973
   154   6 C    3.989 --   153 C    1.469   155 C    1.354   177 H    0.972
   155   6 C    3.951 --   157 C    1.354   154 C    1.354   156 N    1.114
   156   7 N    3.132 --   155 C    1.114   178 H    0.934   179 H    0.934
   157   6 C    3.989 --   158 C    1.469   155 C    1.354   180 H    0.972
   158   6 C    3.987 --   157 C    1.469   152 C    1.379   181 H    0.973
   159   6 C    3.906 --   151 C    1.319   163 N    1.222   160 C    1.185
   160   6 C    3.955 --   161 C    1.634   159 C    1.185   182 H    0.973
   161   6 C    3.954 --   160 C    1.634   162 C    1.192   183 H    0.967
   162   6 C    3.903 --   163 N    1.258   126 C    1.256   161 C    1.192
   163   7 N    3.238 --   162 C    1.258   159 C    1.222   125 Cu   0.499
   164   1 H    1.008 --   128 C    0.965
   165   1 H    1.006 --   129 C    0.973
   166   1 H    1.005 --   134 C    0.973
   167   1 H    0.999 --   135 C    0.972
   168   1 H    0.961 --   137 N    0.934
   169   1 H    0.961 --   137 N    0.934
   170   1 H    0.999 --   138 C    0.972
   171   1 H    1.005 --   139 C    0.973
   172   1 H    1.006 --   141 C    0.973
   173   1 H    1.006 --   142 C    0.970
   174   1 H    1.005 --   147 C    0.971
   175   1 H    1.006 --   148 C    0.973
   176   1 H    1.006 --   153 C    0.973
   177   1 H    0.999 --   154 C    0.972
   178   1 H    0.961 --   156 N    0.934
   179   1 H    0.961 --   156 N    0.934
   180   1 H    0.999 --   157 C    0.972
   181   1 H    1.006 --   158 C    0.973
   182   1 H    1.005 --   160 C    0.973
   183   1 H    1.007 --   161 C    0.967
 ---------------------------------------------------------------------------

           -------------------------------------------------
          | TOTAL ENERGY             -315.859635497973 Eh   |
          | GRADIENT NORM               0.000798430434 Eh/α |
          | HOMO-LUMO GAP               0.009691935276 eV   |
           -------------------------------------------------

 * finished run on 2022/07/30 at 07:20:15.560
