   * xtb version 6.5.1 (b24c23e) compiled by 'conda@728c89f4b128' on 2022-07-12
          program call               : xtb Ni_DHP_C8_2.xyz --gfn 1 --opt -T 48

   ID    Z sym.   atoms
    1   28 Ni     1, 59
    2    6 C      2-6, 8-11, 13-17, 19-24, 26-29, 31-36, 60-64, 66-69, 71-75,
                  77-82, 84-87, 89-94, 117-124
    3    7 N      7, 12, 18, 25, 30, 37, 65, 70, 76, 83, 88, 95
    4    1 H      38-58, 96-116
########################################################################
[WARNING] Please study the warnings concerning your input carefully
-1- prog_main_parseArguments: Unknown option '-T' provided
########################################################################

          :  Hamiltonian                  GFN1-xTB          :
 * total energy  :  -212.3774452 Eh     change       -0.2225136E-08 Eh
 * total energy  :  -212.5848702 Eh     change       -0.2074250E+00 Eh
 * total energy  :  -212.6514870 Eh     change       -0.6661679E-01 Eh
 * total energy  :  -212.6755231 Eh     change       -0.2403611E-01 Eh
 * total energy  :  -212.6857571 Eh     change       -0.1023396E-01 Eh
 * total energy  :  -212.6910702 Eh     change       -0.5313155E-02 Eh
 * total energy  :  -212.6928600 Eh     change       -0.1789836E-02 Eh
 * total energy  :  -212.6944031 Eh     change       -0.1543092E-02 Eh
 * total energy  :  -212.6954134 Eh     change       -0.1010216E-02 Eh
 * total energy  :  -212.6962534 Eh     change       -0.8400817E-03 Eh
 * total energy  :  -212.6990428 Eh     change       -0.1022882E-04 Eh
 * total energy  :  -212.6990515 Eh     change       -0.8705470E-05 Eh
 * total energy  :  -212.6990639 Eh     change       -0.1234148E-04 Eh
 * total energy  :  -212.6990749 Eh     change       -0.1102572E-04 Eh
 * total energy  :  -212.6990879 Eh     change       -0.1297268E-04 Eh
 * total energy  :  -212.6990992 Eh     change       -0.1134203E-04 Eh
 * total energy  :  -212.6991076 Eh     change       -0.8405323E-05 Eh
 * total energy  :  -212.6991132 Eh     change       -0.5568438E-05 Eh
 * total energy  :  -212.6991180 Eh     change       -0.4829519E-05 Eh
   *** GEOMETRY OPTIMIZATION CONVERGED AFTER 33 ITERATIONS ***

 final structure:
================
124
 xtb: 6.5.1 (b24c23e)
Ni          11.37150673418179       -0.01905512933757       -0.01451753085580
C            7.98228562084914       -0.05216482988503       -0.14770597349227
C            8.63866772382743       -1.26092203714715       -0.04107306753124
C            7.96782116894885       -2.52119050942409        0.05049592465848
C            8.92933712223351       -3.47436549098426        0.03847416126931
C           10.18674488603971       -2.79543874834866       -0.07386262676570
N            9.99962557340901       -1.43534871930356       -0.08047583999559
C           11.40803250523308       -3.44188295361183       -0.21561502626088
C           11.42996005303781       -4.92116026288120       -0.31246737202864
C           10.82230304006825       -5.56907625102202       -1.31737874658550
C           10.82115940862702       -7.07156581318217       -1.42789214663292
N           11.84422453519839       -7.66734113957574       -0.56470227152831
C           12.29302442841366       -7.00474729635453        0.54781941417731
C           12.15006622912077       -5.67658314651988        0.70258026793437
C           12.61348251929989       -2.75523501998187       -0.27464779347411
C           13.88045427802398       -3.39075656288695       -0.47111841171863
C           14.82305530314564       -2.42147686644774       -0.38496208551080
N           12.77733842153168       -1.39789912863732       -0.10917717816592
C           14.12972322225938       -1.19666315970977       -0.14336677267971
C           14.78117245373606        0.01557143864662        0.10398303301307
C           14.08991897100930        1.21299232643643        0.31077081308039
C           14.73941120579113        2.44987863506774        0.60690020216584
C           13.77305640006978        3.39926453029757        0.63367433656204
C           12.53627892066821        2.73972322277680        0.34421224632513
N           12.73907410726778        1.38690087158899        0.18443526994657
C           11.32523274121869        3.40312335030372        0.19617684061478
C           11.30897874988599        4.88222464529838        0.29635298827092
C           10.60811522110886        5.51470931918910        1.24908194367231
C           10.56359267737444        7.01667819969991        1.35831720479838
N           11.64077526270245        7.63659897133692        0.58221191383344
C           12.19239065637926        6.98634263530128       -0.49066357255674
C           12.09154097409972        5.65568669777360       -0.65702767218708
C           10.13166562313230        2.73341326826921       -0.04235591240168
C            8.87392550283515        3.38821785112617       -0.25304064127272
C            7.93536666626044        2.41670877018272       -0.34372109906129
C            8.62124896720196        1.16930386587423       -0.20126546801394
N            9.97111748076028        1.37006488904161       -0.05342665109645
H            6.89935230948342       -0.06273604879948       -0.19118902148582
H            6.89795203303792       -2.64084986382105        0.11581105257702
H            8.81149085527773       -4.54386998955470        0.10203445702982
H           10.28605801637431       -5.03978732485061       -2.09637021611364
H           11.03139736021809       -7.37486495615689       -2.46241613537498
H            9.82388920517644       -7.47255893751879       -1.16676135834797
H           11.78312514586163       -8.67224115918136       -0.49206235156911
H           12.84478013522541       -7.62005908901451        1.25129107455471
H           12.55531494610740       -5.16189222117007        1.56203900217549
H           14.01969080332799       -4.44423240285988       -0.65082305231909
H           15.89373714596386       -2.51262602525696       -0.47226394284679
H           15.79958843241836        2.56088371263242        0.76875468108560
H           13.87741238898276        4.45403297915067        0.82942745783143
H           10.02249472427842        4.97234752467933        1.98216523595559
H           10.68046233256280        7.32357796211941        2.40651755688312
H            9.58230829289114        7.39510726049430        1.01516300249991
H           11.56388586592736        8.64026269237803        0.50542485463688
H           12.78550768864363        7.61503883846621       -1.14710178285610
H           12.57576253637507        5.15219067854501       -1.48161690327404
H            8.73989408069696        4.45535751264161       -0.32405460273259
H            6.87189980718990        2.51574397367659       -0.49360712416134
Ni          29.93203853080604        0.01836472110383       -0.01048746026273
C           33.32117642538162        0.08071446226582       -0.13401133102658
C           32.66434969922977        1.23807687525718        0.22987060315991
C           33.33472560325786        2.44947815303056        0.59013485755569
C           32.37282796467847        3.38255085967237        0.78334621490115
C           31.11567509089016        2.74311350728699        0.52772157556474
N           31.30331862120139        1.41630524565463        0.22902970988557
C           29.89416714051055        3.40455293065743        0.52793949035036
C           29.87189741764390        4.87016855745100        0.75067283447925
C           30.47940329503047        5.71856870979020       -0.09197199950980
C           30.48067875087967        7.20976803435622        0.12243467998261
N           29.45769608034627        7.60653734420174        1.09339918883485
C           29.00881213625840        6.72070763183809        2.03783650571939
C           29.15176178081766        5.39025119397777        1.90410907617902
C           28.68897171701605        2.74619553529751        0.32279433732472
C           27.42173073203094        3.40854251095173        0.26726410471797
C           26.47953516539222        2.44292040480280        0.14354667923850
N           28.52567338668668        1.38487590074501        0.19323077289812
C           27.17343115535983        1.19507510122013        0.11678183705467
C           26.52237776367495       -0.04223438913328        0.09828731506491
C           27.21408430934245       -1.25585770686182        0.04307426303678
C           26.56507205733989       -2.52766983644527        0.06665798241517
C           27.53180055402823       -3.46026014300401       -0.11121544137239
C           28.76832025042511       -2.75347206181033       -0.25239055062244
N           28.56500590855606       -1.39797211276354       -0.11778546053797
C           29.97958033907391       -3.36922671019253       -0.53946041700665
C           29.99610154027415       -4.83533136448751       -0.75927016552860
C           30.69718681493957       -5.65764156891993        0.03522655154259
C           30.74132730476115       -7.14809541289545       -0.18034241585190
N           29.66397130197783       -7.58686507109860       -1.07126803990912
C           29.11223677644013       -6.72141990217658       -1.97942441369400
C           29.21325374701862       -5.38608303967198       -1.85628376196658
C           31.17295016531142       -2.66355369811244       -0.62860051574216
C           32.43093940003047       -3.25736575749919       -0.97487790010338
C           33.36906930767351       -2.28858060868017       -0.85513403033797
C           32.68268338466032       -1.10107031985368       -0.44839271067655
N           31.33292510108834       -1.32949550284098       -0.34693906521948
H           34.40409111423602        0.10088922066186       -0.17443237376897
H           34.40454877620245        2.55275675224726        0.67962053098128
H           32.49017698838715        4.41343261014882        1.07536591604130
H           31.01558082599908        5.36864817695254       -0.96637667101990
H           30.27049177338416        7.72802649456677       -0.82289513699333
H           31.47799221422326        7.54525992446318        0.46351873433118
H           29.51890295128090        8.57243426323677        1.37998350329785
H           28.45703706483287        7.17084540418281        2.85688636119749
H           28.74643322438492        4.70319575808542        2.63312507049344
H           27.28202039864344        4.47598701478580        0.31771593611043
H           25.40881919928993        2.55025685391363        0.07787380749831
H           25.50497317278576       -2.67123059860739        0.20104271791909
H           27.42784813660692       -4.53249257255086       -0.14655945034897
H           31.28308828253878       -5.28540257074997        0.86750556929068
H           30.62436926324731       -7.67263719612195        0.77765177656042
H           31.72249695199543       -7.44440005892280       -0.59672748950352
H           29.74059334028957       -8.55065876052432       -1.36161209977224
H           28.51887342700298       -7.19446052359775       -2.75537879809973
H           28.72892365717810       -4.71729625187394       -2.55346938054600
H           32.56544546622287       -4.28439236572438       -1.27307601526107
H           34.43257025283030       -2.35264892457705       -1.02278426928302
C           16.18495455169800        0.02677770466688        0.14393547275136
C           17.40908273706738        0.01975071413823        0.16669465077950
C           18.75227452174845        0.00849471021635        0.18310349764066
C           19.98257133926706       -0.01131067156502        0.18819956208447
C           21.32088486032772       -0.03054465194249        0.18613641301502
C           22.55120393086538       -0.04995120009827        0.17648084178826
C           23.89432179704912       -0.05722284061934        0.15855573441566
C           25.11844359940266       -0.06188442749925        0.13483310316437

          :  Hamiltonian                  GFN1-xTB          :
         :: total energy            -212.699118021427 Eh    ::
         :: gradient norm              0.000963620339 Eh/a0 ::
         :: HOMO-LUMO gap              1.003352122286 eV    ::
         :: SCC energy              -216.076465069577 Eh    ::
         :: repulsion energy           3.484536749084 Eh    ::

    * Orbital Energies and Occupations

         #    Occupation            Energy/Eh            Energy/eV
      -------------------------------------------------------------
         1        2.0000           -0.7806375             -21.2422
       ...           ...                  ...                  ...
       185        2.0000           -0.3904670             -10.6251
       186        2.0000           -0.3895070             -10.5990
       187        2.0000           -0.3895062             -10.5990
       188        2.0000           -0.3884160             -10.5693
       189        2.0000           -0.3884138             -10.5693
       190        2.0000           -0.3883943             -10.5687
       191        2.0000           -0.3883932             -10.5687
       192        2.0000           -0.3863456             -10.5130
       193        2.0000           -0.3777944             -10.2803
       194        2.0000           -0.3706560             -10.0861
       195        2.0000           -0.3706532             -10.0860
       196        2.0000           -0.3699583             -10.0671
       197        2.0000           -0.3695543             -10.0561 (HOMO)
       198                         -0.3326818              -9.0527 (LUMO)
       199                         -0.3225524              -8.7771
       200                         -0.3211861              -8.7399
       201                         -0.3211850              -8.7399
       202                         -0.3203368              -8.7168
       203                         -0.3203223              -8.7164
       204                         -0.2954526              -8.0397
       205                         -0.2937939              -7.9945
       206                         -0.2866548              -7.8003
       207                         -0.2708733              -7.3708
       208                         -0.2656692              -7.2292
       ...                                ...                  ...
       422                          1.6119165              43.8625
      -------------------------------------------------------------
                  HL-Gap            0.0368725 Eh            1.0034 eV

Wiberg/Mayer (AO) data.
largest (>0.10) Wiberg bond orders for each atom

     #   Z sym  total        # sym  WBO       # sym  WBO       # sym  WBO
 ---------------------------------------------------------------------------
     1  28 Ni   3.017 --     7 N    0.664    37 N    0.664    18 N    0.663
                            25 N    0.663
     2   6 C    3.932 --    36 C    1.363     3 C    1.363    38 H    0.970
     3   6 C    3.926 --     2 C    1.363     7 N    1.213     4 C    1.177
     4   6 C    3.960 --     5 C    1.646     3 C    1.177    39 H    0.975
     5   6 C    3.963 --     4 C    1.646     6 C    1.179    40 H    0.973
     6   6 C    3.920 --     8 C    1.322     7 N    1.220     5 C    1.179
     7   7 N    3.401 --     6 C    1.220     3 C    1.213     1 Ni   0.664
     8   6 C    3.940 --    15 C    1.328     6 C    1.322     9 C    1.024
     9   6 C    3.988 --    10 C    1.768    14 C    1.098     8 C    1.024
    10   6 C    3.973 --     9 C    1.768    11 C    1.013    41 H    0.972
    11   6 C    3.961 --    10 C    1.013    42 H    0.976    43 H    0.966
                            12 N    0.949
    12   7 N    3.249 --    13 C    1.162    11 C    0.949    44 H    0.928
                            14 C    0.128
    13   6 C    3.958 --    14 C    1.690    12 N    1.162    45 H    0.971
    14   6 C    3.967 --    13 C    1.690     9 C    1.098    46 H    0.974
                            12 N    0.128
    15   6 C    3.914 --     8 C    1.328    18 N    1.204    16 C    1.186
    16   6 C    3.959 --    17 C    1.634    15 C    1.186    47 H    0.972
    17   6 C    3.961 --    16 C    1.634    19 C    1.192    48 H    0.973
    18   7 N    3.406 --    19 C    1.239    15 C    1.204     1 Ni   0.663
    19   6 C    3.903 --    20 C    1.261    18 N    1.239    17 C    1.192
    20   6 C    3.943 --    21 C    1.261    19 C    1.261   117 C    1.187
    21   6 C    3.903 --    20 C    1.261    25 N    1.239    22 C    1.192
    22   6 C    3.961 --    23 C    1.634    21 C    1.192    49 H    0.973
    23   6 C    3.959 --    22 C    1.634    24 C    1.185    50 H    0.972
    24   6 C    3.914 --    26 C    1.328    25 N    1.204    23 C    1.185
    25   7 N    3.406 --    21 C    1.239    24 C    1.204     1 Ni   0.663
    26   6 C    3.940 --    24 C    1.328    33 C    1.322    27 C    1.024
    27   6 C    3.988 --    28 C    1.768    32 C    1.098    26 C    1.024
    28   6 C    3.973 --    27 C    1.768    29 C    1.013    51 H    0.972
    29   6 C    3.961 --    28 C    1.013    52 H    0.976    53 H    0.966
                            30 N    0.949
    30   7 N    3.249 --    31 C    1.162    29 C    0.949    54 H    0.928
                            32 C    0.128
    31   6 C    3.958 --    32 C    1.691    30 N    1.162    55 H    0.971
    32   6 C    3.967 --    31 C    1.691    27 C    1.098    56 H    0.974
                            30 N    0.128
    33   6 C    3.920 --    26 C    1.322    37 N    1.221    34 C    1.178
    34   6 C    3.963 --    35 C    1.646    33 C    1.178    57 H    0.973
    35   6 C    3.960 --    34 C    1.646    36 C    1.177    58 H    0.975
    36   6 C    3.926 --     2 C    1.363    37 N    1.213    35 C    1.177
    37   7 N    3.401 --    33 C    1.221    36 C    1.213     1 Ni   0.664
    38   1 H    1.001 --     2 C    0.970
    39   1 H    0.998 --     4 C    0.975
    40   1 H    1.007 --     5 C    0.973
    41   1 H    1.003 --    10 C    0.972
    42   1 H    1.019 --    11 C    0.976
    43   1 H    1.008 --    11 C    0.966
    44   1 H    0.963 --    12 N    0.928
    45   1 H    1.001 --    13 C    0.971
    46   1 H    1.003 --    14 C    0.974
    47   1 H    1.005 --    16 C    0.972
    48   1 H    1.002 --    17 C    0.973
    49   1 H    1.002 --    22 C    0.973
    50   1 H    1.005 --    23 C    0.972
    51   1 H    1.003 --    28 C    0.972
    52   1 H    1.019 --    29 C    0.976
    53   1 H    1.008 --    29 C    0.966
    54   1 H    0.963 --    30 N    0.928
    55   1 H    1.001 --    31 C    0.971
    56   1 H    1.003 --    32 C    0.974
    57   1 H    1.007 --    34 C    0.973
    58   1 H    0.998 --    35 C    0.975
    59  28 Ni   3.017 --    65 N    0.664    95 N    0.664    83 N    0.663
                            76 N    0.663
    60   6 C    3.932 --    94 C    1.363    61 C    1.363    96 H    0.970
    61   6 C    3.926 --    60 C    1.363    65 N    1.213    62 C    1.177
    62   6 C    3.960 --    63 C    1.646    61 C    1.177    97 H    0.975
    63   6 C    3.963 --    62 C    1.646    64 C    1.179    98 H    0.973
    64   6 C    3.920 --    66 C    1.322    65 N    1.220    63 C    1.179
    65   7 N    3.401 --    64 C    1.220    61 C    1.213    59 Ni   0.664
    66   6 C    3.940 --    73 C    1.328    64 C    1.322    67 C    1.024
    67   6 C    3.988 --    68 C    1.768    72 C    1.098    66 C    1.024
    68   6 C    3.973 --    67 C    1.768    69 C    1.013    99 H    0.972
    69   6 C    3.961 --    68 C    1.013   100 H    0.976   101 H    0.966
                            70 N    0.949
    70   7 N    3.249 --    71 C    1.162    69 C    0.949   102 H    0.928
                            72 C    0.128
    71   6 C    3.958 --    72 C    1.690    70 N    1.162   103 H    0.971
    72   6 C    3.967 --    71 C    1.690    67 C    1.098   104 H    0.974
                            70 N    0.128
    73   6 C    3.914 --    66 C    1.328    76 N    1.204    74 C    1.186
    74   6 C    3.959 --    75 C    1.634    73 C    1.186   105 H    0.972
    75   6 C    3.961 --    74 C    1.634    77 C    1.192   106 H    0.973
    76   7 N    3.406 --    77 C    1.239    73 C    1.204    59 Ni   0.663
    77   6 C    3.903 --    78 C    1.261    76 N    1.239    75 C    1.192
    78   6 C    3.943 --    79 C    1.262    77 C    1.261   124 C    1.187
    79   6 C    3.903 --    78 C    1.262    83 N    1.239    80 C    1.192
    80   6 C    3.961 --    81 C    1.634    79 C    1.192   107 H    0.973
    81   6 C    3.959 --    80 C    1.634    82 C    1.185   108 H    0.972
    82   6 C    3.914 --    84 C    1.328    83 N    1.204    81 C    1.185
    83   7 N    3.406 --    79 C    1.239    82 C    1.204    59 Ni   0.663
    84   6 C    3.940 --    82 C    1.328    91 C    1.322    85 C    1.024
    85   6 C    3.988 --    86 C    1.768    90 C    1.098    84 C    1.024
    86   6 C    3.973 --    85 C    1.768    87 C    1.013   109 H    0.972
    87   6 C    3.961 --    86 C    1.013   110 H    0.976   111 H    0.966
                            88 N    0.949
    88   7 N    3.249 --    89 C    1.162    87 C    0.949   112 H    0.928
                            90 C    0.128
    89   6 C    3.958 --    90 C    1.691    88 N    1.162   113 H    0.971
    90   6 C    3.967 --    89 C    1.691    85 C    1.098   114 H    0.974
                            88 N    0.128
    91   6 C    3.920 --    84 C    1.322    95 N    1.221    92 C    1.178
    92   6 C    3.963 --    93 C    1.646    91 C    1.178   115 H    0.973
    93   6 C    3.960 --    92 C    1.646    94 C    1.177   116 H    0.975
    94   6 C    3.926 --    60 C    1.363    95 N    1.213    93 C    1.177
    95   7 N    3.401 --    91 C    1.221    94 C    1.213    59 Ni   0.664
    96   1 H    1.001 --    60 C    0.970
    97   1 H    0.998 --    62 C    0.975
    98   1 H    1.007 --    63 C    0.973
    99   1 H    1.003 --    68 C    0.972
   100   1 H    1.019 --    69 C    0.976
   101   1 H    1.008 --    69 C    0.966
   102   1 H    0.963 --    70 N    0.928
   103   1 H    1.001 --    71 C    0.971
   104   1 H    1.003 --    72 C    0.974
   105   1 H    1.005 --    74 C    0.972
   106   1 H    1.002 --    75 C    0.973
   107   1 H    1.002 --    80 C    0.973
   108   1 H    1.005 --    81 C    0.972
   109   1 H    1.003 --    86 C    0.972
   110   1 H    1.019 --    87 C    0.976
   111   1 H    1.008 --    87 C    0.966
   112   1 H    0.963 --    88 N    0.928
   113   1 H    1.001 --    89 C    0.971
   114   1 H    1.003 --    90 C    0.974
   115   1 H    1.007 --    92 C    0.973
   116   1 H    0.998 --    93 C    0.975
   117   6 C    3.878 --   118 C    2.444    20 C    1.187   120 C    0.187
   118   6 C    3.937 --   117 C    2.444   119 C    1.341
   119   6 C    3.894 --   120 C    2.340   118 C    1.341   122 C    0.183
   120   6 C    3.927 --   119 C    2.340   121 C    1.367   117 C    0.187
   121   6 C    3.927 --   122 C    2.340   120 C    1.367   124 C    0.187
   122   6 C    3.894 --   121 C    2.340   123 C    1.342   119 C    0.183
   123   6 C    3.937 --   124 C    2.444   122 C    1.342
   124   6 C    3.878 --   123 C    2.444    78 C    1.187   121 C    0.187
 ---------------------------------------------------------------------------

           -------------------------------------------------
          | TOTAL ENERGY             -212.699118021427 Eh   |
          | GRADIENT NORM               0.000963620339 Eh/α |
          | HOMO-LUMO GAP               1.003352122286 eV   |
           -------------------------------------------------

 * finished run on 2022/07/30 at 03:46:25.309
