   * xtb version 6.5.1 (b24c23e) compiled by 'conda@728c89f4b128' on 2022-07-12
          program call               : xtb Fe_DHP_C8_2.xyz --gfn 1 --opt -T 48

   ID    Z sym.   atoms
    1   26 Fe     1, 59
    2    6 C      2-6, 8-11, 13-17, 19-24, 26-29, 31-36, 60-64, 66-69, 71-75,
                  77-82, 84-87, 89-94, 117-124
    3    7 N      7, 12, 18, 25, 30, 37, 65, 70, 76, 83, 88, 95
    4    1 H      38-58, 96-116
########################################################################
[WARNING] Please study the warnings concerning your input carefully
-1- prog_main_parseArguments: Unknown option '-T' provided
########################################################################

          :  Hamiltonian                  GFN1-xTB          :
 * total energy  :  -210.1003735 Eh     change        0.7503331E-11 Eh
 * total energy  :  -210.3001884 Eh     change       -0.1998148E+00 Eh
 * total energy  :  -210.3643419 Eh     change       -0.6415356E-01 Eh
 * total energy  :  -210.3890718 Eh     change       -0.2472990E-01 Eh
 * total energy  :  -210.3997962 Eh     change       -0.1072435E-01 Eh
 * total energy  :  -210.4050919 Eh     change       -0.5295712E-02 Eh
 * total energy  :  -210.4067487 Eh     change       -0.1656802E-02 Eh
 * total energy  :  -210.4085548 Eh     change       -0.1806091E-02 Eh
 * total energy  :  -210.4094504 Eh     change       -0.8956227E-03 Eh
 * total energy  :  -210.4102760 Eh     change       -0.8256095E-03 Eh
 * total energy  :  -210.4128525 Eh     change       -0.8659786E-05 Eh
 * total energy  :  -210.4128643 Eh     change       -0.1184836E-04 Eh
 * total energy  :  -210.4128756 Eh     change       -0.1124274E-04 Eh
 * total energy  :  -210.4128871 Eh     change       -0.1151582E-04 Eh
 * total energy  :  -210.4129004 Eh     change       -0.1333797E-04 Eh
 * total energy  :  -210.4129118 Eh     change       -0.1134657E-04 Eh
 * total energy  :  -210.4129215 Eh     change       -0.9773213E-05 Eh
 * total energy  :  -210.4129286 Eh     change       -0.7066836E-05 Eh
 * total energy  :  -210.4129332 Eh     change       -0.4633289E-05 Eh
   *** GEOMETRY OPTIMIZATION CONVERGED AFTER 33 ITERATIONS ***

 final structure:
================
124
 xtb: 6.5.1 (b24c23e)
Fe          11.37672267404549       -0.01971713691128       -0.01489709706479
C            7.99149473677537       -0.05204466971240       -0.14624277968472
C            8.64463412132718       -1.26199480207857       -0.03156720862433
C            7.97133156462444       -2.52185785609426        0.06591969115337
C            8.93130480763589       -3.47664733072522        0.05296769578318
C           10.19020506044438       -2.79848816674573       -0.06590275041388
N           10.00242334487315       -1.44219727819024       -0.07246183522477
C           11.41311026945305       -3.44406787059778       -0.21019035218602
C           11.43342526431546       -4.92246991409198       -0.30659698382545
C           10.80627042234939       -5.56931314994032       -1.30279378703400
C           10.80507897421397       -7.06882497983203       -1.42791350911696
N           11.78787889535995       -7.68067845878499       -0.53289695419775
C           12.28359319716179       -7.01424063535568        0.55056927609387
C           12.16779022273170       -5.67972965625389        0.69288781876717
C           12.62028098709447       -2.76056518603098       -0.27391994802497
C           13.88859056335913       -3.39522743254092       -0.47639743137375
C           14.82982315210009       -2.42428167060705       -0.39331908423091
N           12.78596727377384       -1.40618162340862       -0.11208829802060
C           14.13414415146358       -1.19991882817815       -0.14772875931008
C           14.78311242160012        0.01420673981375        0.10323901774425
C           14.09453661041060        1.21385484891803        0.31341902061868
C           14.74685137996696        2.45010488958718        0.61237635282860
C           13.78242177750505        3.40143805165615        0.63706780089064
C           12.54417056412150        2.74334004560817        0.34302818919882
N           12.74792350664683        1.39345588512920        0.18688395776898
C           11.33202938620706        3.40398906420606        0.19090250784180
C           11.31474489220336        4.88218013101741        0.29097659172244
C           10.59676968507563        5.51334782825958        1.23455878939401
C           10.55212348815832        7.01235004199110        1.35869713877888
N           11.59078741537103        7.64698335998119        0.54651538398423
C           12.18498998244880        6.99385332337614       -0.49473532594614
C           12.10927555599583        5.65751235144657       -0.64673033411545
C           10.13660062101707        2.73575911164214       -0.04991281640407
C            8.87816817568380        3.39028636957640       -0.26696686996499
C            7.94071230413577        2.41751320321302       -0.35775639613186
C            8.62817186942539        1.17035071410565       -0.20900908064827
N            9.97483994299859        1.37631554829902       -0.06078713739416
H            6.90805757733679       -0.06256850415147       -0.18905390044869
H            6.90147353264469       -2.64057107247383        0.13514518153114
H            8.81062702299320       -4.54569688622939        0.12176218729521
H           10.25881146042549       -5.03621341152770       -2.07125797649999
H           11.04899881326643       -7.36364861100074       -2.45845123417067
H            9.79823868757697       -7.46840950567142       -1.20701272087372
H           11.73807425760016       -8.68651147897398       -0.47475445350813
H           12.83604263286892       -7.63196153365308        1.25127579207598
H           12.60353802244630       -5.16562052398242        1.53760863355540
H           14.03026420999619       -4.44806467688682       -0.65931943759613
H           15.90027598513499       -2.51444596206180       -0.48530136118132
H           15.80667241180799        2.55969639521177        0.77778966639515
H           13.88949590037040        4.45544579094561        0.83619998039016
H           10.00149806393721        4.96727996787799        1.95696980579660
H           10.70447764280306        7.31124134746692        2.40554713707406
H            9.55784717886895        7.38960173861541        1.05616153998316
H           11.52515124452265        8.65175818674426        0.48583838980754
H           12.77805920675479        7.62471951047069       -1.14899590599614
H           12.62126840407149        5.15515177298900       -1.45497486117462
H            8.74226559205208        4.45696442286976       -0.34369700976808
H            6.87757663055266        2.51595166172844       -0.51130265083589
Fe          29.92675688768923        0.01908714224994       -0.01074826257710
C           33.31194197235010        0.08013236534226       -0.13218107166391
C           32.65838183603336        1.23695358830200        0.23978600920883
C           33.33121607094201        2.44668088048676        0.60573210312053
C           32.37087456069703        3.38157852339879        0.79824039243249
C           31.11223329472252        2.74433623317654        0.53634588523189
N           31.30052018871996        1.42119657095561        0.23852927797480
C           29.88914008994125        3.40549878468748        0.53383086665885
C           29.86845418848277        4.87017932283478        0.75671463826205
C           30.49550680335641        5.71561541468926       -0.07766399310321
C           30.49663800595660        7.20707045061431        0.12162897548500
N           29.51376305882205        7.61273562905052        1.12696643980947
C           29.01799406650581        6.72945921214800        2.04229029216102
C           29.13391160909812        5.39547043768753        1.89522359284441
C           28.68222180279545        2.75124649512843        0.32467066958456
C           27.41367434503183        3.41409023962499        0.26299107486260
C           26.47283259929887        2.44758052678502        0.13568523108187
N           28.51706663477583        1.39361025006275        0.19201765952079
C           27.16900800411448        1.19927885599643        0.11289163345745
C           26.52040395617930       -0.04061820890256        0.09741333893858
C           27.20940007688370       -1.25717093298497        0.04513818490196
C           26.55755966223808       -2.52899656969500        0.07164794744959
C           27.52234291805373       -3.46308323922913       -0.10852393523831
C           28.76033838399851       -2.75676880505854       -0.25437125625305
N           28.55609628029591       -1.40488449517567       -0.11705333067675
C           29.97269859955376       -3.36896599799016       -0.54473031277568
C           29.99032855357991       -4.83414947361490       -0.76449010749965
C           30.70847477664451       -5.65321999254922        0.02138032195058
C           30.75301460492539       -7.14392906194844       -0.17921371095391
N           29.71427330542493       -7.58934386243385       -1.10864032064394
C           29.11996847736614       -6.72786779154838       -1.98527297255045
C           29.19573018166888       -5.39006377430387       -1.84676781289197
C           31.16789529987522       -2.66421530903477       -0.63637950558338
C           32.42657718604070       -3.25643042988979       -0.98875273144043
C           33.36362338974539       -2.28643204150437       -0.86876092067078
C           32.67567774200349       -1.10050419843321       -0.45590274687641
N           31.32908943804311       -1.33401775843127       -0.35534813672997
H           34.39536520284013        0.10003475532915       -0.17185385557245
H           34.40102760069043        2.54816901389554        0.69891426035832
H           32.49108435391331        4.41090777385696        1.09520920676965
H           31.04302530228498        5.35964316927223       -0.94250455452070
H           30.25278186743983        7.71601605548487       -0.82173021455039
H           31.50345445680425        7.54999983352469        0.42315497356372
H           29.56357351321892        8.58269133220635        1.39948864991718
H           28.46542257323224        7.18259216602896        2.85905607844777
H           28.69810913067162        4.71218462249597        2.61001883782259
H           27.27154623914276        4.48159143416727        0.31029094408431
H           25.40235790942008        2.55504073154807        0.06508059174863
H           25.49777770247879       -2.67188434929102        0.20965753188103
H           27.41563967018302       -4.53530229542082       -0.14031626490109
H           31.30383954561017       -5.27508156790724        0.84416538409135
H           30.60065621159503       -7.66054879049968        0.77908831398185
H           31.74724283601906       -7.44754515828639       -0.55571461433866
H           29.77962453132788       -8.55772085715483       -1.38345039692418
H           28.52680517105160       -7.20351280490168       -2.75967690722845
H           28.68369097489729       -4.72587558770385       -2.52826047369927
H           32.56292758000513       -4.28178380780741       -1.29242574153057
H           34.42679561228657       -2.34918547134348       -1.03979382969896
C           16.18537816986779        0.02515497934314        0.14321071407257
C           17.41045285871871        0.01819944185757        0.16727832446574
C           18.75195671505611        0.00764419838253        0.18448863063815
C           19.98338528140829       -0.01158223985819        0.19002986037609
C           21.32015883993046       -0.03038902764077        0.18838274126336
C           22.55155109880414       -0.04840334824400        0.17831577003341
C           23.89303884745253       -0.05637328429956        0.15826429948592
C           25.11813761165772       -0.06016338762730        0.13374203766638

          :  Hamiltonian                  GFN1-xTB          :
         :: total energy            -210.412933265763 Eh    ::
         :: gradient norm              0.000574356386 Eh/a0 ::
         :: HOMO-LUMO gap              0.075884225087 eV    ::
         :: SCC energy              -213.800744213008 Eh    ::
         :: repulsion energy           3.495131285178 Eh    ::

    * Orbital Energies and Occupations

         #    Occupation            Energy/Eh            Energy/eV
      -------------------------------------------------------------
         1        2.0000           -0.7884217             -21.4540
       ...           ...                  ...                  ...
       183        2.0000           -0.3850893             -10.4788
       184        2.0000           -0.3838347             -10.4447
       185        1.9987           -0.3765786             -10.2472
       186        1.9925           -0.3748889             -10.2012
       187        1.9925           -0.3748882             -10.2012
       188        1.9799           -0.3739430             -10.1755
       189        1.9799           -0.3739430             -10.1755
       190        1.9635           -0.3733689             -10.1599
       191        1.9635           -0.3733676             -10.1599
       192        1.9595           -0.3732675             -10.1571
       193        1.9595           -0.3732673             -10.1571
       194        1.9362           -0.3728241             -10.1451
       195        1.5903           -0.3708703             -10.0919 (HOMO)
       196        0.3419           -0.3680817             -10.0160 (LUMO)
       197        0.3419           -0.3680816             -10.0160
       198                         -0.3277798              -8.9193
       199                         -0.3166767              -8.6172
       200                         -0.3159667              -8.5979
       201                         -0.3159660              -8.5979
       202                         -0.2923309              -7.9547
       203                         -0.2917658              -7.9394
       204                         -0.2867638              -7.8032
       205                         -0.2867445              -7.8027
       206                         -0.2838200              -7.7231
       ...                                ...                  ...
       422                          1.6120233              43.8654
      -------------------------------------------------------------
                  HL-Gap            0.0027887 Eh            0.0759 eV

Wiberg/Mayer (AO) data.
largest (>0.10) Wiberg bond orders for each atom

     #   Z sym  total        # sym  WBO       # sym  WBO       # sym  WBO
 ---------------------------------------------------------------------------
     1  26 Fe   3.106 --     7 N    0.663    37 N    0.663    25 N    0.658
                            18 N    0.658
     2   6 C    3.925 --    36 C    1.364     3 C    1.363    38 H    0.971
     3   6 C    3.928 --     2 C    1.363     7 N    1.210     4 C    1.174
     4   6 C    3.960 --     5 C    1.649     3 C    1.174    39 H    0.975
     5   6 C    3.963 --     4 C    1.649     6 C    1.175    40 H    0.973
     6   6 C    3.923 --     8 C    1.317     7 N    1.223     5 C    1.175
     7   7 N    3.377 --     6 C    1.223     3 C    1.210     1 Fe   0.663
     8   6 C    3.931 --    15 C    1.329     6 C    1.317     9 C    1.027
     9   6 C    3.982 --    10 C    1.749    14 C    1.108     8 C    1.027
    10   6 C    3.940 --     9 C    1.749    11 C    1.015    41 H    0.971
    11   6 C    3.956 --    10 C    1.015    42 H    0.973    43 H    0.964
                            12 N    0.947
    12   7 N    3.245 --    13 C    1.177    11 C    0.947    44 H    0.925
                            14 C    0.120
    13   6 C    3.945 --    14 C    1.668    12 N    1.177    45 H    0.970
    14   6 C    3.940 --    13 C    1.668     9 C    1.108    46 H    0.973
                            12 N    0.120
    15   6 C    3.917 --     8 C    1.329    18 N    1.204    16 C    1.181
    16   6 C    3.958 --    17 C    1.638    15 C    1.181    47 H    0.972
    17   6 C    3.961 --    16 C    1.638    19 C    1.188    48 H    0.974
    18   7 N    3.381 --    19 C    1.241    15 C    1.204     1 Fe   0.658
    19   6 C    3.904 --    20 C    1.256    18 N    1.241    17 C    1.188
    20   6 C    3.931 --    21 C    1.257    19 C    1.256   117 C    1.195
    21   6 C    3.905 --    20 C    1.257    25 N    1.241    22 C    1.188
    22   6 C    3.961 --    23 C    1.638    21 C    1.188    49 H    0.974
    23   6 C    3.958 --    22 C    1.638    24 C    1.181    50 H    0.972
    24   6 C    3.917 --    26 C    1.329    25 N    1.204    23 C    1.181
    25   7 N    3.381 --    21 C    1.241    24 C    1.204     1 Fe   0.658
    26   6 C    3.930 --    24 C    1.329    33 C    1.317    27 C    1.028
    27   6 C    3.982 --    28 C    1.749    32 C    1.108    26 C    1.028
    28   6 C    3.940 --    27 C    1.749    29 C    1.015    51 H    0.971
    29   6 C    3.956 --    28 C    1.015    52 H    0.973    53 H    0.964
                            30 N    0.947
    30   7 N    3.245 --    31 C    1.177    29 C    0.947    54 H    0.925
                            32 C    0.120
    31   6 C    3.945 --    32 C    1.668    30 N    1.177    55 H    0.970
    32   6 C    3.940 --    31 C    1.668    27 C    1.108    56 H    0.973
                            30 N    0.120
    33   6 C    3.923 --    26 C    1.317    37 N    1.223    34 C    1.175
    34   6 C    3.963 --    35 C    1.649    33 C    1.175    57 H    0.973
    35   6 C    3.960 --    34 C    1.649    36 C    1.174    58 H    0.975
    36   6 C    3.928 --     2 C    1.364    37 N    1.210    35 C    1.174
    37   7 N    3.377 --    33 C    1.223    36 C    1.210     1 Fe   0.663
    38   1 H    1.001 --     2 C    0.971
    39   1 H    0.998 --     4 C    0.975
    40   1 H    1.006 --     5 C    0.973
    41   1 H    1.003 --    10 C    0.971
    42   1 H    1.013 --    11 C    0.973
    43   1 H    1.002 --    11 C    0.964
    44   1 H    0.960 --    12 N    0.925
    45   1 H    1.001 --    13 C    0.970
    46   1 H    1.003 --    14 C    0.973
    47   1 H    1.005 --    16 C    0.972
    48   1 H    1.002 --    17 C    0.974
    49   1 H    1.002 --    22 C    0.974
    50   1 H    1.005 --    23 C    0.972
    51   1 H    1.003 --    28 C    0.971
    52   1 H    1.013 --    29 C    0.973
    53   1 H    1.002 --    29 C    0.964
    54   1 H    0.960 --    30 N    0.925
    55   1 H    1.001 --    31 C    0.970
    56   1 H    1.003 --    32 C    0.973
    57   1 H    1.006 --    34 C    0.973
    58   1 H    0.998 --    35 C    0.975
    59  26 Fe   3.106 --    65 N    0.663    95 N    0.663    83 N    0.658
                            76 N    0.658
    60   6 C    3.925 --    94 C    1.364    61 C    1.363    96 H    0.971
    61   6 C    3.928 --    60 C    1.363    65 N    1.210    62 C    1.174
    62   6 C    3.960 --    63 C    1.649    61 C    1.174    97 H    0.975
    63   6 C    3.963 --    62 C    1.649    64 C    1.175    98 H    0.973
    64   6 C    3.923 --    66 C    1.317    65 N    1.223    63 C    1.175
    65   7 N    3.377 --    64 C    1.223    61 C    1.210    59 Fe   0.663
    66   6 C    3.931 --    73 C    1.329    64 C    1.317    67 C    1.027
    67   6 C    3.982 --    68 C    1.749    72 C    1.108    66 C    1.027
    68   6 C    3.940 --    67 C    1.749    69 C    1.015    99 H    0.971
    69   6 C    3.956 --    68 C    1.015   100 H    0.973   101 H    0.964
                            70 N    0.947
    70   7 N    3.245 --    71 C    1.177    69 C    0.947   102 H    0.925
                            72 C    0.120
    71   6 C    3.945 --    72 C    1.668    70 N    1.177   103 H    0.970
    72   6 C    3.940 --    71 C    1.668    67 C    1.108   104 H    0.973
                            70 N    0.120
    73   6 C    3.917 --    66 C    1.329    76 N    1.204    74 C    1.181
    74   6 C    3.958 --    75 C    1.638    73 C    1.181   105 H    0.972
    75   6 C    3.961 --    74 C    1.638    77 C    1.188   106 H    0.974
    76   7 N    3.381 --    77 C    1.241    73 C    1.204    59 Fe   0.658
    77   6 C    3.904 --    78 C    1.256    76 N    1.241    75 C    1.188
    78   6 C    3.931 --    79 C    1.257    77 C    1.256   124 C    1.195
    79   6 C    3.905 --    78 C    1.257    83 N    1.241    80 C    1.188
    80   6 C    3.961 --    81 C    1.638    79 C    1.188   107 H    0.974
    81   6 C    3.958 --    80 C    1.638    82 C    1.181   108 H    0.972
    82   6 C    3.917 --    84 C    1.329    83 N    1.204    81 C    1.181
    83   7 N    3.381 --    79 C    1.241    82 C    1.204    59 Fe   0.658
    84   6 C    3.930 --    82 C    1.329    91 C    1.317    85 C    1.028
    85   6 C    3.982 --    86 C    1.749    90 C    1.108    84 C    1.028
    86   6 C    3.940 --    85 C    1.749    87 C    1.015   109 H    0.971
    87   6 C    3.956 --    86 C    1.015   110 H    0.973   111 H    0.964
                            88 N    0.947
    88   7 N    3.245 --    89 C    1.177    87 C    0.947   112 H    0.925
                            90 C    0.120
    89   6 C    3.945 --    90 C    1.668    88 N    1.177   113 H    0.970
    90   6 C    3.940 --    89 C    1.668    85 C    1.108   114 H    0.973
                            88 N    0.120
    91   6 C    3.923 --    84 C    1.317    95 N    1.223    92 C    1.175
    92   6 C    3.963 --    93 C    1.649    91 C    1.175   115 H    0.973
    93   6 C    3.960 --    92 C    1.649    94 C    1.173   116 H    0.975
    94   6 C    3.928 --    60 C    1.364    95 N    1.210    93 C    1.173
    95   7 N    3.377 --    91 C    1.223    94 C    1.210    59 Fe   0.663
    96   1 H    1.001 --    60 C    0.971
    97   1 H    0.998 --    62 C    0.975
    98   1 H    1.006 --    63 C    0.973
    99   1 H    1.003 --    68 C    0.971
   100   1 H    1.013 --    69 C    0.973
   101   1 H    1.002 --    69 C    0.964
   102   1 H    0.960 --    70 N    0.925
   103   1 H    1.001 --    71 C    0.970
   104   1 H    1.003 --    72 C    0.973
   105   1 H    1.005 --    74 C    0.972
   106   1 H    1.002 --    75 C    0.974
   107   1 H    1.002 --    80 C    0.974
   108   1 H    1.005 --    81 C    0.972
   109   1 H    1.003 --    86 C    0.971
   110   1 H    1.013 --    87 C    0.973
   111   1 H    1.002 --    87 C    0.964
   112   1 H    0.960 --    88 N    0.925
   113   1 H    1.001 --    89 C    0.970
   114   1 H    1.003 --    90 C    0.973
   115   1 H    1.006 --    92 C    0.973
   116   1 H    0.998 --    93 C    0.975
   117   6 C    3.871 --   118 C    2.430    20 C    1.195   120 C    0.185
   118   6 C    3.931 --   117 C    2.430   119 C    1.351
   119   6 C    3.888 --   120 C    2.325   118 C    1.351   122 C    0.181
   120   6 C    3.922 --   119 C    2.325   121 C    1.376   117 C    0.185
   121   6 C    3.922 --   122 C    2.325   120 C    1.376   124 C    0.185
   122   6 C    3.888 --   121 C    2.325   123 C    1.351   119 C    0.181
   123   6 C    3.931 --   124 C    2.430   122 C    1.351
   124   6 C    3.871 --   123 C    2.430    78 C    1.195   121 C    0.185
 ---------------------------------------------------------------------------

           -------------------------------------------------
          | TOTAL ENERGY             -210.412933265763 Eh   |
          | GRADIENT NORM               0.000574356386 Eh/α |
          | HOMO-LUMO GAP               0.075884225087 eV   |
           -------------------------------------------------

 * finished run on 2022/07/29 at 20:42:09.923
