   * xtb version 6.5.1 (b24c23e) compiled by 'conda@728c89f4b128' on 2022-07-12
          program call               : xtb Co_Py_C2_3.xyz --gfn 1 --opt -T 48

   ID    Z sym.   atoms
    1   27 Co     1, 55, 113
    2    6 C      2-6, 8-11, 13-17, 19-24, 26-29, 31-36, 56-60, 62-65, 67-71,
                  73-78, 80-83, 85-90, 109-112, 114-118, 120-123, 125-129,
                  131-136, 138-141, 143-148
    3    7 N      7, 12, 18, 25, 30, 37, 61, 66, 72, 79, 84, 91, 119, 124,
                  130, 137, 142, 149
    4    1 H      38-54, 92-108, 150-165

          :  Hamiltonian                  GFN1-xTB          :
 * total energy  :  -292.9610304 Eh     change        0.6978723E-08 Eh
 * total energy  :  -293.1133824 Eh     change       -0.1523520E+00 Eh
 * total energy  :  -293.2239716 Eh     change       -0.1105892E+00 Eh
 * total energy  :  -293.2904351 Eh     change       -0.6646347E-01 Eh
 * total energy  :  -293.3284504 Eh     change       -0.3801537E-01 Eh
 * total energy  :  -293.3516589 Eh     change       -0.2320850E-01 Eh
 * total energy  :  -293.3706790 Eh     change       -0.1902007E-01 Eh
 * total energy  :  -293.3859442 Eh     change       -0.1526517E-01 Eh
 * total energy  :  -293.3989348 Eh     change       -0.1299058E-01 Eh
 * total energy  :  -293.4098860 Eh     change       -0.1095121E-01 Eh
 * total energy  :  -293.4813161 Eh     change       -0.1546583E-04 Eh
 * total energy  :  -293.4813268 Eh     change       -0.1067971E-04 Eh
 * total energy  :  -293.4813358 Eh     change       -0.8992572E-05 Eh
 * total energy  :  -293.4813449 Eh     change       -0.9078473E-05 Eh
 * total energy  :  -293.4813529 Eh     change       -0.8030074E-05 Eh
 * total energy  :  -293.4813624 Eh     change       -0.9502555E-05 Eh
 * total energy  :  -293.4813751 Eh     change       -0.1270467E-04 Eh
 * total energy  :  -293.4813860 Eh     change       -0.1086559E-04 Eh
 * total energy  :  -293.4813902 Eh     change       -0.4210647E-05 Eh
   *** GEOMETRY OPTIMIZATION CONVERGED AFTER 68 ITERATIONS ***

 final structure:
================
165
 xtb: 6.5.1 (b24c23e)
Co          27.37682259093173       -0.02344109615322       -0.01470261203746
C           24.01021023305331       -0.04876046734510       -0.04493710115644
C           24.67580470082679       -1.25150783442163       -0.15203271769503
C           24.02415598256264       -2.51994685898986       -0.27825891816422
C           24.98216942292073       -3.46527483132819       -0.13330635344186
C           26.22037798030034       -2.77334877112431        0.07829864141167
N           26.02813309592776       -1.41707795285138        0.01149035976392
C           27.39682955560854       -3.38568763908475        0.48990574274858
C           27.40773411276652       -4.85234344933436        0.69911861663068
C           27.58335865259667       -5.40308864972175        1.96726057073923
C           27.58759079637227       -6.78204020029307        2.10856442621831
N           27.43514838406850       -7.61554671842168        1.08469199372560
C           27.26851603647233       -7.09745114996499       -0.12779297043744
C           27.24533305296572       -5.73274434002449       -0.36920292290820
C           28.56191064574225       -2.66666577040958        0.70976242460426
C           29.80219691286946       -3.24728821440699        1.12971503031738
C           30.74854439309451       -2.28698467397760        0.99818641437909
N           28.74398277993295       -1.34513542105078        0.37135151236699
C           30.08738104863858       -1.12540643847137        0.49207266872221
C           30.76013142665532       -0.00380861340089        0.00169392801085
C           30.07705205839142        1.11163118468109       -0.48770464854873
C           30.72232918558748        2.27202568481334       -1.01581218081855
C           29.76547495478891        3.22233751805790       -1.14956948899947
C           28.53892492012777        2.64033756240030       -0.69360028132331
N           28.73249978480436        1.32059818151349       -0.35820369001695
C           27.35898781914661        3.34471369349644       -0.50061383702449
C           27.35935211233975        4.81046085268801       -0.69565925326324
C           26.50639623083672        5.42493188639737       -1.61198709155853
C           26.54942549810507        6.80271193484746       -1.75634624620822
N           27.36837716500485        7.57978589933353       -1.05495737773248
C           28.18358898929172        7.00256203404311       -0.17793019828917
C           28.21758730161348        5.63357759301707        0.03359171158718
C           26.18109951891613        2.70828002951793       -0.12937669670657
C           24.93862574256233        3.37973953121139        0.11859957789227
C           23.99090435027185        2.41950897698597        0.23424773248017
C           24.65739835256507        1.16285378179872        0.07473730614626
N           26.00811390411074        1.34877300788669       -0.08052182210355
H           22.92665768165627       -0.05671465944455       -0.04889772661853
H           22.96534760640250       -2.64965997124091       -0.43632663668206
H           24.87079207000937       -4.53738137541954       -0.14206809918290
H           27.69993623855699       -4.76140857923141        2.83239577296705
H           27.71845457586551       -7.23594785526049        3.08651595301499
H           27.14967680913842       -7.80414008212631       -0.94391285652512
H           27.11846383798966       -5.35463753096484       -1.37657967404554
H           29.92625005490270       -4.26628644636764        1.45806545539187
H           31.80599522542747       -2.35204986709244        1.19801248942523
H           31.77520335426324        2.34056848198939       -1.23754612380985
H           29.87012288045784        4.22887417957611       -1.52056670190010
H           25.83171780798756        4.83084072465058       -2.21678136272710
H           25.89781719234903        7.30328470828887       -2.46657318850769
H           28.83929862493563        7.66366375920616        0.38114520387501
H           28.89014628223610        5.20816398543400        0.76892719357125
H           24.82008142966567        4.44884954594898        0.18835060927112
H           22.93230108369695        2.53204775245814        0.40622885758804
Co          48.98351970171763        0.05042460201547       -0.01350818921515
C           52.35624168434395        0.05707538876343       -0.05799595957169
C           51.69283455290513        1.15678310950286       -0.55849874817904
C           52.35166698900311        2.30877408065049       -1.09526994026577
C           51.39705120076672        3.24988708815908       -1.28195331358005
C           50.15421511151196        2.66894631076653       -0.86465480286074
N           50.34012832322546        1.36926653573353       -0.46847857142739
C           48.97407862638918        3.38380358639974       -0.71000453045338
C           48.97146325381387        4.83631004088511       -1.00308013857344
C           48.78068385994918        5.77677738360596        0.00772317662517
C           48.78806382262368        7.12468856162488       -0.31547766298044
N           48.96509562039475        7.57123118915626       -1.55466022626153
C           49.14526580442442        6.68005857564680       -2.52398756803959
C           49.15901876966582        5.31224709219078       -2.29953085893972
C           47.79846802602537        2.78246566864098       -0.28882552746084
C           46.55469312169570        3.47550176698032       -0.13403515826702
C           45.60335997679813        2.53136596151826        0.06043929922171
N           47.61266947723994        1.42604182875088       -0.14344529066756
C           46.26528130552039        1.26597874605262        0.01717158239201
C           45.59089261132116        0.04261912810889        0.00806218803571
C           46.27328750641060       -1.17623401276656        0.00059453418757
C           45.62362311767587       -2.44686167697609       -0.06290188902036
C           46.58179559490378       -3.38447311108705        0.13291999524942
C           47.81412563200653       -2.68045365266391        0.32294359179370
N           47.62087367871175       -1.32649781072181        0.17125176191322
C           49.00235297883186       -3.27900046819630        0.71523113333239
C           49.00872654636188       -4.72515767218845        1.02501693086398
C           49.83704366165134       -5.61094343190612        0.33629902505243
C           49.80246320496172       -6.95827300864391        0.65906441395953
N           49.01419057146834       -7.45640291995314        1.60618672870790
C           48.22301956265477       -6.61892837346057        2.26905877209009
C           48.18311488425848       -5.25713516072632        2.01530764396544
C           50.18595094541459       -2.55911524973086        0.81704832678080
C           51.43342581840707       -3.11374985065102        1.25530563654595
C           52.38099067519178       -2.17443429800674        1.02578937028451
C           51.70912732207440       -1.04279107453409        0.46307711978358
N           50.35638590270285       -1.26455179194445        0.39836870850660
H           53.43979670510868        0.06037270054850       -0.06817443190233
H           53.41227872536565        2.37596573066320       -1.27815558969145
H           51.51298792950645        4.25732553165739       -1.64725503398433
H           48.64296136791806        5.45808276117811        1.03402669848037
H           48.64525010990731        7.87736042260321        0.45435207535253
H           49.28510653398940        7.07608728021297       -3.52556257020069
H           49.29861742594544        4.62133873567979       -3.12232582635157
H           46.43326577350328        4.54487778187275       -0.19017519493706
H           44.54395335830164        2.66400539368223        0.20852148214176
H           44.56898325304134       -2.58827107204156       -0.23483868482153
H           46.47491224481729       -4.45681249449700        0.14689557957429
H           50.48591340375884       -5.25243241216412       -0.45388447491899
H           50.43508546497232       -7.66763627755522        0.13352377850071
H           47.59235722850288       -7.05549134076668        3.03797416965437
H           47.53102017278287       -4.61040027563840        2.59020111009724
H           51.55451359344903       -4.09745709109974        1.67901384924114
H           53.44255612081857       -2.22600173209064        1.20817205519698
C           32.16598490462052        0.00063613265696       -0.00219905270956
C           33.38286163309469        0.00383960357418       -0.00655162209552
C           42.96769203557913        0.03041441400296        0.00100406201725
C           44.18513160447379        0.03726368951147        0.00442009139516
Co          38.17511481619470        0.02513211697984        0.00691564781946
C           34.78791767446141       -0.00011138982203       -0.01374301870799
C           35.47088796116552       -0.70920986445900        0.97826218094764
C           34.83075907492584       -1.39466416743821        2.05508846094866
C           35.78917086677542       -2.12854266662137        2.67325222583395
C           37.00910711236768       -1.89406644802616        1.96259741951476
N           36.81192537432361       -0.96867961029136        0.96558349912863
C           38.18577408401788       -2.60678111578277        2.15494865959387
C           38.19703237355992       -3.72679018243011        3.11964446251023
C           37.32017074513178       -4.80402767098313        2.99444231800456
C           37.37005291116647       -5.82745704694767        3.92771264992840
N           38.21711771707923       -5.83343741143828        4.95187437377073
C           39.05452718931460       -4.80932768890522        5.08033019695747
C           39.08416829377115       -3.74287839817991        4.19598978815786
C           39.35464509451131       -2.28851358376725        1.47629965424891
C           40.58231074437328       -3.01532439235372        1.59248952358660
C           41.53569333388116       -2.26888143578553        0.98304001779656
N           39.54092944018411       -1.15276297958609        0.72287086478425
C           40.88540620813536       -1.09909853823395        0.48425231768576
C           41.56306878446635        0.02005830140139       -0.00942911278495
C           40.87630151237941        1.12589774976717       -0.52062318537814
C           41.51383662160328        2.30006054885120       -1.02492438144942
C           40.55976005503257        3.01463618206039       -1.67142453683117
C           39.34351976557706        2.26829087297431       -1.56416265256311
N           39.53818177116666        1.14431295339258       -0.79775904365799
C           38.17423693128872        2.56108417142653       -2.25491311501451
C           38.18112302745772        3.66437995782598       -3.23868084691326
C           39.07200951544091        3.66753711542343       -4.31197751436550
C           39.03940470969803        4.71885532193110       -5.21423421003583
N           38.19621882328511        5.74051124945456       -5.10554041295904
C           37.34695726617947        5.74790843068076       -4.08322263847106
C           37.29972560643589        4.74011163526517       -3.13302162451960
C           37.00064341433072        1.85005254857289       -2.04304777012243
C           35.77305625008339        2.08291017291118       -2.74208053060563
C           34.81580895657549        1.37388050388762       -2.09505969307551
C           35.46490466517082        0.69812663927778       -1.01695683293688
N           36.81064616864484        0.93375417454136       -1.03478448489374
H           33.78213469287844       -1.31872423634131        2.29357228826546
H           35.68823282527516       -2.77172064491383        3.53216266143213
H           36.62157349381536       -4.84874916085815        2.16749365698519
H           36.70061547013677       -6.67895847551615        3.84871440531193
H           39.73187762964015       -4.84129294799442        5.92864553037720
H           39.77450634056398       -2.92189483289698        4.34879674075759
H           40.69162103926259       -3.96827232535819        2.08389683150256
H           42.58928369503768       -2.47393697118771        0.88529127904890
H           42.56038270269475        2.52932206571864       -0.90705638764334
H           40.66125738266889        3.96054789298681       -2.17795186619353
H           39.76777821296902        2.84823750702860       -4.44830830323219
H           39.71952848936387        4.74056019268529       -6.06064960513097
H           36.67310670980801        6.59727817865411       -4.02013558304031
H           36.59965316683780        4.79614154890932       -2.30799536550897
H           35.66643188595583        2.71226935846867       -3.61041602727223
H           33.76256092205433        1.30703620045581       -2.31510535927857

          :  Hamiltonian                  GFN1-xTB          :
         :: total energy            -293.481390206003 Eh    ::
         :: gradient norm              0.000417206457 Eh/a0 ::
         :: HOMO-LUMO gap              0.012392428498 eV    ::
         :: SCC energy              -298.010316421763 Eh    ::
         :: repulsion energy           4.685296672380 Eh    ::

    * Orbital Energies and Occupations

         #    Occupation            Energy/Eh            Energy/eV
      -------------------------------------------------------------
         1        2.0000           -0.7809994             -21.2521
       ...           ...                  ...                  ...
       260        2.0000           -0.4017339             -10.9317
       261        2.0000           -0.4014366             -10.9236
       262        2.0000           -0.4014124             -10.9230
       263        2.0000           -0.3997555             -10.8779
       264        1.9999           -0.3985901             -10.8462
       265        1.9998           -0.3983880             -10.8407
       266        1.9998           -0.3982101             -10.8358
       267        1.9998           -0.3981216             -10.8334
       268        1.9998           -0.3980538             -10.8316
       269        1.9997           -0.3979402             -10.8285
       270        1.8160           -0.3916432             -10.6572
       271        1.1373           -0.3896078             -10.6018
       272        1.1322           -0.3895969             -10.6015 (HOMO)
       273        0.9158           -0.3891415             -10.5891 (LUMO)
       274                         -0.3498975              -9.5212
       275                         -0.3385316              -9.2119
       276                         -0.3381005              -9.2002
       277                         -0.3355960              -9.1320
       278                         -0.3354288              -9.1275
       279                         -0.3281543              -8.9295
       280                         -0.3101874              -8.4406
       281                         -0.3017013              -8.2097
       282                         -0.3002876              -8.1712
       283                         -0.2996711              -8.1545
       ...                                ...                  ...
       575                          1.3340813              36.3022
      -------------------------------------------------------------
                  HL-Gap            0.0004554 Eh            0.0124 eV

Wiberg/Mayer (AO) data.
largest (>0.10) Wiberg bond orders for each atom

     #   Z sym  total        # sym  WBO       # sym  WBO       # sym  WBO
 ---------------------------------------------------------------------------
     1  27 Co   3.045 --     7 N    0.639    37 N    0.639    18 N    0.634
                            25 N    0.633
     2   6 C    3.927 --     3 C    1.365    36 C    1.365    38 H    0.970
     3   6 C    3.924 --     2 C    1.365     7 N    1.200     4 C    1.173
     4   6 C    3.960 --     5 C    1.651     3 C    1.173    39 H    0.975
     5   6 C    3.963 --     4 C    1.651     6 C    1.175    40 H    0.973
     6   6 C    3.920 --     8 C    1.320     7 N    1.212     5 C    1.175
     7   7 N    3.346 --     6 C    1.212     3 C    1.200     1 Co   0.639
     8   6 C    3.930 --    15 C    1.334     6 C    1.320     9 C    1.022
     9   6 C    3.986 --    10 C    1.395    14 C    1.395     8 C    1.022
                            12 N    0.107
    10   6 C    3.988 --    11 C    1.441     9 C    1.395    41 H    0.973
                            13 C    0.109
    11   6 C    3.972 --    10 C    1.441    12 N    1.416    42 H    0.972
                            14 C    0.109
    12   7 N    3.031 --    11 C    1.416    13 C    1.416     9 C    0.107
    13   6 C    3.972 --    14 C    1.441    12 N    1.416    43 H    0.972
                            10 C    0.109
    14   6 C    3.987 --    13 C    1.441     9 C    1.395    44 H    0.973
                            11 C    0.109
    15   6 C    3.917 --     8 C    1.334    18 N    1.193    16 C    1.180
    16   6 C    3.959 --    17 C    1.640    15 C    1.180    45 H    0.973
    17   6 C    3.962 --    16 C    1.640    19 C    1.187    46 H    0.972
    18   7 N    3.346 --    19 C    1.230    15 C    1.193     1 Co   0.634
    19   6 C    3.909 --    20 C    1.264    18 N    1.230    17 C    1.187
    20   6 C    3.932 --    21 C    1.264    19 C    1.264   109 C    1.178
    21   6 C    3.909 --    20 C    1.264    25 N    1.228    22 C    1.189
    22   6 C    3.960 --    23 C    1.637    21 C    1.189    47 H    0.972
    23   6 C    3.959 --    22 C    1.637    24 C    1.181    48 H    0.973
    24   6 C    3.918 --    26 C    1.328    25 N    1.195    23 C    1.181
    25   7 N    3.346 --    21 C    1.228    24 C    1.195     1 Co   0.633
    26   6 C    3.931 --    24 C    1.328    33 C    1.317    27 C    1.034
    27   6 C    3.986 --    28 C    1.391    32 C    1.390    26 C    1.034
                            30 N    0.106
    28   6 C    3.985 --    29 C    1.442    27 C    1.391    49 H    0.972
                            31 C    0.108
    29   6 C    3.972 --    28 C    1.442    30 N    1.416    50 H    0.972
                            32 C    0.108
    30   7 N    3.029 --    29 C    1.416    31 C    1.415    27 C    0.106
    31   6 C    3.972 --    32 C    1.443    30 N    1.415    51 H    0.972
                            28 C    0.108
    32   6 C    3.985 --    31 C    1.443    27 C    1.390    52 H    0.972
                            29 C    0.108
    33   6 C    3.921 --    26 C    1.317    37 N    1.212    34 C    1.176
    34   6 C    3.963 --    35 C    1.649    33 C    1.176    53 H    0.973
    35   6 C    3.958 --    34 C    1.649    36 C    1.174    54 H    0.975
    36   6 C    3.924 --     2 C    1.365    37 N    1.200    35 C    1.174
    37   7 N    3.345 --    33 C    1.212    36 C    1.200     1 Co   0.639
    38   1 H    1.000 --     2 C    0.970
    39   1 H    0.997 --     4 C    0.975
    40   1 H    1.004 --     5 C    0.973
    41   1 H    1.003 --    10 C    0.973
    42   1 H    1.013 --    11 C    0.972
    43   1 H    1.013 --    13 C    0.972
    44   1 H    1.003 --    14 C    0.973
    45   1 H    1.004 --    16 C    0.973
    46   1 H    1.003 --    17 C    0.972
    47   1 H    1.003 --    22 C    0.972
    48   1 H    1.004 --    23 C    0.973
    49   1 H    1.004 --    28 C    0.972
    50   1 H    1.013 --    29 C    0.972
    51   1 H    1.013 --    31 C    0.972
    52   1 H    1.004 --    32 C    0.972
    53   1 H    1.004 --    34 C    0.973
    54   1 H    0.997 --    35 C    0.975
    55  27 Co   3.026 --    91 N    0.636    61 N    0.636    72 N    0.631
                            79 N    0.631
    56   6 C    3.926 --    57 C    1.365    90 C    1.365    92 H    0.970
    57   6 C    3.924 --    56 C    1.365    61 N    1.201    58 C    1.173
    58   6 C    3.960 --    59 C    1.651    57 C    1.173    93 H    0.975
    59   6 C    3.963 --    58 C    1.651    60 C    1.175    94 H    0.973
    60   6 C    3.920 --    62 C    1.319    61 N    1.213    59 C    1.175
    61   7 N    3.345 --    60 C    1.213    57 C    1.201    55 Co   0.636
    62   6 C    3.929 --    69 C    1.335    60 C    1.319    63 C    1.022
    63   6 C    3.986 --    68 C    1.395    64 C    1.395    62 C    1.022
                            66 N    0.107
    64   6 C    3.987 --    65 C    1.441    63 C    1.395    95 H    0.973
                            67 C    0.109
    65   6 C    3.972 --    64 C    1.441    66 N    1.416    96 H    0.972
                            68 C    0.109
    66   7 N    3.031 --    67 C    1.416    65 C    1.416    63 C    0.107
    67   6 C    3.972 --    68 C    1.441    66 N    1.416    97 H    0.972
                            64 C    0.109
    68   6 C    3.987 --    67 C    1.441    63 C    1.395    98 H    0.973
                            65 C    0.109
    69   6 C    3.918 --    62 C    1.335    72 N    1.192    70 C    1.180
    70   6 C    3.958 --    71 C    1.639    69 C    1.180    99 H    0.973
    71   6 C    3.962 --    70 C    1.639    73 C    1.188   100 H    0.970
    72   7 N    3.345 --    73 C    1.233    69 C    1.192    55 Co   0.631
    73   6 C    3.908 --    74 C    1.262    72 N    1.233    71 C    1.188
    74   6 C    3.930 --    75 C    1.262    73 C    1.262   112 C    1.182
    75   6 C    3.908 --    74 C    1.262    79 N    1.231    76 C    1.190
    76   6 C    3.962 --    77 C    1.636    75 C    1.190   101 H    0.970
    77   6 C    3.958 --    76 C    1.636    78 C    1.181   102 H    0.973
    78   6 C    3.918 --    80 C    1.330    79 N    1.195    77 C    1.181
    79   7 N    3.344 --    75 C    1.231    78 C    1.195    55 Co   0.631
    80   6 C    3.930 --    78 C    1.330    87 C    1.316    81 C    1.033
    81   6 C    3.986 --    82 C    1.391    86 C    1.391    80 C    1.033
                            84 N    0.106
    82   6 C    3.986 --    83 C    1.442    81 C    1.391   103 H    0.972
                            85 C    0.108
    83   6 C    3.972 --    82 C    1.442    84 N    1.415   104 H    0.972
                            86 C    0.108
    84   7 N    3.029 --    83 C    1.415    85 C    1.415    81 C    0.106
    85   6 C    3.972 --    86 C    1.442    84 N    1.415   105 H    0.972
                            82 C    0.108
    86   6 C    3.985 --    85 C    1.442    81 C    1.391   106 H    0.973
                            83 C    0.108
    87   6 C    3.921 --    80 C    1.316    91 N    1.214    88 C    1.176
    88   6 C    3.963 --    89 C    1.649    87 C    1.176   107 H    0.973
    89   6 C    3.958 --    88 C    1.649    90 C    1.174   108 H    0.975
    90   6 C    3.924 --    56 C    1.365    91 N    1.201    89 C    1.174
    91   7 N    3.344 --    87 C    1.214    90 C    1.201    55 Co   0.636
    92   1 H    1.000 --    56 C    0.970
    93   1 H    0.997 --    58 C    0.975
    94   1 H    1.004 --    59 C    0.973
    95   1 H    1.003 --    64 C    0.973
    96   1 H    1.013 --    65 C    0.972
    97   1 H    1.013 --    67 C    0.972
    98   1 H    1.003 --    68 C    0.973
    99   1 H    1.004 --    70 C    0.973
   100   1 H    1.004 --    71 C    0.970
   101   1 H    1.004 --    76 C    0.970
   102   1 H    1.004 --    77 C    0.973
   103   1 H    1.004 --    82 C    0.972
   104   1 H    1.013 --    83 C    0.972
   105   1 H    1.013 --    85 C    0.972
   106   1 H    1.004 --    86 C    0.973
   107   1 H    1.004 --    88 C    0.973
   108   1 H    0.997 --    89 C    0.975
   109   6 C    3.921 --   110 C    2.566    20 C    1.178
   110   6 C    3.931 --   109 C    2.566   114 C    1.182
   111   6 C    3.931 --   112 C    2.564   132 C    1.186
   112   6 C    3.922 --   111 C    2.564    74 C    1.182
   113  27 Co   3.078 --   130 N    0.635   149 N    0.634   137 N    0.628
                           119 N    0.627
   114   6 C    3.921 --   148 C    1.261   115 C    1.259   110 C    1.182
   115   6 C    3.911 --   114 C    1.259   119 N    1.231   116 C    1.193
   116   6 C    3.960 --   117 C    1.631   115 C    1.193   150 H    0.972
   117   6 C    3.960 --   116 C    1.631   118 C    1.186   151 H    0.973
   118   6 C    3.917 --   120 C    1.318   119 N    1.199   117 C    1.186
   119   7 N    3.339 --   115 C    1.231   118 C    1.199   113 Co   0.627
   120   6 C    3.927 --   127 C    1.323   118 C    1.318   121 C    1.035
   121   6 C    3.986 --   122 C    1.390   126 C    1.389   120 C    1.035
                           124 N    0.106
   122   6 C    3.984 --   123 C    1.442   121 C    1.390   152 H    0.972
                           125 C    0.108
   123   6 C    3.972 --   122 C    1.442   124 N    1.416   153 H    0.972
                           126 C    0.108
   124   7 N    3.029 --   123 C    1.416   125 C    1.415   121 C    0.106
   125   6 C    3.972 --   126 C    1.443   124 N    1.415   154 H    0.972
                           122 C    0.108
   126   6 C    3.984 --   125 C    1.443   121 C    1.389   155 H    0.972
                           123 C    0.108
   127   6 C    3.917 --   120 C    1.323   130 N    1.196   128 C    1.184
   128   6 C    3.960 --   129 C    1.633   127 C    1.184   156 H    0.973
   129   6 C    3.960 --   128 C    1.633   131 C    1.192   157 H    0.970
   130   7 N    3.339 --   131 C    1.232   127 C    1.196   113 Co   0.635
   131   6 C    3.910 --   132 C    1.258   130 N    1.232   129 C    1.192
   132   6 C    3.922 --   131 C    1.258   133 C    1.257   111 C    1.186
   133   6 C    3.910 --   132 C    1.257   137 N    1.230   134 C    1.193
   134   6 C    3.960 --   135 C    1.631   133 C    1.193   158 H    0.970
   135   6 C    3.960 --   134 C    1.631   136 C    1.186   159 H    0.973
   136   6 C    3.916 --   138 C    1.318   137 N    1.199   135 C    1.186
   137   7 N    3.340 --   133 C    1.230   136 C    1.199   113 Co   0.628
   138   6 C    3.927 --   145 C    1.323   136 C    1.318   139 C    1.035
   139   6 C    3.986 --   144 C    1.390   140 C    1.390   138 C    1.035
                           142 N    0.106
   140   6 C    3.984 --   141 C    1.442   139 C    1.390   160 H    0.972
                           143 C    0.108
   141   6 C    3.972 --   140 C    1.442   142 N    1.415   161 H    0.972
                           144 C    0.108
   142   7 N    3.029 --   143 C    1.416   141 C    1.415   139 C    0.106
   143   6 C    3.972 --   144 C    1.442   142 N    1.416   162 H    0.972
                           140 C    0.108
   144   6 C    3.984 --   143 C    1.442   139 C    1.390   163 H    0.972
                           141 C    0.108
   145   6 C    3.917 --   138 C    1.323   149 N    1.197   146 C    1.183
   146   6 C    3.960 --   147 C    1.634   145 C    1.183   164 H    0.973
   147   6 C    3.960 --   146 C    1.634   148 C    1.191   165 H    0.972
   148   6 C    3.911 --   114 C    1.261   149 N    1.232   147 C    1.191
   149   7 N    3.338 --   148 C    1.232   145 C    1.197   113 Co   0.634
   150   1 H    1.003 --   116 C    0.972
   151   1 H    1.003 --   117 C    0.973
   152   1 H    1.004 --   122 C    0.972
   153   1 H    1.013 --   123 C    0.972
   154   1 H    1.013 --   125 C    0.972
   155   1 H    1.004 --   126 C    0.972
   156   1 H    1.003 --   128 C    0.973
   157   1 H    1.004 --   129 C    0.970
   158   1 H    1.004 --   134 C    0.970
   159   1 H    1.003 --   135 C    0.973
   160   1 H    1.004 --   140 C    0.972
   161   1 H    1.013 --   141 C    0.972
   162   1 H    1.013 --   143 C    0.972
   163   1 H    1.004 --   144 C    0.972
   164   1 H    1.003 --   146 C    0.973
   165   1 H    1.003 --   147 C    0.972
 ---------------------------------------------------------------------------

           -------------------------------------------------
          | TOTAL ENERGY             -293.481390206003 Eh   |
          | GRADIENT NORM               0.000417206457 Eh/α |
          | HOMO-LUMO GAP               0.012392428498 eV   |
           -------------------------------------------------

 * finished run on 2022/07/29 at 22:28:30.325
