   * xtb version 6.5.1 (b24c23e) compiled by 'conda@728c89f4b128' on 2022-07-12
          program call               : xtb Fe_Ph2OMe_C4_3.xyz --gfn 1 --opt -T 48

   ID    Z sym.   atoms
    1   26 Fe     1, 73, 153
    2    6 C      2-6, 8-11, 13-21, 23-27, 29-33, 36, 37, 39-43, 45, 74-78,
                  80-83, 85-93, 95-99, 101-105, 108, 109, 111-115, 117,
                  145-152, 154-158, 160-163, 165-173, 175-179, 181-185, 188,
                  189, 191-195, 197
    3    7 N      7, 12, 34, 35, 79, 84, 106, 107, 159, 164, 186, 187
    4    8 O      22, 28, 38, 44, 94, 100, 110, 116, 174, 180, 190, 196
    5    1 H      46-72, 118-144, 198-223

          :  Hamiltonian                  GFN1-xTB          :
 * total energy  :  -391.1477852 Eh     change       -0.6448943E-08 Eh
 * total energy  :  -391.3551081 Eh     change       -0.2073229E+00 Eh
 * total energy  :  -391.4255517 Eh     change       -0.7044361E-01 Eh
 * total energy  :  -391.4735531 Eh     change       -0.4800145E-01 Eh
 * total energy  :  -391.4976920 Eh     change       -0.2413888E-01 Eh
 * total energy  :  -391.5152843 Eh     change       -0.1759229E-01 Eh
 * total energy  :  -391.5279951 Eh     change       -0.1271075E-01 Eh
 * total energy  :  -391.5409352 Eh     change       -0.1294012E-01 Eh
 * total energy  :  -391.5596984 Eh     change       -0.1876326E-01 Eh
 * total energy  :  -391.5814360 Eh     change       -0.2173755E-01 Eh
 * total energy  :  -391.9440669 Eh     change       -0.1437187E-04 Eh
 * total energy  :  -391.9440816 Eh     change       -0.1468399E-04 Eh
 * total energy  :  -391.9440972 Eh     change       -0.1557827E-04 Eh
 * total energy  :  -391.9441144 Eh     change       -0.1724414E-04 Eh
 * total energy  :  -391.9441344 Eh     change       -0.1997572E-04 Eh
 * total energy  :  -391.9441570 Eh     change       -0.2253894E-04 Eh
 * total energy  :  -391.9441623 Eh     change       -0.5342366E-05 Eh
 * total energy  :  -391.9441730 Eh     change       -0.1066240E-04 Eh
 * total energy  :  -391.9441777 Eh     change       -0.4733825E-05 Eh
   *** GEOMETRY OPTIMIZATION CONVERGED AFTER 154 ITERATIONS ***

 final structure:
================
223
 xtb: 6.5.1 (b24c23e)
Fe          31.21066211626178        0.20511964934280       -0.13650598689980
C           27.86572249479119        0.60478345388180       -0.44038545205877
C           28.51975540175559        1.35274659563227        0.51708664401701
C           27.85574587020047        2.27172530776953        1.39247986559899
C           28.78514205965822        2.70533043440751        2.27614389414925
C           30.02200033766876        2.07122848450769        1.92333520344695
N           29.84697936018653        1.25120546800386        0.84228651417165
C           31.21364986926355        2.24771269990493        2.61725116688095
C           32.41181608009769        1.68126944550298        2.21106950805325
C           33.66987324111044        1.93841228866542        2.84676731707747
C           34.62248796342249        1.35698127664995        2.07926772943834
N           32.59618110744912        0.91304362396231        1.08568370824063
C           33.94294158137701        0.73159294876011        0.98740443248389
C           34.60712882564786        0.05611495297225       -0.04397284012673
C           33.93469761973360       -0.64948130852774       -1.04916579632048
C           34.60880270641223       -1.44944754122754       -2.02472928741016
C           33.64876828846777       -2.11445331835426       -2.71095340982213
C           32.38921232868805       -1.69367445309973       -2.17424353026853
C           31.16121092045944       -2.16274974402351       -2.61426182921807
C           31.12950839205839       -3.22095148086778       -3.66167714865580
C           31.48882069881147       -2.93052133017493       -4.98397997244890
O           31.85328569284832       -1.64477420944184       -5.23121035068577
C           32.22901292817645       -1.24435803877345       -6.53336622363571
C           31.45038052792057       -3.92684128385017       -5.95909132433376
C           31.05686884567886       -5.20892433959694       -5.60640899443656
C           30.69621582050338       -5.51926383534354       -4.30386662312788
C           30.72843419452595       -4.52168564233449       -3.32992758050078
O           30.39602090184788       -4.72443238107162       -2.02827397911295
C           29.98373453000684       -6.00107274473691       -1.58429599341536
C           29.95187094393289       -1.65674805291438       -2.15365021057446
C           28.67621300495722       -2.02828169306890       -2.69360177124886
C           27.75708552998292       -1.21426004243250       -2.12284730086240
C           28.46923746361450       -0.36295897682905       -1.21769683127528
N           29.80732892250272       -0.65443754149305       -1.23323819151582
N           32.58322550588998       -0.78832419537657       -1.15830891935042
C           31.21659284321198        3.12171593164201        3.82257421869692
C           31.39988869186021        2.56752575830727        5.09625872142969
O           31.55339205028537        1.21815613492838        5.13880428736137
C           31.76362202829024        0.55942839660510        6.37125094975840
C           31.40713089525678        3.38469718128070        6.22630407340588
C           31.23908382920670        4.75303393005952        6.07700337811013
C           31.06155399184821        5.32448934888157        4.82607364456700
C           31.04821582467154        4.50703172588931        3.69640972304385
O           30.88925016717363        4.97273748384096        2.42954871324896
C           30.71482457026302        6.35446310702641        2.18967637280178
H           26.79844752064173        0.75633128482762       -0.55876815284090
H           26.80866091511849        2.52427581505250        1.33363775301048
H           28.65865526609310        3.39442535756973        3.09521042651798
H           33.79703490639556        2.50735758604719        3.75334179021405
H           35.69064708839830        1.34241780681916        2.22605980060388
H           35.67953663433019       -1.50200387383121       -2.14084565693496
H           33.77056763303031       -2.82217821943880       -3.51457106248472
H           31.40751020275591       -1.37849926019266       -7.24757738007928
H           32.47523465120582       -0.18310420270490       -6.46540837023962
H           33.10902600681307       -1.79630180338480       -6.88536960436184
H           31.72249244344254       -3.71274945577878       -6.98397844713200
H           31.02965421926633       -5.98396598794794       -6.36452429745120
H           30.39354798740090       -6.52814187608394       -4.05728422687925
H           29.77462028826798       -5.89863936882250       -0.51786130967201
H           29.07349092353272       -6.33121573864883       -2.09957563197732
H           30.77238478211459       -6.74994751355833       -1.72639260709803
H           28.52212113674906       -2.80139808633062       -3.42904637565821
H           26.69082971167590       -1.18119542474253       -2.28304400783505
H           31.87152015585042       -0.50060451853739        6.13428357374273
H           30.91122690261835        0.69210101714814        7.04859313444100
H           32.67709959792997        0.91300672872036        6.86471654963489
H           31.54273033438589        2.96610051493488        7.21453658172809
H           31.24768272218388        5.38881530762769        6.95554160745143
H           30.93642428525257        6.39546443888661        4.73886401492884
H           31.58438053116767        6.93320974146932        2.52395662936585
H           30.60554436276647        6.46334079409247        1.10907017547061
H           29.81312369436071        6.73739572066917        2.68297648442030
Fe          58.02951692324558        0.13057216651500       -0.12750419677924
C           61.38609820052861        0.46971886540395       -0.35987049784730
C           60.77215253490645       -0.43268046566822       -1.20560373125526
C           61.47713019665186       -1.25704211841853       -2.14082121690051
C           60.54177699999106       -1.97323853757667       -2.80851972880465
C           59.26482578437859       -1.56266132905541       -2.30156917665606
N           59.42332989961678       -0.65224745825374       -1.29153337932784
C           58.04727137452473       -1.96080350638720       -2.84074689132022
C           56.82930216673156       -1.49183684154067       -2.37158842248923
C           55.57098483923625       -1.76648781551511       -2.99827508077062
C           54.61901636646535       -1.16264686029322       -2.24667650954959
N           56.64459680828306       -0.71353949660695       -1.25479828655150
C           55.29718348795379       -0.53693236309705       -1.15394839134408
C           54.63014199876405        0.04649343252415       -0.06885575514943
C           55.30338982252692        0.57583359389367        1.04085061941513
C           54.63605612106608        1.04242827457671        2.21628868570732
C           55.59597395704600        1.52720970121268        3.04026923276457
C           56.84414231468537        1.38285881334367        2.35189287709105
C           58.04564631623919        1.90711311745142        2.80187467458507
C           58.06738585983396        2.65956730408195        4.08538312389077
C           57.39674296626419        3.88462552798756        4.20702750899910
O           56.75154653679221        4.32301644303161        3.09471045732611
C           56.02239906529319        5.53364139764486        3.11754851349283
C           57.42812191660369        4.58934679153175        5.41000056985620
C           58.12592961305567        4.06600951937573        6.48780481610455
C           58.79731772936514        2.85660160261616        6.39138228831293
C           58.77180497227741        2.15414822500752        5.18705735659117
O           59.39261613907446        0.96050178610635        4.99787688887438
C           60.15330213061271        0.37550683121866        6.03539395966269
C           59.23189863163421        1.79386724915502        2.08327795422653
C           60.46040821030866        2.43199360908433        2.45674665623717
C           61.39029628462782        2.05622058811361        1.54689829954461
C           60.73116107643894        1.17964472967795        0.62554873256750
N           59.40394068529655        1.05613194607570        0.94534504444601
N           56.64947414853140        0.75156269345267        1.14493326962286
C           58.04399396785976       -2.89532765919675       -3.99896616082213
C           57.54452741491298       -4.19657869610865       -3.84993185545861
O           57.10010406554016       -4.52235184944701       -2.60828978905763
C           56.56932760642851       -5.80617872047653       -2.34976693620886
C           57.53419748834789       -5.07633554602445       -4.93176364892633
C           58.01590810223934       -4.64931447323397       -6.15996511668239
C           58.50878821562334       -3.36485116437456       -6.33290131721714
C           58.52416600872802       -2.48601046029271       -5.25019394426722
O           58.97478012150249       -1.20606288234975       -5.32442298215876
C           59.47237890304861       -0.69066930344282       -6.54253452603845
H           62.45886896245413        0.60017088699555       -0.45053311121404
H           62.54995377857897       -1.27625589479266       -2.25194742116132
H           60.68803219391031       -2.70361996601552       -3.58773702669638
H           55.44586505114980       -2.34238581213198       -3.90092356309384
H           53.55129313996542       -1.14654263192342       -2.39635709188471
H           53.57103658438459        0.99201931008618        2.37750354674289
H           55.47950889208541        1.96101097114035        4.02000177940213
H           56.67389716970791        6.39152118611374        3.32359975023362
H           55.58755561559899        5.64440497300515        2.12251256119651
H           55.21693015486739        5.50295109831342        3.86127068939674
H           56.91751646640984        5.53756103680544        5.51184299992116
H           58.14800024569508        4.61356082003121        7.42365225976638
H           59.33292033485811        2.47127231734754        7.24861816873678
H           60.55956839345512       -0.55201472192324        5.62781153179727
H           60.98063647890971        1.02675476621098        6.34262827443006
H           59.53135818049286        0.14329251167683        6.90844283544346
H           60.58075697135026        3.08357985960229        3.30719026677873
H           62.43336789887488        2.32630163352198        1.49505819036253
H           56.28322516380545       -5.80962749046737       -1.29635509803212
H           57.31463491915416       -6.59196799098014       -2.52306712826435
H           55.68294074333519       -6.00567111864850       -2.96422208115746
H           57.15510565277376       -6.08391556565939       -4.82553182729167
H           58.00588727546545       -5.33279355174107       -7.00191748102807
H           58.87437270360073       -3.05749405501020       -7.30352917700093
H           58.70436163156761       -0.69803180152606       -7.32549506437760
H           59.76608664612149        0.34059883873868       -6.33822833472054
H           60.34833622476225       -1.25264189487929       -6.88873167533193
C           37.23274936414236        0.05008570759589       -0.03923628454877
C           36.00909993008275        0.04749281864223       -0.04152392214658
C           38.57992837456267        0.04975173299736       -0.03772073296327
C           39.80381264181339        0.05037545759145       -0.03457340685108
C           50.66048847375851        0.07121738645537       -0.08798141402973
C           49.43592565526893        0.06682216321823       -0.09169049259882
C           52.00605953737561        0.06755898291662       -0.08231288933157
C           53.23038114619374        0.05710082518770       -0.07193599928878
Fe          44.62071470013275        0.03853697097141       -0.06146311055776
C           41.20501428823547        0.04618934414514       -0.04090501357639
C           41.88204209507060        0.05303047041658        1.18533634124929
C           41.21461580242511        0.01867136420491        2.44885738230929
C           42.17786114379583        0.11250499566491        3.39751588018487
C           43.42760390237949        0.21683925440800        2.70722432078813
N           43.23160889455381        0.14249661032903        1.34962371776480
C           44.64452665282487        0.43634705988375        3.33781837288099
C           45.84941027888222        0.52379097258838        2.65418755951295
C           47.10337252900291        0.81493322364613        3.27995784792859
C           48.05194185456872        0.71923849277559        2.31652954799970
N           46.02746363390919        0.29065453594108        1.31256389272955
C           47.37182285247992        0.37198754450154        1.10839225425185
C           48.03669954374615        0.05848096692480       -0.08502400089980
C           47.35936066518796       -0.27270163941086       -1.26634498958225
C           48.02686729584354       -0.62856280318230       -2.47902603993615
C           47.06542554788543       -0.75952842039649       -3.42526363398461
C           45.81637218723675       -0.47532551919244       -2.78625867168941
C           44.60188377974780       -0.40582099822854       -3.45489477491578
C           44.59480663629375       -0.58364625668627       -4.93217530114239
C           43.98989041463690       -1.70806388482467       -5.51044690068152
O           43.44526721361066       -2.60109030211503       -4.64369725968715
C           42.78836748977789       -3.75703015644714       -5.12299573931513
C           43.98257892608842       -1.87022806697674       -6.89543138842085
C           44.57417854131734       -0.90543160872944       -7.69664333883990
C           45.17627329936486        0.21637570044643       -7.14740654186796
C           45.18960785991717        0.37685965220030       -5.76227546952009
O           45.74414615361623        1.44446841078586       -5.13213322940301
C           46.37520404999103        2.46852959130832       -5.87427641264833
C           43.39366270599221       -0.17116142206715       -2.81212332366220
C           42.13709618053596       -0.06073346532503       -3.48906458386781
C           41.18635176512053        0.05793068930194       -2.53074289082020
C           41.86778412703381        0.02906322841800       -1.27462293370581
N           43.21460103342420       -0.07767774574838       -1.45378688930487
N           46.01072568025776       -0.21706373851712       -1.45118304151381
C           44.66125137676472        0.58761033593139        4.81830143081514
C           45.25220822739571       -0.39852024010076        5.62029851294381
O           45.77495041172009       -1.46460911148265        4.96111938226151
C           46.40037770010979       -2.51287739383308        5.67371461316172
C           45.26771256387716       -0.26170395670857        7.00798625024156
C           44.69902037465602        0.86259445807338        7.58696319158765
C           44.11206671072147        1.85251930799595        6.81342277303167
C           44.09003011250121        1.71379928780939        5.42598012208628
O           43.54715374022818        2.63128729902121        4.58413955420986
C           42.94450544601411        3.80375371082981        5.09372797142830
H           40.14740594137078       -0.06656675222747        2.57682568352209
H           42.06331030675449        0.11994673187809        4.46919144229834
H           47.23034181354690        1.05624600212048        4.32278508482341
H           49.11740712209721        0.86055674116657        2.40256757002317
H           49.09320324699442       -0.75365283658637       -2.57861093224030
H           47.18074171449639       -1.01802240802466       -4.46527304947169
H           41.93424581319501       -3.49792918129029       -5.76033926609735
H           42.42873676326311       -4.28930189735150       -4.24051331922585
H           43.47346626436484       -4.40653384563515       -5.68119754055802
H           43.52218719738423       -2.73657414511963       -7.35109603315274
H           44.56565341773303       -1.03062047225215       -8.77382329160110
H           45.62799007588568        0.95434106437548       -7.79664150585980
H           46.74078443455428        3.19156936707160       -5.14286610557154
H           45.67081200320975        2.96602505160107       -6.55184632651898
H           47.22273275326683        2.08121121496488       -6.45259394827611
H           42.00935941887813       -0.07929381121794       -4.55908824437478
H           40.11893871054398        0.15509605757296       -2.64791817501827
H           45.69930372613492       -3.00927226873658        6.35554128759294
H           46.73913596007659       -3.22958742129722        4.92340450407832
H           47.26524560036406       -2.15120570647505        6.24287770238918
H           45.71669624932771       -1.01923639472531        7.63624681719199
H           44.71361623186414        0.96985156059423        8.66602819028877
H           43.67811905913194        2.71995556964382        7.29236172056970
H           43.66580982728464        4.41886992614773        5.64527516788835
H           42.09538780747536        3.56764953576589        5.74648108180807
H           42.58604071000173        4.36187786005546        4.22689051727657

          :  Hamiltonian                  GFN1-xTB          :
         :: total energy            -391.944177708994 Eh    ::
         :: gradient norm              0.000700664215 Eh/a0 ::
         :: HOMO-LUMO gap              0.054376120053 eV    ::
         :: SCC energy              -397.445128189407 Eh    ::
         :: repulsion energy           5.699872217581 Eh    ::

    * Orbital Energies and Occupations

         #    Occupation            Energy/Eh            Energy/eV
      -------------------------------------------------------------
         1        2.0000           -0.8067182             -21.9519
       ...           ...                  ...                  ...
       338        2.0000           -0.3802674             -10.3476
       339        2.0000           -0.3798726             -10.3369
       340        1.9998           -0.3750777             -10.2064
       341        1.9935           -0.3718978             -10.1199
       342        1.9925           -0.3717650             -10.1162
       343        1.9854           -0.3711306             -10.0990
       344        1.9687           -0.3703981             -10.0790
       345        1.9585           -0.3701236             -10.0716
       346        1.9577           -0.3701055             -10.0711
       347        1.9568           -0.3700858             -10.0705
       348        1.9557           -0.3700605             -10.0699
       349        1.9531           -0.3700050             -10.0683
       350        1.2957           -0.3670415              -9.9877 (HOMO)
       351        0.3667           -0.3650432              -9.9333 (LUMO)
       352        0.3273           -0.3649127              -9.9298
       353        0.2886           -0.3647714              -9.9259
       354                         -0.3278414              -8.9210
       355                         -0.3169035              -8.6234
       356                         -0.3128266              -8.5124
       357                         -0.3109455              -8.4613
       358                         -0.3101788              -8.4404
       359                         -0.3092334              -8.4147
       360                         -0.2881178              -7.8401
       361                         -0.2850791              -7.7574
       ...                                ...                  ...
       747                          1.5234980              41.4565
      -------------------------------------------------------------
                  HL-Gap            0.0019983 Eh            0.0544 eV

Wiberg/Mayer (AO) data.
largest (>0.10) Wiberg bond orders for each atom

     #   Z sym  total        # sym  WBO       # sym  WBO       # sym  WBO
 ---------------------------------------------------------------------------
     1  26 Fe   3.131 --    34 N    0.668     7 N    0.665    12 N    0.662
                            35 N    0.659
     2   6 C    3.921 --     3 C    1.364    33 C    1.361    46 H    0.971
     3   6 C    3.927 --     2 C    1.364     7 N    1.210     4 C    1.172
     4   6 C    3.959 --     5 C    1.651     3 C    1.172    47 H    0.975
     5   6 C    3.962 --     4 C    1.651     6 C    1.176    48 H    0.974
     6   6 C    3.919 --     8 C    1.315     7 N    1.225     5 C    1.176
     7   7 N    3.380 --     6 C    1.225     3 C    1.210     1 Fe   0.665
     8   6 C    3.923 --     9 C    1.342     6 C    1.315    36 C    1.015
     9   6 C    3.917 --     8 C    1.342    12 N    1.197    10 C    1.178
    10   6 C    3.958 --    11 C    1.641     9 C    1.178    49 H    0.974
    11   6 C    3.961 --    10 C    1.641    13 C    1.186    50 H    0.974
    12   7 N    3.380 --    13 C    1.249     9 C    1.197     1 Fe   0.662
    13   6 C    3.907 --    14 C    1.251    12 N    1.249    11 C    1.186
    14   6 C    3.921 --    15 C    1.253    13 C    1.251   146 C    1.199
    15   6 C    3.907 --    14 C    1.253    35 N    1.246    16 C    1.185
    16   6 C    3.961 --    17 C    1.641    15 C    1.185    51 H    0.974
    17   6 C    3.959 --    16 C    1.641    18 C    1.179    52 H    0.974
    18   6 C    3.917 --    19 C    1.339    35 N    1.199    17 C    1.179
    19   6 C    3.923 --    18 C    1.339    30 C    1.319    20 C    1.013
    20   6 C    3.977 --    21 C    1.344    27 C    1.343    19 C    1.013
                            25 C    0.101
    21   6 C    3.903 --    24 C    1.361    20 C    1.344    22 O    1.031
    22   8 O    2.146 --    21 C    1.031    23 C    0.935
    23   6 C    3.907 --    54 H    0.983    55 H    0.980    53 H    0.980
                            22 O    0.935
    24   6 C    3.983 --    25 C    1.442    21 C    1.361    56 H    0.969
    25   6 C    3.993 --    26 C    1.442    24 C    1.442    57 H    0.974
                            20 C    0.101
    26   6 C    3.983 --    25 C    1.442    27 C    1.361    58 H    0.969
    27   6 C    3.903 --    26 C    1.361    20 C    1.343    28 O    1.033
    28   8 O    2.146 --    27 C    1.033    29 C    0.935
    29   6 C    3.907 --    59 H    0.983    60 H    0.980    61 H    0.980
                            28 O    0.935
    30   6 C    3.919 --    19 C    1.319    34 N    1.223    31 C    1.175
    31   6 C    3.962 --    32 C    1.650    30 C    1.175    62 H    0.974
    32   6 C    3.959 --    31 C    1.650    33 C    1.173    63 H    0.975
    33   6 C    3.926 --     2 C    1.361    34 N    1.212    32 C    1.173
    34   7 N    3.381 --    30 C    1.223    33 C    1.212     1 Fe   0.668
    35   7 N    3.379 --    15 C    1.246    18 C    1.199     1 Fe   0.659
    36   6 C    3.977 --    37 C    1.342    43 C    1.342     8 C    1.015
                            41 C    0.101
    37   6 C    3.903 --    40 C    1.361    36 C    1.342    38 O    1.032
    38   8 O    2.146 --    37 C    1.032    39 C    0.935
    39   6 C    3.907 --    64 H    0.983    66 H    0.980    65 H    0.980
                            38 O    0.935
    40   6 C    3.983 --    41 C    1.442    37 C    1.361    67 H    0.969
    41   6 C    3.992 --    40 C    1.442    42 C    1.442    68 H    0.974
                            36 C    0.101
    42   6 C    3.983 --    41 C    1.442    43 C    1.362    69 H    0.969
    43   6 C    3.903 --    42 C    1.362    36 C    1.342    44 O    1.031
    44   8 O    2.146 --    43 C    1.031    45 C    0.935
    45   6 C    3.907 --    71 H    0.983    72 H    0.980    70 H    0.980
                            44 O    0.935
    46   1 H    1.001 --     2 C    0.971
    47   1 H    0.998 --     4 C    0.975
    48   1 H    1.002 --     5 C    0.974
    49   1 H    1.002 --    10 C    0.974
    50   1 H    1.002 --    11 C    0.974
    51   1 H    1.002 --    16 C    0.974
    52   1 H    1.002 --    17 C    0.974
    53   1 H    1.009 --    23 C    0.980
    54   1 H    1.015 --    23 C    0.983
    55   1 H    1.009 --    23 C    0.980
    56   1 H    1.000 --    24 C    0.969
    57   1 H    1.003 --    25 C    0.974
    58   1 H    1.000 --    26 C    0.969
    59   1 H    1.015 --    29 C    0.983
    60   1 H    1.009 --    29 C    0.980
    61   1 H    1.009 --    29 C    0.980
    62   1 H    1.002 --    31 C    0.974
    63   1 H    0.998 --    32 C    0.975
    64   1 H    1.015 --    39 C    0.983
    65   1 H    1.009 --    39 C    0.980
    66   1 H    1.009 --    39 C    0.980
    67   1 H    1.000 --    40 C    0.969
    68   1 H    1.003 --    41 C    0.974
    69   1 H    1.000 --    42 C    0.969
    70   1 H    1.009 --    45 C    0.980
    71   1 H    1.015 --    45 C    0.983
    72   1 H    1.009 --    45 C    0.980
    73  26 Fe   3.121 --    79 N    0.665   106 N    0.663   107 N    0.659
                            84 N    0.657
    74   6 C    3.918 --   105 C    1.365    75 C    1.359   118 H    0.971
    75   6 C    3.927 --    74 C    1.359    79 N    1.213    76 C    1.173
    76   6 C    3.960 --    77 C    1.650    75 C    1.173   119 H    0.976
    77   6 C    3.962 --    76 C    1.650    78 C    1.176   120 H    0.974
    78   6 C    3.920 --    80 C    1.318    79 N    1.222    77 C    1.176
    79   7 N    3.378 --    78 C    1.222    75 C    1.213    73 Fe   0.665
    80   6 C    3.919 --    81 C    1.337    78 C    1.318   108 C    1.017
    81   6 C    3.917 --    80 C    1.337    84 N    1.200    82 C    1.180
    82   6 C    3.958 --    83 C    1.639    81 C    1.180   121 H    0.974
    83   6 C    3.960 --    82 C    1.639    85 C    1.187   122 H    0.974
    84   7 N    3.376 --    85 C    1.247    81 C    1.200    73 Fe   0.657
    85   6 C    3.906 --    86 C    1.249    84 N    1.247    83 C    1.187
    86   6 C    3.916 --    85 C    1.249    87 C    1.245   152 C    1.208
    87   6 C    3.906 --   107 N    1.253    86 C    1.245    88 C    1.187
    88   6 C    3.961 --    89 C    1.640    87 C    1.187   123 H    0.974
    89   6 C    3.957 --    88 C    1.640    90 C    1.178   124 H    0.974
    90   6 C    3.918 --    91 C    1.344   107 N    1.193    89 C    1.178
    91   6 C    3.919 --    90 C    1.344   102 C    1.309    92 C    1.019
    92   6 C    3.976 --    93 C    1.340    99 C    1.340    91 C    1.019
    93   6 C    3.903 --    96 C    1.362    92 C    1.340    94 O    1.033
    94   8 O    2.146 --    93 C    1.033    95 C    0.935
    95   6 C    3.907 --   126 H    0.983   127 H    0.980   125 H    0.980
                            94 O    0.935
    96   6 C    3.983 --    97 C    1.442    93 C    1.362   128 H    0.969
    97   6 C    3.992 --    96 C    1.442    98 C    1.442   129 H    0.974
    98   6 C    3.983 --    97 C    1.442    99 C    1.362   130 H    0.969
    99   6 C    3.902 --    98 C    1.362    92 C    1.340   100 O    1.033
   100   8 O    2.146 --    99 C    1.033   101 C    0.935
   101   6 C    3.907 --   131 H    0.983   132 H    0.980   133 H    0.980
                           100 O    0.935
   102   6 C    3.919 --    91 C    1.309   106 N    1.229   103 C    1.177
   103   6 C    3.963 --   104 C    1.649   102 C    1.177   134 H    0.974
   104   6 C    3.959 --   103 C    1.649   105 C    1.173   135 H    0.976
   105   6 C    3.927 --    74 C    1.365   106 N    1.207   104 C    1.173
   106   7 N    3.377 --   102 C    1.229   105 C    1.207    73 Fe   0.663
   107   7 N    3.376 --    87 C    1.253    90 C    1.193    73 Fe   0.659
   108   6 C    3.976 --   115 C    1.342   109 C    1.340    80 C    1.017
                           113 C    0.100
   109   6 C    3.903 --   112 C    1.362   108 C    1.340   110 O    1.034
   110   8 O    2.146 --   109 C    1.034   111 C    0.935
   111   6 C    3.907 --   136 H    0.983   138 H    0.980   137 H    0.980
                           110 O    0.935
   112   6 C    3.983 --   113 C    1.442   109 C    1.362   139 H    0.969
   113   6 C    3.992 --   114 C    1.442   112 C    1.442   140 H    0.974
                           108 C    0.100
   114   6 C    3.983 --   113 C    1.442   115 C    1.362   141 H    0.969
   115   6 C    3.903 --   114 C    1.362   108 C    1.342   116 O    1.032
   116   8 O    2.146 --   115 C    1.032   117 C    0.935
   117   6 C    3.907 --   143 H    0.983   144 H    0.980   142 H    0.980
                           116 O    0.935
   118   1 H    1.001 --    74 C    0.971
   119   1 H    0.998 --    76 C    0.976
   120   1 H    1.002 --    77 C    0.974
   121   1 H    1.002 --    82 C    0.974
   122   1 H    1.002 --    83 C    0.974
   123   1 H    1.002 --    88 C    0.974
   124   1 H    1.002 --    89 C    0.974
   125   1 H    1.009 --    95 C    0.980
   126   1 H    1.015 --    95 C    0.983
   127   1 H    1.009 --    95 C    0.980
   128   1 H    1.000 --    96 C    0.969
   129   1 H    1.003 --    97 C    0.974
   130   1 H    1.000 --    98 C    0.969
   131   1 H    1.015 --   101 C    0.983
   132   1 H    1.009 --   101 C    0.980
   133   1 H    1.009 --   101 C    0.980
   134   1 H    1.002 --   103 C    0.974
   135   1 H    0.998 --   104 C    0.976
   136   1 H    1.015 --   111 C    0.983
   137   1 H    1.009 --   111 C    0.980
   138   1 H    1.009 --   111 C    0.980
   139   1 H    1.000 --   112 C    0.969
   140   1 H    1.003 --   113 C    0.974
   141   1 H    1.000 --   114 C    0.969
   142   1 H    1.009 --   117 C    0.980
   143   1 H    1.015 --   117 C    0.983
   144   1 H    1.009 --   117 C    0.980
   145   6 C    3.924 --   146 C    2.452   147 C    1.322
   146   6 C    3.911 --   145 C    2.452    14 C    1.199   148 C    0.195
   147   6 C    3.919 --   148 C    2.450   145 C    1.322
   148   6 C    3.913 --   147 C    2.450   154 C    1.203   146 C    0.195
   149   6 C    3.919 --   150 C    2.440   151 C    1.331
   150   6 C    3.913 --   149 C    2.440   166 C    1.211   152 C    0.195
   151   6 C    3.923 --   152 C    2.442   149 C    1.331
   152   6 C    3.912 --   151 C    2.442    86 C    1.208   150 C    0.195
   153  26 Fe   3.054 --   187 N    0.648   159 N    0.648   186 N    0.648
                           164 N    0.647
   154   6 C    3.901 --   185 C    1.249   155 C    1.248   148 C    1.203
   155   6 C    3.908 --   159 N    1.249   154 C    1.248   156 C    1.190
   156   6 C    3.959 --   157 C    1.636   155 C    1.190   198 H    0.974
   157   6 C    3.959 --   156 C    1.636   158 C    1.183   199 H    0.974
   158   6 C    3.914 --   160 C    1.327   159 N    1.204   157 C    1.183
   159   7 N    3.366 --   155 C    1.249   158 C    1.204   153 Fe   0.648
   160   6 C    3.910 --   158 C    1.327   161 C    1.327   188 C    1.017
   161   6 C    3.914 --   160 C    1.327   164 N    1.203   162 C    1.184
   162   6 C    3.958 --   163 C    1.634   161 C    1.184   200 H    0.974
   163   6 C    3.959 --   162 C    1.634   165 C    1.191   201 H    0.974
   164   7 N    3.366 --   165 C    1.251   161 C    1.203   153 Fe   0.647
   165   6 C    3.906 --   164 N    1.251   166 C    1.244   163 C    1.191
   166   6 C    3.901 --   167 C    1.245   165 C    1.244   150 C    1.211
   167   6 C    3.906 --   187 N    1.251   166 C    1.245   168 C    1.190
   168   6 C    3.959 --   169 C    1.635   167 C    1.190   202 H    0.974
   169   6 C    3.958 --   168 C    1.635   170 C    1.184   203 H    0.974
   170   6 C    3.914 --   171 C    1.327   187 N    1.203   169 C    1.184
   171   6 C    3.910 --   170 C    1.327   182 C    1.325   172 C    1.018
   172   6 C    3.976 --   173 C    1.340   179 C    1.340   171 C    1.018
   173   6 C    3.903 --   176 C    1.362   172 C    1.340   174 O    1.033
   174   8 O    2.146 --   173 C    1.033   175 C    0.935
   175   6 C    3.907 --   205 H    0.983   204 H    0.980   206 H    0.980
                           174 O    0.935
   176   6 C    3.983 --   177 C    1.442   173 C    1.362   207 H    0.969
   177   6 C    3.992 --   178 C    1.442   176 C    1.442   208 H    0.973
   178   6 C    3.983 --   177 C    1.442   179 C    1.362   209 H    0.969
   179   6 C    3.903 --   178 C    1.362   172 C    1.340   180 O    1.034
   180   8 O    2.147 --   179 C    1.034   181 C    0.934
   181   6 C    3.906 --   210 H    0.983   212 H    0.980   211 H    0.980
                           180 O    0.934
   182   6 C    3.914 --   171 C    1.325   186 N    1.205   183 C    1.183
   183   6 C    3.959 --   184 C    1.636   182 C    1.183   213 H    0.974
   184   6 C    3.959 --   183 C    1.636   185 C    1.190   214 H    0.974
   185   6 C    3.908 --   154 C    1.249   186 N    1.248   184 C    1.190
   186   7 N    3.366 --   185 C    1.248   182 C    1.205   153 Fe   0.648
   187   7 N    3.366 --   167 C    1.251   170 C    1.203   153 Fe   0.648
   188   6 C    3.976 --   195 C    1.341   189 C    1.340   160 C    1.017
   189   6 C    3.903 --   192 C    1.361   188 C    1.340   190 O    1.034
   190   8 O    2.147 --   189 C    1.034   191 C    0.934
   191   6 C    3.907 --   216 H    0.983   217 H    0.980   215 H    0.980
                           190 O    0.934
   192   6 C    3.983 --   193 C    1.442   189 C    1.361   218 H    0.969
   193   6 C    3.992 --   192 C    1.442   194 C    1.442   219 H    0.974
   194   6 C    3.983 --   193 C    1.442   195 C    1.361   220 H    0.969
   195   6 C    3.903 --   194 C    1.361   188 C    1.341   196 O    1.033
   196   8 O    2.146 --   195 C    1.033   197 C    0.935
   197   6 C    3.907 --   223 H    0.983   222 H    0.980   221 H    0.980
                           196 O    0.935
   198   1 H    1.002 --   156 C    0.974
   199   1 H    1.002 --   157 C    0.974
   200   1 H    1.002 --   162 C    0.974
   201   1 H    1.002 --   163 C    0.974
   202   1 H    1.002 --   168 C    0.974
   203   1 H    1.002 --   169 C    0.974
   204   1 H    1.009 --   175 C    0.980
   205   1 H    1.015 --   175 C    0.983
   206   1 H    1.009 --   175 C    0.980
   207   1 H    1.000 --   176 C    0.969
   208   1 H    1.003 --   177 C    0.973
   209   1 H    1.000 --   178 C    0.969
   210   1 H    1.015 --   181 C    0.983
   211   1 H    1.009 --   181 C    0.980
   212   1 H    1.009 --   181 C    0.980
   213   1 H    1.002 --   183 C    0.974
   214   1 H    1.002 --   184 C    0.974
   215   1 H    1.009 --   191 C    0.980
   216   1 H    1.015 --   191 C    0.983
   217   1 H    1.009 --   191 C    0.980
   218   1 H    1.000 --   192 C    0.969
   219   1 H    1.003 --   193 C    0.974
   220   1 H    1.000 --   194 C    0.969
   221   1 H    1.009 --   197 C    0.980
   222   1 H    1.009 --   197 C    0.980
   223   1 H    1.015 --   197 C    0.983
 ---------------------------------------------------------------------------

           -------------------------------------------------
          | TOTAL ENERGY             -391.944177708994 Eh   |
          | GRADIENT NORM               0.000700664215 Eh/α |
          | HOMO-LUMO GAP               0.054376120053 eV   |
           -------------------------------------------------

 * finished run on 2022/07/29 at 17:05:16.367
