   * xtb version 6.5.1 (b24c23e) compiled by 'conda@728c89f4b128' on 2022-07-12
          program call               : xtb Cu_PhCN_C6_2.xyz --gfn 1 --opt -T 48

   ID    Z sym.   atoms
    1   29 Cu     1, 59
    2    6 C      2-6, 8-13, 15-19, 21-26, 28-33, 35-40, 60-64, 66-71, 73-77,
                  79-84, 86-91, 93-98, 117-122
    3    7 N      7, 14, 20, 27, 34, 41, 65, 72, 78, 85, 92, 99
    4    1 H      42-58, 100-116
########################################################################
[WARNING] Please study the warnings concerning your input carefully
-1- prog_main_parseArguments: Unknown option '-T' provided
########################################################################

          :  Hamiltonian                  GFN1-xTB          :
 * total energy  :  -220.3023680 Eh     change       -0.6646701E-09 Eh
 * total energy  :  -221.4877599 Eh     change       -0.1185392E+01 Eh
 * total energy  :  -221.6292708 Eh     change       -0.1415109E+00 Eh
 * total energy  :  -221.6910907 Eh     change       -0.6181992E-01 Eh
 * total energy  :  -221.7207141 Eh     change       -0.2962346E-01 Eh
 * total energy  :  -221.7345381 Eh     change       -0.1382401E-01 Eh
 * total energy  :  -221.7445770 Eh     change       -0.1003890E-01 Eh
 * total energy  :  -221.7520054 Eh     change       -0.7428380E-02 Eh
 * total energy  :  -221.7565259 Eh     change       -0.4520490E-02 Eh
 * total energy  :  -221.7609799 Eh     change       -0.4453989E-02 Eh
 * total energy  :  -221.7766996 Eh     change       -0.2340761E-04 Eh
 * total energy  :  -221.7767321 Eh     change       -0.3243732E-04 Eh
 * total energy  :  -221.7767499 Eh     change       -0.1788706E-04 Eh
 * total energy  :  -221.7767674 Eh     change       -0.1743337E-04 Eh
 * total energy  :  -221.7767813 Eh     change       -0.1388567E-04 Eh
 * total energy  :  -221.7767903 Eh     change       -0.9022636E-05 Eh
 * total energy  :  -221.7767993 Eh     change       -0.9061827E-05 Eh
 * total energy  :  -221.7768040 Eh     change       -0.4684069E-05 Eh
 * total energy  :  -221.7768051 Eh     change       -0.1051554E-05 Eh
   *** GEOMETRY OPTIMIZATION CONVERGED AFTER 44 ITERATIONS ***

 final structure:
================
122
 xtb: 6.5.1 (b24c23e)
Cu          15.60233739654229        0.01967319514397       -0.00082157675155
C           12.19942300370647        0.04121228146822        0.15080863989407
C           12.84003934301635        1.25709011779523        0.33603548314193
C           12.17078477500448        2.50976602930105        0.54144632392632
C           13.13404377882248        3.45347223827467        0.68322213698200
C           14.40171770812046        2.78280815747985        0.57713176763702
N           14.19179147100470        1.45231377294763        0.35773467636060
C           15.65019321420019        3.40433703051032        0.66446367367098
C           15.67018220716394        4.85793007082442        0.95775227871654
C           15.13404825681876        5.34486182654425        2.15224213261714
C           15.15241781407182        6.69916501322641        2.43315330685474
C           15.70581940562075        7.59752937090463        1.51592614827084
C           15.72408183916333        8.99204719107927        1.80088891196175
N           15.73665475931929       10.11926843516412        2.03161064462795
C           16.24132026782872        7.11583061361369        0.31766020985857
C           16.22441290485176        5.75948401059823        0.04612975525726
C           16.87988013026937        2.76265751196007        0.50205683464561
C           18.16194404386395        3.39033655947919        0.65617726865353
C           19.10132340400800        2.43709997380137        0.43157045019931
N           17.05912181571357        1.43897875217317        0.19958369392322
C           18.40126208623341        1.22039042976830        0.14753943006225
C           19.02834481023026       -0.00481213460566       -0.14001409490083
C           18.36259769502863       -1.21955913539826       -0.38012039219933
C           19.01987501106631       -2.44589264086868       -0.71950867274315
C           18.05172373319859       -3.38528329287944       -0.86776727449320
C           16.79549175927606       -2.73965180154047       -0.60958469291601
N           17.01750971478572       -1.41863824965375       -0.32431922357967
C           15.54808994016135       -3.36510951065379       -0.66434681820992
C           15.52260816500046       -4.82020831647839       -0.95053825321542
C           14.88147844603706       -5.30533185954320       -2.09280350996840
C           14.85355452104233       -6.66166149456516       -2.36330148002149
C           15.46486242476642       -7.56363284394019       -1.48729374135740
C           15.43338512012032       -8.96042039211684       -1.75980677902705
N           15.40640619818704      -10.08933560212177       -1.98063055932555
C           16.10620389741483       -7.08352196280776       -0.34151645658332
C           16.13533828230883       -5.72527853564261       -0.08082060221572
C           14.32009223945612       -2.72770529182463       -0.46847624223083
C           13.03972444462441       -3.38248766523139       -0.45985906872916
C           12.10487297951809       -2.42685357241834       -0.23328300861565
C           12.80537283222144       -1.18257185989138       -0.09031745583948
N           14.14718450506749       -1.39467493537770       -0.23309816492712
H           11.11542667357702        0.04810899996773        0.19974063066542
H           11.10006273718618        2.63803660469672        0.56182865832831
H           13.00438353499594        4.51319186112550        0.83331718276572
H           14.71508065464730        4.65001225149108        2.87135340750610
H           14.73991616212305        7.06847490497899        3.36478071083241
H           16.66800858432944        7.80973774671013       -0.39710625050980
H           16.62981721306209        5.39114434231789       -0.88951033735869
H           18.31999236733211        4.42390927899626        0.91831028737552
H           20.17438300286085        2.53800850351812        0.46144856486396
H           20.08557571641665       -2.56146520806973       -0.83597849763593
H           18.17238217309637       -4.42088067177350       -1.14161922798069
H           14.41567586092158       -4.60809967757698       -2.78009414598068
H           14.35903862147892       -7.02991958350605       -3.25455366485705
H           16.57807520555567       -7.78011196976426        0.34154193756905
H           16.62300262117614       -5.35774173540872        0.81501827613386
H           12.88396444023461       -4.44052217309231       -0.59643472265225
H           11.03515966019695       -2.54180609488787       -0.15691240833514
Cu          31.62963351499228       -0.02052336512258       -0.00001970942112
C           35.03249750720057       -0.03414800128406        0.15103376322769
C           34.39200124293782       -1.23868057646504        0.40008502800371
C           35.06125337904450       -2.47883711152292        0.67118339796359
C           34.09798449051028       -3.41359411932171        0.86342746591563
C           32.83032671483126       -2.74938733759728        0.72247931864552
N           33.04025518815634       -1.43243005020540        0.43263883728290
C           31.58185240177874       -3.36521808419704        0.84336508779504
C           31.56058627772049       -4.80047389379495        1.21616109862684
C           32.09467578421143       -5.22080512118407        2.43656714001859
C           32.07023388020973       -6.55676876802506        2.79432960717895
C           31.51278341827846       -7.50355856918366        1.92975364804333
C           31.48621263545226       -8.87922987807740        2.29455159173390
N           31.46575850490396       -9.99068328372187        2.59220334856273
C           30.98116133351464       -7.08892409685836        0.70500077353653
C           31.00413597382326       -5.75039631720137        0.35648525169178
C           30.35208670922117       -2.73300582513363        0.64736937264133
C           29.07002356489870       -3.35166763592984        0.83470937846157
C           28.13057153995879       -2.41164537481703        0.56027701913167
N           30.17272160828315       -1.42718162278165        0.27547684066936
C           28.83052417659132       -1.21156780418974        0.21254136971144
C           28.20350377958469       -0.00297582154656       -0.13842733158247
C           28.86937473390367        1.19723087558103       -0.44236800317250
C           28.21187436064639        2.40370881299054       -0.84624641861806
C           29.17992756971141        3.33382555659326       -1.04476257848851
C           30.43629566561376        2.70291224259185       -0.75292920692725
N           30.21444312733644        1.39894282147660       -0.39773413250509
C           31.68365555446274        3.32466863300505       -0.84123179318216
C           31.70726506817481        4.76214987049192       -1.20576508223848
C           32.34634665042076        5.18563556196293       -2.37338274897048
C           32.36743023295662        6.52478667358613       -2.71956331918637
C           31.75123705977764        7.47139563724924       -1.89564876931692
C           31.77271770602188        8.85051204395408       -2.24757090901700
N           31.79009821562519        9.96506685373800       -2.53321857191203
C           31.11345761786297        7.05331545639347       -0.72385921336881
C           31.09123981168844        5.71175036588874       -0.38732343017644
C           32.91169883467657        2.69857562588247       -0.61223875659073
C           34.19204196275565        3.35285769276381       -0.63859132047632
C           35.12694599914705        2.41046585127786       -0.36212575363167
C           34.42649794864679        1.17540673391625       -0.15362978823394
N           33.08464172197758        1.37978430504803       -0.30690135629473
H           36.11652077608289       -0.03848540964479        0.19983723229360
H           36.13198014859923       -2.60598783690713        0.69774199706147
H           34.22747626640360       -4.46388963960960        1.06954971436037
H           32.51598842995694       -4.48777011259736        3.11526337370810
H           32.48045230420100       -6.87404113348815        3.74592274525906
H           30.55209751531434       -7.82070473538157        0.03055959311613
H           30.60094983562712       -5.43439499234678       -0.59903659173062
H           28.91188939652024       -4.36994462239752        1.15100170383069
H           27.05753070020828       -2.51086763837429        0.59562123169333
H           27.14612055434434        2.51292955204833       -0.96820454340347
H           29.05889465597808        4.35325966393918       -1.37352550025088
H           32.81512411671798        4.45324464495349       -3.02092464477634
H           32.85958878926495        6.84487593464839       -3.63050753267722
H           30.63821391241322        7.78476713526081       -0.08075451080924
H           30.60567388186123        5.39266322588020        0.52801433749929
H           34.34760198575386        4.40223949485216       -0.83088672086793
H           36.19668196950337        2.52927421670305       -0.29216628202067
C           24.22990837689144       -0.00460769215831       -0.21919676712491
C           23.00202958686077       -0.01337105867152       -0.21778389568152
C           21.65716168239835       -0.01146342640389       -0.20462894238268
C           20.43387867327003       -0.01446339981319       -0.18305114511049
C           25.57476909481833        0.00028578990034       -0.20599632702342
C           26.79801130535580        0.00548521911054       -0.18305977061944

          :  Hamiltonian                  GFN1-xTB          :
         :: total energy            -221.776805077972 Eh    ::
         :: gradient norm              0.000925360980 Eh/a0 ::
         :: HOMO-LUMO gap              0.002197563101 eV    ::
         :: SCC energy              -225.499198116387 Eh    ::
         :: repulsion energy           3.832867282606 Eh    ::

    * Orbital Energies and Occupations

         #    Occupation            Energy/Eh            Energy/eV
      -------------------------------------------------------------
         1        2.0000           -0.7755583             -21.1040
       ...           ...                  ...                  ...
       194        2.0000           -0.4224553             -11.4956
       195        2.0000           -0.4224516             -11.4955
       196        2.0000           -0.4193228             -11.4104
       197        2.0000           -0.4193202             -11.4103
       198        2.0000           -0.4191287             -11.4051
       199        2.0000           -0.4191267             -11.4050
       200        2.0000           -0.4191172             -11.4048
       201        2.0000           -0.4190781             -11.4037
       202        2.0000           -0.4069450             -11.0735
       203        2.0000           -0.4069444             -11.0735
       204        2.0000           -0.4020159             -10.9394
       205        2.0000           -0.3928386             -10.6897
       206        1.0212           -0.3668271              -9.9819 (HOMO)
       207        0.9788           -0.3667463              -9.9797 (LUMO)
       208                         -0.3486061              -9.4861
       209                         -0.3407844              -9.2732
       210                         -0.3407805              -9.2731
       211                         -0.3381791              -9.2023
       212                         -0.3139150              -8.5421
       213                         -0.3110866              -8.4651
       214                         -0.3028252              -8.2403
       215                         -0.3028179              -8.2401
       216                         -0.2999506              -8.1621
       217                         -0.2966803              -8.0731
       ...                                ...                  ...
       430                          1.5715257              42.7634
      -------------------------------------------------------------
                  HL-Gap            0.0000808 Eh            0.0022 eV

Wiberg/Mayer (AO) data.
largest (>0.10) Wiberg bond orders for each atom

     #   Z sym  total        # sym  WBO       # sym  WBO       # sym  WBO
 ---------------------------------------------------------------------------
     1  29 Cu   2.180 --     7 N    0.504    41 N    0.504    27 N    0.501
                            20 N    0.501
     2   6 C    3.930 --    40 C    1.362     3 C    1.362    42 H    0.971
     3   6 C    3.916 --     2 C    1.362     7 N    1.229     4 C    1.170
     4   6 C    3.955 --     5 C    1.656     3 C    1.170    43 H    0.975
     5   6 C    3.958 --     4 C    1.656     6 C    1.171    44 H    0.973
     6   6 C    3.913 --     8 C    1.317     7 N    1.241     5 C    1.171
     7   7 N    3.243 --     6 C    1.241     3 C    1.229     1 Cu   0.504
     8   6 C    3.934 --    17 C    1.325     6 C    1.317     9 C    1.030
     9   6 C    3.963 --    16 C    1.385    10 C    1.385     8 C    1.030
    10   6 C    3.987 --    11 C    1.464     9 C    1.385    45 H    0.971
                            15 C    0.102
    11   6 C    3.993 --    10 C    1.464    12 C    1.364    46 H    0.972
                            16 C    0.102
    12   6 C    3.984 --    15 C    1.364    11 C    1.364    13 C    1.098
    13   6 C    3.958 --    14 N    2.819    12 C    1.098
    14   7 N    2.973 --    13 C    2.819
    15   6 C    3.993 --    16 C    1.464    12 C    1.364    47 H    0.972
                            10 C    0.102
    16   6 C    3.987 --    15 C    1.464     9 C    1.385    48 H    0.971
                            11 C    0.102
    17   6 C    3.908 --     8 C    1.325    20 N    1.223    18 C    1.178
    18   6 C    3.954 --    19 C    1.643    17 C    1.178    49 H    0.973
    19   6 C    3.956 --    18 C    1.643    21 C    1.186    50 H    0.974
    20   7 N    3.247 --    21 C    1.257    17 C    1.223     1 Cu   0.501
    21   6 C    3.896 --    22 C    1.260    20 N    1.257    19 C    1.186
    22   6 C    3.940 --    23 C    1.260    21 C    1.260   120 C    1.186
    23   6 C    3.897 --    22 C    1.260    27 N    1.256    24 C    1.186
    24   6 C    3.956 --    25 C    1.643    23 C    1.186    51 H    0.974
    25   6 C    3.954 --    24 C    1.643    26 C    1.178    52 H    0.973
    26   6 C    3.908 --    28 C    1.325    27 N    1.223    25 C    1.178
    27   7 N    3.247 --    23 C    1.256    26 C    1.223     1 Cu   0.501
    28   6 C    3.934 --    26 C    1.325    37 C    1.318    29 C    1.030
    29   6 C    3.963 --    36 C    1.386    30 C    1.385    28 C    1.030
    30   6 C    3.987 --    31 C    1.464    29 C    1.385    53 H    0.971
                            35 C    0.102
    31   6 C    3.993 --    30 C    1.464    32 C    1.364    54 H    0.972
                            36 C    0.102
    32   6 C    3.984 --    35 C    1.364    31 C    1.364    33 C    1.098
    33   6 C    3.958 --    34 N    2.819    32 C    1.098
    34   7 N    2.973 --    33 C    2.819
    35   6 C    3.993 --    36 C    1.464    32 C    1.364    55 H    0.972
                            30 C    0.102
    36   6 C    3.988 --    35 C    1.464    29 C    1.386    56 H    0.971
                            31 C    0.102
    37   6 C    3.913 --    28 C    1.318    41 N    1.241    38 C    1.171
    38   6 C    3.958 --    39 C    1.657    37 C    1.171    57 H    0.973
    39   6 C    3.955 --    38 C    1.657    40 C    1.170    58 H    0.975
    40   6 C    3.916 --     2 C    1.362    41 N    1.229    39 C    1.170
    41   7 N    3.243 --    37 C    1.241    40 C    1.229     1 Cu   0.504
    42   1 H    1.001 --     2 C    0.971
    43   1 H    0.997 --     4 C    0.975
    44   1 H    1.004 --     5 C    0.973
    45   1 H    1.004 --    10 C    0.971
    46   1 H    1.000 --    11 C    0.972
    47   1 H    1.000 --    15 C    0.972
    48   1 H    1.004 --    16 C    0.971
    49   1 H    1.004 --    18 C    0.973
    50   1 H    1.002 --    19 C    0.974
    51   1 H    1.002 --    24 C    0.974
    52   1 H    1.004 --    25 C    0.973
    53   1 H    1.003 --    30 C    0.971
    54   1 H    1.000 --    31 C    0.972
    55   1 H    1.000 --    35 C    0.972
    56   1 H    1.004 --    36 C    0.971
    57   1 H    1.004 --    38 C    0.973
    58   1 H    0.997 --    39 C    0.975
    59  29 Cu   2.180 --    65 N    0.504    99 N    0.504    85 N    0.501
                            78 N    0.501
    60   6 C    3.930 --    98 C    1.362    61 C    1.362   100 H    0.971
    61   6 C    3.916 --    60 C    1.362    65 N    1.229    62 C    1.170
    62   6 C    3.955 --    63 C    1.656    61 C    1.170   101 H    0.975
    63   6 C    3.958 --    62 C    1.656    64 C    1.171   102 H    0.973
    64   6 C    3.913 --    66 C    1.318    65 N    1.241    63 C    1.171
    65   7 N    3.243 --    64 C    1.241    61 C    1.229    59 Cu   0.504
    66   6 C    3.934 --    75 C    1.325    64 C    1.318    67 C    1.030
    67   6 C    3.963 --    74 C    1.385    68 C    1.385    66 C    1.030
    68   6 C    3.987 --    69 C    1.464    67 C    1.385   103 H    0.971
                            73 C    0.102
    69   6 C    3.993 --    68 C    1.464    70 C    1.364   104 H    0.972
                            74 C    0.102
    70   6 C    3.984 --    73 C    1.364    69 C    1.364    71 C    1.098
    71   6 C    3.958 --    72 N    2.819    70 C    1.098
    72   7 N    2.973 --    71 C    2.819
    73   6 C    3.993 --    74 C    1.464    70 C    1.364   105 H    0.972
                            68 C    0.102
    74   6 C    3.988 --    73 C    1.464    67 C    1.385   106 H    0.971
                            69 C    0.102
    75   6 C    3.908 --    66 C    1.325    78 N    1.223    76 C    1.178
    76   6 C    3.954 --    77 C    1.643    75 C    1.178   107 H    0.973
    77   6 C    3.956 --    76 C    1.643    79 C    1.186   108 H    0.974
    78   7 N    3.247 --    79 C    1.256    75 C    1.223    59 Cu   0.501
    79   6 C    3.896 --    80 C    1.260    78 N    1.256    77 C    1.186
    80   6 C    3.940 --    81 C    1.260    79 C    1.260   122 C    1.186
    81   6 C    3.897 --    80 C    1.260    85 N    1.256    82 C    1.186
    82   6 C    3.956 --    83 C    1.643    81 C    1.186   109 H    0.974
    83   6 C    3.954 --    82 C    1.643    84 C    1.178   110 H    0.973
    84   6 C    3.908 --    86 C    1.325    85 N    1.223    83 C    1.178
    85   7 N    3.247 --    81 C    1.256    84 C    1.223    59 Cu   0.501
    86   6 C    3.934 --    84 C    1.325    95 C    1.318    87 C    1.030
    87   6 C    3.963 --    88 C    1.385    94 C    1.385    86 C    1.030
    88   6 C    3.987 --    89 C    1.464    87 C    1.385   111 H    0.971
                            93 C    0.102
    89   6 C    3.993 --    88 C    1.464    90 C    1.364   112 H    0.972
                            94 C    0.102
    90   6 C    3.984 --    89 C    1.364    93 C    1.364    91 C    1.098
    91   6 C    3.958 --    92 N    2.819    90 C    1.098
    92   7 N    2.973 --    91 C    2.819
    93   6 C    3.993 --    94 C    1.464    90 C    1.364   113 H    0.972
                            88 C    0.102
    94   6 C    3.988 --    93 C    1.464    87 C    1.385   114 H    0.971
                            89 C    0.102
    95   6 C    3.913 --    86 C    1.318    99 N    1.241    96 C    1.171
    96   6 C    3.958 --    97 C    1.657    95 C    1.171   115 H    0.973
    97   6 C    3.955 --    96 C    1.657    98 C    1.170   116 H    0.975
    98   6 C    3.916 --    60 C    1.362    99 N    1.229    97 C    1.170
    99   7 N    3.243 --    95 C    1.241    98 C    1.229    59 Cu   0.504
   100   1 H    1.001 --    60 C    0.971
   101   1 H    0.997 --    62 C    0.975
   102   1 H    1.004 --    63 C    0.973
   103   1 H    1.004 --    68 C    0.971
   104   1 H    1.000 --    69 C    0.972
   105   1 H    1.000 --    73 C    0.972
   106   1 H    1.004 --    74 C    0.971
   107   1 H    1.004 --    76 C    0.973
   108   1 H    1.002 --    77 C    0.974
   109   1 H    1.002 --    82 C    0.974
   110   1 H    1.004 --    83 C    0.973
   111   1 H    1.003 --    88 C    0.971
   112   1 H    1.000 --    89 C    0.972
   113   1 H    1.000 --    93 C    0.972
   114   1 H    1.004 --    94 C    0.971
   115   1 H    1.004 --    96 C    0.973
   116   1 H    0.997 --    97 C    0.975
   117   6 C    3.927 --   118 C    2.374   121 C    1.331   120 C    0.191
   118   6 C    3.927 --   117 C    2.374   119 C    1.331   122 C    0.191
   119   6 C    3.936 --   120 C    2.455   118 C    1.331
   120   6 C    3.891 --   119 C    2.455    22 C    1.186   117 C    0.191
   121   6 C    3.936 --   122 C    2.455   117 C    1.331
   122   6 C    3.891 --   121 C    2.455    80 C    1.186   118 C    0.191
 ---------------------------------------------------------------------------

           -------------------------------------------------
          | TOTAL ENERGY             -221.776805077972 Eh   |
          | GRADIENT NORM               0.000925360980 Eh/α |
          | HOMO-LUMO GAP               0.002197563101 eV   |
           -------------------------------------------------

 * finished run on 2022/07/30 at 14:31:24.204
