   * xtb version 6.5.1 (b24c23e) compiled by 'conda@728c89f4b128' on 2022-07-12
          program call               : xtb H_C8_5.xyz --gfn 1 --opt -T 48

   ID    Z sym.   atoms
    1    6 C      1-5, 7-10, 12-17, 19-23, 38-42, 44-47, 49-54, 56-60,
                  75-111, 113-116, 118-123, 125-129, 143-147, 149-152,
                  154-159, 161-165, 179-183, 185-188, 190-195, 197-201
    2    7 N      6, 11, 18, 24, 43, 48, 55, 61, 112, 117, 124, 130, 148,
                  153, 160, 166, 184, 189, 196, 202
    3    1 H      25-37, 62-74, 131-142, 167-178, 203-214

          :  Hamiltonian                  GFN1-xTB          :
 * total energy  :  -372.7496440 Eh     change        0.1731388E-07 Eh
 * total energy  :  -374.0793688 Eh     change       -0.1329725E+01 Eh
 * total energy  :  -374.4843814 Eh     change       -0.4050127E+00 Eh
 * total energy  :  -374.6732360 Eh     change       -0.1888546E+00 Eh
 * total energy  :  -374.7505695 Eh     change       -0.7733346E-01 Eh
 * total energy  :  -374.7873650 Eh     change       -0.3679546E-01 Eh
 * total energy  :  -374.8087143 Eh     change       -0.2134929E-01 Eh
 * total energy  :  -374.8216869 Eh     change       -0.1297268E-01 Eh
 * total energy  :  -374.8304282 Eh     change       -0.8741225E-02 Eh
 * total energy  :  -374.8386114 Eh     change       -0.8183198E-02 Eh
 * total energy  :  -375.2937456 Eh     change        0.1621844E-05 Eh
 * total energy  :  -375.2937646 Eh     change       -0.1906234E-04 Eh
 * total energy  :  -375.2937425 Eh     change        0.2214234E-04 Eh
 * total energy  :  -375.2937742 Eh     change       -0.3175032E-04 Eh
 * total energy  :  -375.2937746 Eh     change       -0.3540587E-06 Eh
 * total energy  :  -375.2937875 Eh     change       -0.1290173E-04 Eh
 * total energy  :  -375.2937873 Eh     change        0.1965128E-06 Eh
 * total energy  :  -375.2937962 Eh     change       -0.8951202E-05 Eh
 * total energy  :  -375.2938010 Eh     change       -0.4798312E-05 Eh
   *** GEOMETRY OPTIMIZATION CONVERGED AFTER 114 ITERATIONS ***

 final structure:
================
214
 xtb: 6.5.1 (b24c23e)
C           18.01260078194724       -0.05975968270882        0.00141095151962
C           18.63495477062209       -1.30002122999971       -0.06266075407004
C           18.01949753730801       -2.58315756344878       -0.12657974497307
C           19.01060444075526       -3.52260830399611       -0.17743348010226
C           20.26256605995599       -2.84337804871601       -0.14570872785401
N           19.98475947720052       -1.50891343596195       -0.07672474633253
C           21.53061233933211       -3.41217422844006       -0.17711964343869
C           22.75184736747803       -2.75468052567449       -0.14381316186575
C           24.02835730128135       -3.44641327712883       -0.17910074598557
C           24.98072179637343       -2.49220672781448       -0.12832923965205
N           22.94910342731118       -1.40980837899714       -0.07419516211015
C           24.28225630691817       -1.22096913838917       -0.06329623916323
C           24.94083150951734        0.02528787424919        0.00038426936744
C           24.29211762723530        1.27356525736833        0.06026158299276
C           24.90186060405962        2.55575650720443        0.12210361203505
C           23.90674994929187        3.49290418844121        0.16590705363615
C           22.65910414196848        2.80926140868329        0.13274343120888
N           22.94467557575167        1.47195012950422        0.06882580799562
C           21.39261048397563        3.37935846856112        0.16092818215660
C           20.17007053594908        2.71960516512352        0.13144447511451
C           18.88711966895049        3.40479418675532        0.16793379119712
C           17.94101380730545        2.44535577856516        0.12436566050293
C           18.64682075029205        1.17544933738183        0.06074167479952
N           19.98571409156901        1.38026294704681        0.06716670004020
H           16.92776747849371       -0.06515180997140        0.00414601591114
H           16.95406249642708       -2.75013689898594       -0.13228129253551
H           18.89853644299389       -4.59387244507340       -0.23199612183958
H           20.67970043167900       -0.77074070536219       -0.04076131956038
H           21.55951093771161       -4.49570727550156       -0.23324242276736
H           24.14579670292072       -4.51728010082921       -0.23484819052021
H           26.05306743601250       -2.60641261490988       -0.13338544053253
H           25.96647504184875        2.72627258529458        0.13094666677975
H           24.01525626183844        4.56455917019197        0.21696195690306
H           22.25232339814919        0.73099373197503        0.03304126256891
H           21.36525980335166        4.46306395167733        0.21284114883551
H           18.76369703935262        4.47535017917092        0.22003722422855
H           16.86743067752813        2.55189048289256        0.13257215483497
C           99.86908468135292        0.05135075175942       -0.02432819510321
C           99.24635619322018        1.27489416463145       -0.23605288634805
C           99.86134881393667        2.54008743540816       -0.46051288892148
C           98.86992483808366        3.46778187651561       -0.61513170028588
C           97.61822383342174        2.79873417496035       -0.49107052054762
N           97.89649980560706        1.48205422364781       -0.26384479836006
C           96.34999501923659        3.36060697492272       -0.58237475007730
C           95.12896907637092        2.71189541444132       -0.46792877978056
C           93.85227659943776        3.39413674561642       -0.58547165217482
C           92.90017189397111        2.45170728170958       -0.42611879833762
N           94.93207397292366        1.38461151111878       -0.23994726333819
C           93.59896672140088        1.19744855753370       -0.21009716782957
C           92.94066351863279       -0.03275479636503        0.00018181842135
C           93.58969888298182       -1.26258716044943        0.22109616262724
C           92.98045479516475       -2.52642684708204        0.44726989243652
C           93.97592759049056       -3.44865272184902        0.61740540896886
C           95.22332171948442       -2.77409870188530        0.49865933914166
N           94.93722765396738       -1.45676498832745        0.26033848309825
C           96.49002752808025       -3.33536921763587        0.59994191535226
C           97.71237554222007       -2.68576303742044        0.47893829280832
C           98.99550782837200       -3.36180651105222        0.59442615536950
C           99.94134274988744       -2.41744569715381        0.41804124805227
C           99.23520501930149       -1.16558471844467        0.19649246508530
N           97.89637882736763       -1.36631039697825        0.23991475872386
H          100.95389823677718        0.05565206555036       -0.03192633736782
H          100.92670366673929        2.70386622828860       -0.49602273878013
H           98.98160223316404        4.52448806565904       -0.79964252229264
H           97.20186321898792        0.75443203065063       -0.13275515949468
H           96.32072687213173        4.42983347271177       -0.76657147399205
H           93.73454924361675        4.45106993765706       -0.76625858423301
H           91.82780062590656        2.56389383358682       -0.44667577076835
H           91.91590823106482       -2.69538041201508        0.47478087879712
H           93.86784295270270       -4.50446901600799        0.80818273199972
H           95.62926211832109       -0.72610711679357        0.13041715642197
H           96.51774784575946       -4.40297801764560        0.79309139234096
H           99.11923239668246       -4.41664382126374        0.78429072264813
H          101.01494166507160       -2.52334965912815        0.43095514563021
C           26.34472951209499        0.03560723786341        0.00468642979568
C           27.56984559517190        0.04622071317999        0.00848117225656
C           28.91223180175956        0.05361121190551        0.01151905675021
C           30.14352357965849        0.05783408740828        0.01193970295039
C           31.48115307572854        0.06004840547091        0.01233164862254
C           32.71255133170958        0.06114150548056        0.01180246514514
C           34.05472386720916        0.06118212952178        0.00825015873407
C           35.28012479221588        0.05785210985134        0.00365588905587
C           45.09395455858463        0.00051438746321        0.00255449345091
C           46.31957590653428       -0.00387056329007        0.00243890460083
C           47.66180576227188       -0.00544695068506        0.00218579240646
C           48.89349823426049       -0.00738194872554       -0.00068114664440
C           50.23109204939036       -0.00775885472236       -0.00316254452955
C           51.46273451755480       -0.00745111241266       -0.00606460118361
C           52.80497459680531       -0.00533341250748       -0.00847219687770
C           54.03067521879171       -0.00351183128325       -0.01059884956528
C           63.85074047369979       -0.00488315155656       -0.01605989171909
C           65.07632669873287       -0.00350500534734       -0.02634004155160
C           66.41854917438916       -0.00177951579981       -0.03463235841421
C           67.65023040066450       -0.00193669311628       -0.04028354784386
C           68.98784360061055       -0.00190490268245       -0.04097810561907
C           70.21952631920885       -0.00299014724212       -0.03704269744481
C           71.56174234065026       -0.00477516213212       -0.02927710692506
C           72.78733216136064       -0.00869004643996       -0.01903889240686
C           82.60141961188602       -0.06525127840647       -0.02228761086029
C           83.82680396592434       -0.06951513411813       -0.03161460390964
C           85.16900893603959       -0.07036092760658       -0.03741472423718
C           86.40041777628920       -0.07049229630036       -0.03877596433391
C           87.73808136105687       -0.06809444031047       -0.03531280280272
C           88.96935292771840       -0.06291718580194       -0.02793914403721
C           90.31173804864842       -0.05586175769608       -0.01824925688783
C           91.53677134537185       -0.04476422104485       -0.00765962982147
C           36.68297450416426        0.05400715578801        0.00001843046160
C           37.33115143967623        1.30480735977841       -0.01355309198693
C           36.72696741834407        2.58958705463338       -0.02706669282378
C           37.72762426663746        3.52321188691811       -0.03945594412520
C           38.97095627498248        2.83304337977659       -0.03315156143317
N           38.67968290955390        1.49658027558492       -0.01759637393219
C           40.24003451745842        3.40257467467109       -0.04037909630196
C           41.46836040689806        2.75958954582528       -0.03232972097039
C           42.73547608042427        3.46945405869687       -0.03922449785710
C           43.70113268161386        2.52720763154554       -0.02688393881168
N           41.68441725122270        1.41589163338556       -0.01645815787386
C           43.02025080134911        1.24564301853075       -0.01277338155029
C           43.69104688984968        0.00419320250431        0.00162471879408
C           43.04245437354766       -1.24656855842484        0.01335111068448
C           43.64632759244127       -2.53160837063750        0.02639667370007
C           42.64554604013806       -3.46505067225495        0.03286812507524
C           41.40224380617045       -2.77474277007118        0.02408596114710
N           41.69391626143932       -1.43811775090709        0.01265119794360
C           40.13345173384374       -3.34447636214764        0.02686555994626
C           38.90482768132181       -2.70163856170424        0.02066436849782
C           37.63765853548217       -3.41135813218985        0.02651778044171
C           36.67213038611279       -2.46887629629776        0.02011363027273
C           37.35324033962380       -1.18748370980421        0.00956237407162
N           38.68920733079205       -1.35805448009638        0.01018260688662
H           35.66320478352660        2.76542953897043       -0.02758487962323
H           37.62393165109365        4.59647911420345       -0.05174180776955
H           39.36465289907147        0.74787059221102       -0.01019373691872
H           40.26088970164926        4.48796239180971       -0.05320365024353
H           42.83825095785411        4.54320406658602       -0.05164906357968
H           44.77185422871976        2.65588631708717       -0.02692995934505
H           44.71002820708959       -2.70767242382328        0.03022684197679
H           42.74889883588376       -4.53837251163057        0.04288780807057
H           41.00900125168435       -0.68935327063913        0.00426558085827
H           40.11265788009602       -4.42990384562215        0.03583306289811
H           37.53457119955720       -4.48511600383564        0.03461181963055
H           35.60138177723567       -2.59733680357160        0.02161340085468
C           55.43357833714536        0.00041609059782       -0.00882790637485
C           56.07560618676808        1.25461193875143       -0.02308884905914
C           55.46561451148140        2.53662911077135       -0.04008214868601
C           56.46202384996561        3.47480490666723       -0.04751069942765
C           57.70862090920313        2.79047366888793       -0.03576512739189
N           57.42327559006284        1.45262790117480       -0.02157596221242
C           58.97458579061860        3.36684564279155       -0.03825667804315
C           60.20722911519083        2.73190125820254       -0.03026983267437
C           61.46958721212732        3.45026777164460       -0.03711081333685
C           62.44163088290056        2.51450048402866       -0.03052653271553
N           60.43235362010032        1.38979810353901       -0.01793094944951
C           61.76942438378327        1.22845179192660       -0.01847517560050
C           62.44786390168177       -0.00881163734228       -0.00747616192354
C           61.80584645395950       -1.26294565452764        0.01248615825558
C           62.41582167027752       -2.54492933530996        0.03205384504013
C           61.41939633528254       -3.48296523138415        0.04893781096244
C           60.17279973545717       -2.79860177081358        0.03934963810707
N           60.45816594207543       -1.46085463792097        0.01806388102883
C           58.90682578809642       -3.37491852325512        0.04703388211634
C           57.67418114458903       -2.74005536948802        0.03444495008613
C           56.41183064009498       -3.45844436158468        0.04050922464645
C           55.43978590718717       -2.52279859286166        0.02402995754474
C           56.11198851103691       -1.23678401695466        0.00858978750998
N           57.44905283817734       -1.39804047180771        0.01469174721498
H           54.40109269274770        2.70765278698009       -0.04565500640760
H           56.35349465607847        4.54758778883049       -0.06032577880321
H           58.11124003115961        0.70667069200993       -0.01057658067728
H           58.98900200086208        4.45238857598474       -0.04894756952243
H           61.56521584766816        4.52470984070124       -0.04610074349737
H           63.51147566783253        2.65033861104671       -0.03256696127152
H           63.48034532600602       -2.71601769102771        0.03343158435049
H           61.52791248032003       -4.55568234305201        0.06635672456105
H           59.77020342803721       -0.71489268266349        0.00715339600895
H           58.89240978580046       -4.46038651393935        0.06360036032922
H           56.31620619357578       -4.53282750425095        0.05506420024265
H           54.36994948308034       -2.65869951981565        0.02215882233910
C           74.19020601450087       -0.01201484638301       -0.00834797729270
C           74.83871345666316        1.23873613462830       -0.02478869485915
C           74.23484537693142        2.52369588115625       -0.04426120728902
C           75.23561825370538        3.45714350918096       -0.05112403073371
C           76.47892810763750        2.76690457251084       -0.03774776567956
N           76.18724520479968        1.43033767272419       -0.02148453174522
C           77.74770250821780        3.33665037246241       -0.04411919633975
C           78.97640677461473        2.69393419879649       -0.03961247104303
C           80.24345983774460        3.40371908946938       -0.05586619261756
C           81.20910732623574        2.46135707631235       -0.05069795900216
N           79.19222341222091        1.35046463010453       -0.02306806576786
C           80.52820683750518        1.18000133713435       -0.02905013031677
C           81.19857623066308       -0.06132054615268       -0.01213312763419
C           80.55045814903994       -1.31184849795876        0.01911096304003
C           81.15465651325631       -2.59641616700578        0.04623101777422
C           80.15404237819310       -3.52971946979328        0.07491007273696
C           78.91070070629193       -2.83960060361860        0.06480732246003
N           79.20194617615658       -1.50346629180822        0.03130321171279
C           77.64166142252708       -3.40901523486109        0.08180497212037
C           76.41324909502788       -2.76635946364141        0.06476590613602
C           75.14623654485597       -3.47634022208304        0.07709967134392
C           74.18046006514189       -2.53456890679086        0.04853432953209
C           74.86115151375741       -1.25312298649265        0.02118338620089
N           76.19699639173571       -1.42302336318259        0.03128782603618
H           73.17115264849355        2.69972007555285       -0.05110877559573
H           75.13226011180871        4.53042380252034       -0.06488216306064
H           76.87211018819367        0.68158775825482       -0.00865143630531
H           77.76841772464350        4.42203914124832       -0.05724631887385
H           80.34639020267792        4.47742657480088       -0.07012289544596
H           82.27981710047986        2.58988658568329       -0.05928981267648
H           82.21840274914310       -2.77233253063057        0.04425541924870
H           80.25775479054948       -4.60275401291506        0.10030247189088
H           78.51700747019653       -0.75481677548194        0.01744575946614
H           77.62091039009948       -4.49414415546418        0.10876115291500
H           75.04360722029689       -4.54985486434989        0.10332425948442
H           73.10976890395847       -2.66347807093867        0.04662685418343

          :  Hamiltonian                  GFN1-xTB          :
         :: total energy            -375.293801037912 Eh    ::
         :: gradient norm              0.000392407724 Eh/a0 ::
         :: HOMO-LUMO gap              0.786365447562 eV    ::
         :: SCC energy              -382.218644784571 Eh    ::
         :: repulsion energy           7.092238174631 Eh    ::

    * Orbital Energies and Occupations

         #    Occupation            Energy/Eh            Energy/eV
      -------------------------------------------------------------
         1        2.0000           -0.8072213             -21.9656
       ...           ...                  ...                  ...
       333        2.0000           -0.4096889             -11.1482
       334        2.0000           -0.4090057             -11.1296
       335        2.0000           -0.4089651             -11.1285
       336        2.0000           -0.4023722             -10.9491
       337        2.0000           -0.4020990             -10.9417
       338        2.0000           -0.4020889             -10.9414
       339        2.0000           -0.4003722             -10.8947
       340        2.0000           -0.4003635             -10.8944
       341        2.0000           -0.3918489             -10.6628
       342        2.0000           -0.3892900             -10.5931
       343        2.0000           -0.3855449             -10.4912
       344        2.0000           -0.3814946             -10.3810
       345        2.0000           -0.3786800             -10.3044 (HOMO)
       346        0.0000           -0.3497816              -9.5180 (LUMO)
       347                         -0.3457221              -9.4076
       348                         -0.3408382              -9.2747
       349                         -0.3359860              -9.1426
       350                         -0.3345126              -9.1026
       351                         -0.3336245              -9.0784
       352                         -0.3333632              -9.0713
       353                         -0.3331611              -9.0658
       354                         -0.3321571              -9.0385
       355                         -0.3321007              -9.0369
       356                         -0.3146916              -8.5632
       ...                                ...                  ...
       732                          1.6020931              43.5952
      -------------------------------------------------------------
                  HL-Gap            0.0288984 Eh            0.7864 eV

Wiberg/Mayer (AO) data.
largest (>0.10) Wiberg bond orders for each atom

     #   Z sym  total        # sym  WBO       # sym  WBO       # sym  WBO
 ---------------------------------------------------------------------------
     1   6 C    3.930 --    23 C    1.364     2 C    1.349    25 H    0.972
     2   6 C    3.903 --     1 C    1.349     3 C    1.225     6 N    1.172
     3   6 C    3.954 --     4 C    1.602     2 C    1.225    26 H    0.977
     4   6 C    3.958 --     3 C    1.602     5 C    1.226    27 H    0.977
     5   6 C    3.897 --     7 C    1.342     4 C    1.226     6 N    1.175
     6   7 N    3.472 --     5 C    1.175     2 C    1.172    28 H    0.873
     7   6 C    3.945 --     8 C    1.380     5 C    1.342    29 H    0.971
     8   6 C    3.915 --     7 C    1.380    11 N    1.277     9 C    1.118
     9   6 C    3.965 --    10 C    1.718     8 C    1.118    30 H    0.976
    10   6 C    3.964 --     9 C    1.718    12 C    1.124    31 H    0.975
    11   7 N    3.026 --    12 C    1.354     8 C    1.277
    12   6 C    3.908 --    11 N    1.354    13 C    1.250    10 C    1.124
    13   6 C    3.942 --    14 C    1.252    12 C    1.250    75 C    1.196
    14   6 C    3.884 --    13 C    1.252    15 C    1.245    18 N    1.193
    15   6 C    3.959 --    16 C    1.590    14 C    1.245    32 H    0.975
    16   6 C    3.953 --    15 C    1.590    17 C    1.232    33 H    0.977
    17   6 C    3.899 --    19 C    1.351    16 C    1.232    18 N    1.161
    18   7 N    3.476 --    14 C    1.193    17 C    1.161    34 H    0.873
    19   6 C    3.929 --    20 C    1.363    17 C    1.351    35 H    0.971
    20   6 C    3.930 --    19 C    1.363    24 N    1.309    21 C    1.112
    21   6 C    3.967 --    22 C    1.730    20 C    1.112    36 H    0.976
    22   6 C    3.966 --    21 C    1.730    23 C    1.113    37 H    0.976
    23   6 C    3.929 --     1 C    1.364    24 N    1.307    22 C    1.113
    24   7 N    3.016 --    20 C    1.309    23 C    1.307
    25   1 H    1.001 --     1 C    0.972
    26   1 H    0.998 --     3 C    0.977
    27   1 H    0.998 --     4 C    0.977
    28   1 H    0.986 --     6 N    0.873
    29   1 H    1.002 --     7 C    0.971
    30   1 H    0.998 --     9 C    0.976
    31   1 H    1.002 --    10 C    0.975
    32   1 H    1.001 --    15 C    0.975
    33   1 H    0.998 --    16 C    0.977
    34   1 H    0.987 --    18 N    0.873
    35   1 H    1.002 --    19 C    0.971
    36   1 H    0.998 --    21 C    0.976
    37   1 H    0.998 --    22 C    0.976
    38   6 C    3.930 --    60 C    1.364    39 C    1.349    62 H    0.972
    39   6 C    3.903 --    38 C    1.349    40 C    1.225    43 N    1.172
    40   6 C    3.954 --    41 C    1.602    39 C    1.225    63 H    0.977
    41   6 C    3.958 --    40 C    1.602    42 C    1.226    64 H    0.977
    42   6 C    3.897 --    44 C    1.342    41 C    1.226    43 N    1.175
    43   7 N    3.472 --    42 C    1.175    39 C    1.172    65 H    0.873
    44   6 C    3.945 --    45 C    1.380    42 C    1.342    66 H    0.971
    45   6 C    3.915 --    44 C    1.380    48 N    1.277    46 C    1.118
    46   6 C    3.965 --    47 C    1.718    45 C    1.118    67 H    0.976
    47   6 C    3.964 --    46 C    1.718    49 C    1.124    68 H    0.975
    48   7 N    3.026 --    49 C    1.354    45 C    1.277
    49   6 C    3.908 --    48 N    1.354    50 C    1.250    47 C    1.124
    50   6 C    3.942 --    51 C    1.252    49 C    1.250   106 C    1.196
    51   6 C    3.884 --    50 C    1.252    52 C    1.244    55 N    1.193
    52   6 C    3.959 --    53 C    1.590    51 C    1.244    69 H    0.975
    53   6 C    3.953 --    52 C    1.590    54 C    1.232    70 H    0.977
    54   6 C    3.899 --    56 C    1.351    53 C    1.232    55 N    1.161
    55   7 N    3.476 --    51 C    1.193    54 C    1.161    71 H    0.873
    56   6 C    3.929 --    57 C    1.363    54 C    1.351    72 H    0.971
    57   6 C    3.930 --    56 C    1.363    61 N    1.309    58 C    1.112
    58   6 C    3.967 --    59 C    1.730    57 C    1.112    73 H    0.976
    59   6 C    3.966 --    58 C    1.730    60 C    1.113    74 H    0.976
    60   6 C    3.929 --    38 C    1.364    61 N    1.307    59 C    1.113
    61   7 N    3.016 --    57 C    1.309    60 C    1.307
    62   1 H    1.001 --    38 C    0.972
    63   1 H    0.998 --    40 C    0.977
    64   1 H    0.998 --    41 C    0.977
    65   1 H    0.986 --    43 N    0.873
    66   1 H    1.002 --    44 C    0.971
    67   1 H    0.998 --    46 C    0.976
    68   1 H    1.002 --    47 C    0.975
    69   1 H    1.001 --    52 C    0.975
    70   1 H    0.998 --    53 C    0.977
    71   1 H    0.987 --    55 N    0.873
    72   1 H    1.002 --    56 C    0.971
    73   1 H    0.998 --    58 C    0.976
    74   1 H    0.998 --    59 C    0.976
    75   6 C    3.877 --    76 C    2.435    13 C    1.196    78 C    0.186
    76   6 C    3.933 --    75 C    2.435    77 C    1.347
    77   6 C    3.891 --    78 C    2.331    76 C    1.347    80 C    0.182
    78   6 C    3.924 --    77 C    2.331    79 C    1.372    75 C    0.186
    79   6 C    3.922 --    80 C    2.330    78 C    1.372    82 C    0.186
    80   6 C    3.892 --    79 C    2.330    81 C    1.349    77 C    0.182
    81   6 C    3.929 --    82 C    2.432    80 C    1.349
    82   6 C    3.877 --    81 C    2.432   107 C    1.200    79 C    0.186
    83   6 C    3.876 --    84 C    2.430   119 C    1.201    86 C    0.185
    84   6 C    3.929 --    83 C    2.430    85 C    1.349
    85   6 C    3.891 --    86 C    2.328    84 C    1.349    88 C    0.181
    86   6 C    3.922 --    85 C    2.328    87 C    1.374    83 C    0.185
    87   6 C    3.922 --    88 C    2.328    86 C    1.374    90 C    0.185
    88   6 C    3.891 --    87 C    2.328    89 C    1.349    85 C    0.181
    89   6 C    3.929 --    90 C    2.430    88 C    1.349
    90   6 C    3.876 --    89 C    2.430   143 C    1.201    87 C    0.185
    91   6 C    3.876 --    92 C    2.430   155 C    1.201    94 C    0.185
    92   6 C    3.929 --    91 C    2.430    93 C    1.349
    93   6 C    3.891 --    94 C    2.328    92 C    1.349    96 C    0.181
    94   6 C    3.922 --    93 C    2.328    95 C    1.374    91 C    0.185
    95   6 C    3.922 --    96 C    2.328    94 C    1.374    98 C    0.185
    96   6 C    3.891 --    95 C    2.328    97 C    1.349    93 C    0.181
    97   6 C    3.929 --    98 C    2.430    96 C    1.349
    98   6 C    3.876 --    97 C    2.430   179 C    1.201    95 C    0.185
    99   6 C    3.877 --   100 C    2.432   191 C    1.200   102 C    0.186
   100   6 C    3.929 --    99 C    2.432   101 C    1.348
   101   6 C    3.892 --   102 C    2.330   100 C    1.348   104 C    0.182
   102   6 C    3.922 --   101 C    2.330   103 C    1.372    99 C    0.186
   103   6 C    3.924 --   104 C    2.331   102 C    1.372   106 C    0.186
   104   6 C    3.891 --   103 C    2.331   105 C    1.347   101 C    0.182
   105   6 C    3.933 --   106 C    2.435   104 C    1.347
   106   6 C    3.877 --   105 C    2.435    50 C    1.196   103 C    0.186
   107   6 C    3.928 --   129 C    1.249   108 C    1.247    82 C    1.200
   108   6 C    3.884 --   109 C    1.250   107 C    1.247   112 N    1.193
   109   6 C    3.956 --   110 C    1.583   108 C    1.250   131 H    0.975
   110   6 C    3.954 --   109 C    1.583   111 C    1.238   132 H    0.977
   111   6 C    3.894 --   113 C    1.338   110 C    1.238   112 N    1.164
   112   7 N    3.473 --   108 C    1.193   111 C    1.164   133 H    0.872
   113   6 C    3.932 --   114 C    1.383   111 C    1.338   134 H    0.970
   114   6 C    3.917 --   113 C    1.383   117 N    1.274   115 C    1.119
   115   6 C    3.965 --   116 C    1.717   114 C    1.119   135 H    0.976
   116   6 C    3.963 --   115 C    1.717   118 C    1.125   136 H    0.975
   117   7 N    3.014 --   118 C    1.354   114 C    1.274
   118   6 C    3.908 --   117 N    1.354   119 C    1.248   116 C    1.125
   119   6 C    3.928 --   118 C    1.248   120 C    1.247    83 C    1.201
   120   6 C    3.884 --   121 C    1.249   119 C    1.247   124 N    1.193
   121   6 C    3.956 --   122 C    1.583   120 C    1.249   137 H    0.975
   122   6 C    3.954 --   121 C    1.583   123 C    1.238   138 H    0.977
   123   6 C    3.894 --   125 C    1.339   122 C    1.238   124 N    1.163
   124   7 N    3.472 --   120 C    1.193   123 C    1.163   139 H    0.872
   125   6 C    3.932 --   126 C    1.381   123 C    1.339   140 H    0.970
   126   6 C    3.917 --   125 C    1.381   130 N    1.275   127 C    1.119
   127   6 C    3.965 --   128 C    1.716   126 C    1.119   141 H    0.976
   128   6 C    3.964 --   127 C    1.716   129 C    1.125   142 H    0.975
   129   6 C    3.908 --   130 N    1.353   107 C    1.249   128 C    1.125
   130   7 N    3.014 --   129 C    1.353   126 C    1.275
   131   1 H    1.001 --   109 C    0.975
   132   1 H    0.998 --   110 C    0.977
   133   1 H    0.986 --   112 N    0.872
   134   1 H    1.002 --   113 C    0.970
   135   1 H    0.998 --   115 C    0.976
   136   1 H    1.002 --   116 C    0.975
   137   1 H    1.001 --   121 C    0.975
   138   1 H    0.998 --   122 C    0.977
   139   1 H    0.986 --   124 N    0.872
   140   1 H    1.002 --   125 C    0.970
   141   1 H    0.998 --   127 C    0.976
   142   1 H    1.002 --   128 C    0.975
   143   6 C    3.928 --   165 C    1.249   144 C    1.247    90 C    1.201
   144   6 C    3.884 --   145 C    1.249   143 C    1.247   148 N    1.193
   145   6 C    3.956 --   146 C    1.583   144 C    1.249   167 H    0.975
   146   6 C    3.954 --   145 C    1.583   147 C    1.238   168 H    0.977
   147   6 C    3.894 --   149 C    1.339   146 C    1.238   148 N    1.164
   148   7 N    3.473 --   144 C    1.193   147 C    1.164   169 H    0.872
   149   6 C    3.932 --   150 C    1.382   147 C    1.339   170 H    0.970
   150   6 C    3.917 --   149 C    1.382   153 N    1.275   151 C    1.119
   151   6 C    3.965 --   152 C    1.716   150 C    1.119   171 H    0.976
   152   6 C    3.963 --   151 C    1.716   154 C    1.125   172 H    0.975
   153   7 N    3.014 --   154 C    1.353   150 C    1.275
   154   6 C    3.908 --   153 N    1.353   155 C    1.249   152 C    1.125
   155   6 C    3.928 --   154 C    1.249   156 C    1.247    91 C    1.201
   156   6 C    3.884 --   157 C    1.249   155 C    1.247   160 N    1.193
   157   6 C    3.956 --   158 C    1.583   156 C    1.249   173 H    0.975
   158   6 C    3.954 --   157 C    1.583   159 C    1.238   174 H    0.977
   159   6 C    3.894 --   161 C    1.339   158 C    1.238   160 N    1.164
   160   7 N    3.473 --   156 C    1.193   159 C    1.164   175 H    0.872
   161   6 C    3.932 --   162 C    1.382   159 C    1.339   176 H    0.970
   162   6 C    3.917 --   161 C    1.382   166 N    1.275   163 C    1.119
   163   6 C    3.965 --   164 C    1.716   162 C    1.119   177 H    0.976
   164   6 C    3.963 --   163 C    1.716   165 C    1.125   178 H    0.975
   165   6 C    3.908 --   166 N    1.353   143 C    1.249   164 C    1.125
   166   7 N    3.014 --   165 C    1.353   162 C    1.275
   167   1 H    1.001 --   145 C    0.975
   168   1 H    0.998 --   146 C    0.977
   169   1 H    0.986 --   148 N    0.872
   170   1 H    1.002 --   149 C    0.970
   171   1 H    0.998 --   151 C    0.976
   172   1 H    1.002 --   152 C    0.975
   173   1 H    1.001 --   157 C    0.975
   174   1 H    0.998 --   158 C    0.977
   175   1 H    0.986 --   160 N    0.872
   176   1 H    1.002 --   161 C    0.970
   177   1 H    0.998 --   163 C    0.976
   178   1 H    1.002 --   164 C    0.975
   179   6 C    3.928 --   201 C    1.248   180 C    1.247    98 C    1.201
   180   6 C    3.884 --   181 C    1.249   179 C    1.247   184 N    1.193
   181   6 C    3.956 --   182 C    1.583   180 C    1.249   203 H    0.975
   182   6 C    3.954 --   181 C    1.583   183 C    1.238   204 H    0.977
   183   6 C    3.894 --   185 C    1.339   182 C    1.238   184 N    1.163
   184   7 N    3.472 --   180 C    1.193   183 C    1.163   205 H    0.872
   185   6 C    3.932 --   186 C    1.381   183 C    1.339   206 H    0.970
   186   6 C    3.917 --   185 C    1.381   189 N    1.276   187 C    1.119
   187   6 C    3.965 --   188 C    1.716   186 C    1.119   207 H    0.976
   188   6 C    3.964 --   187 C    1.716   190 C    1.125   208 H    0.975
   189   7 N    3.014 --   190 C    1.353   186 C    1.276
   190   6 C    3.908 --   189 N    1.353   191 C    1.249   188 C    1.125
   191   6 C    3.928 --   190 C    1.249   192 C    1.247    99 C    1.200
   192   6 C    3.884 --   193 C    1.250   191 C    1.247   196 N    1.193
   193   6 C    3.956 --   194 C    1.583   192 C    1.250   209 H    0.975
   194   6 C    3.954 --   193 C    1.583   195 C    1.238   210 H    0.977
   195   6 C    3.894 --   197 C    1.338   194 C    1.238   196 N    1.164
   196   7 N    3.473 --   192 C    1.193   195 C    1.164   211 H    0.872
   197   6 C    3.932 --   198 C    1.383   195 C    1.338   212 H    0.970
   198   6 C    3.917 --   197 C    1.383   202 N    1.274   199 C    1.119
   199   6 C    3.965 --   200 C    1.717   198 C    1.119   213 H    0.976
   200   6 C    3.963 --   199 C    1.717   201 C    1.125   214 H    0.975
   201   6 C    3.908 --   202 N    1.354   179 C    1.248   200 C    1.125
   202   7 N    3.014 --   201 C    1.354   198 C    1.274
   203   1 H    1.001 --   181 C    0.975
   204   1 H    0.998 --   182 C    0.977
   205   1 H    0.986 --   184 N    0.872
   206   1 H    1.002 --   185 C    0.970
   207   1 H    0.998 --   187 C    0.976
   208   1 H    1.002 --   188 C    0.975
   209   1 H    1.001 --   193 C    0.975
   210   1 H    0.998 --   194 C    0.977
   211   1 H    0.986 --   196 N    0.872
   212   1 H    1.002 --   197 C    0.970
   213   1 H    0.998 --   199 C    0.976
   214   1 H    1.002 --   200 C    0.975
 ---------------------------------------------------------------------------

           -------------------------------------------------
          | TOTAL ENERGY             -375.293801037912 Eh   |
          | GRADIENT NORM               0.000392407724 Eh/α |
          | HOMO-LUMO GAP               0.786365447562 eV   |
           -------------------------------------------------

 * finished run on 2022/07/26 at 17:01:22.659
