   * xtb version 6.5.1 (b24c23e) compiled by 'conda@728c89f4b128' on 2022-07-12
          program call               : xtb Fe_DHP_C4_3.xyz --gfn 1 --opt -T 48

   ID    Z sym.   atoms
    1   26 Fe     1, 59, 125
    2    6 C      2-6, 8-11, 13-17, 19-24, 26-29, 31-36, 60-64, 66-69, 71-75,
                  77-82, 84-87, 89-94, 117-124, 126-130, 132-135, 137-141,
                  143-148, 150-153, 155-160
    3    7 N      7, 12, 18, 25, 30, 37, 65, 70, 76, 83, 88, 95, 131, 136,
                  142, 149, 154, 161
    4    1 H      38-58, 96-116, 162-181
########################################################################
[WARNING] Please study the warnings concerning your input carefully
-1- prog_main_parseArguments: Unknown option '-T' provided
########################################################################

          :  Hamiltonian                  GFN1-xTB          :
 * total energy  :  -305.8962367 Eh     change        0.1402958E-07 Eh
 * total energy  :  -306.1545857 Eh     change       -0.2583490E+00 Eh
 * total energy  :  -306.3125295 Eh     change       -0.1579438E+00 Eh
 * total energy  :  -306.3910974 Eh     change       -0.7856795E-01 Eh
 * total energy  :  -306.4464534 Eh     change       -0.5535600E-01 Eh
 * total energy  :  -306.4846182 Eh     change       -0.3816481E-01 Eh
 * total energy  :  -306.5126638 Eh     change       -0.2804552E-01 Eh
 * total energy  :  -306.5346632 Eh     change       -0.2199940E-01 Eh
 * total energy  :  -306.5524185 Eh     change       -0.1775537E-01 Eh
 * total energy  :  -306.5681574 Eh     change       -0.1573883E-01 Eh
 * total energy  :  -306.7416801 Eh     change       -0.5985387E-04 Eh
 * total energy  :  -306.7417431 Eh     change       -0.6297476E-04 Eh
 * total energy  :  -306.7418022 Eh     change       -0.5919160E-04 Eh
 * total energy  :  -306.7418447 Eh     change       -0.4247579E-04 Eh
 * total energy  :  -306.7418564 Eh     change       -0.1167920E-04 Eh
 * total energy  :  -306.7418626 Eh     change       -0.6238654E-05 Eh
 * total energy  :  -306.7418368 Eh     change        0.2584650E-04 Eh
 * total energy  :  -306.7418939 Eh     change       -0.5708185E-04 Eh
 * total energy  :  -306.7418988 Eh     change       -0.4960456E-05 Eh
   *** GEOMETRY OPTIMIZATION CONVERGED AFTER 98 ITERATIONS ***

 final structure:
================
181
 xtb: 6.5.1 (b24c23e)
Fe          27.89067617998418        0.29837873847153        0.14175450509704
C           24.50094436854182        0.23053033462511        0.03029914056273
C           25.16581688783031       -0.97416068365429        0.12597867620461
C           24.49929067661015       -2.23902199707125        0.20380377619845
C           25.46657948842311       -3.18563888008375        0.22736187163824
C           26.72339663816769       -2.49724650952533        0.15239134597271
N           26.52554085755401       -1.14261471440253        0.11973697268035
C           27.95615334132386       -3.13736537038001        0.10532886332198
C           27.98878864259141       -4.61907710354783        0.07280307850803
C           27.44773918574397       -5.30955839903385       -0.94378147085913
C           27.46001499161721       -6.81305157550608       -1.00746101287019
N           28.35741267712624       -7.38466236056817       -0.00220881740790
C           28.76054586559786       -6.66941032213979        1.08901391404009
C           28.63746325931078       -5.33014982840755        1.16173726766840
C           29.16193805707957       -2.44961550513646        0.08283587467775
C           30.44068187833379       -3.09072485823128       -0.00103700622824
C           31.37334333070470       -2.10950033227808        0.03689542823576
N           29.31435489805419       -1.08545546588359        0.14295955040547
C           30.66235198397967       -0.87295449737080        0.13469109822691
C           31.30071347637185        0.36660953135714        0.23288415045897
C           30.60877697653465        1.57935061045252        0.30101026834282
C           31.26312120902302        2.84202145750246        0.44757240468810
C           30.29069276009323        3.78462183001206        0.44853579483461
C           29.04505740713776        3.09449530283005        0.28941001708104
N           29.25558630073245        1.73811802913481        0.22422409120382
C           27.81563127763234        3.73384617932807        0.20298896008569
C           27.78395124131535        5.21487166841936        0.25366388203840
C           27.14322025478952        5.86806061628985        1.23655504775138
C           27.08584314389453        7.36987505997882        1.31468148186242
N           28.04522678950005        7.98951125977230        0.39916302676646
C           28.54924655636112        7.30959675735480       -0.67336340837324
C           28.47886467926632        5.96868279397829       -0.77674997315201
C           26.61520288934842        3.04526026759505        0.07184058993291
C           25.33950075218978        3.68355753183275       -0.08409048512457
C           24.41202244453861        2.69888774933573       -0.13426594560740
C           25.12217307892988        1.46104114213488       -0.01823411731006
N           26.47048129683939        1.68364590534712        0.08184372769248
H           23.41742282539813        0.20898894406431       -0.00672048626186
H           23.42864564969851       -2.36547264650116        0.23863167100494
H           25.35219358090991       -4.25528695130424        0.29711724257536
H           26.96301831094571       -4.81164840919853       -1.77542937223495
H           27.79771487164880       -7.14761614390560       -1.99883892274155
H           26.43761383630314       -7.20834426140356       -0.86393767425056
H           28.29136146207266       -8.38603525263073        0.10096408048683
H           29.24935372391473       -7.25472028892559        1.86125631284789
H           29.00201462928855       -4.77857149053543        2.01649711058320
H           30.59413229613723       -4.15459420456559       -0.08209637564582
H           32.44725936267199       -2.19826237938277        0.00042336582747
H           32.32915243584137        2.97348280094744        0.54130065315456
H           30.39709114007540        4.85244402729637        0.55015678309282
H           26.62219707361723        5.33903565178576        2.02595020821731
H           27.31970043994906        7.70583662003034        2.33478836756879
H           26.06435453010295        7.72431845747595        1.08334396592124
H           27.95126638482005        8.98980730237419        0.30647037995183
H           29.07222856488539        7.92561947023001       -1.39784595602356
H           28.92175889685424        5.44623883347599       -1.61262397982086
H           25.18659522578860        4.74829765505315       -0.15488396436304
H           23.34205526799434        2.78293825452008       -0.24189864580278
Fe          54.67893487264631        0.19857903318515        0.16523494225325
C           58.06146890938459        0.24342238043103        0.17692647208477
C           57.39789169210344        1.41048522449347        0.49648573416850
C           58.05554537636030        2.62673564216326        0.86904389970043
C           57.09265651845291        3.57357649884810        0.97074546207590
C           55.84790673578431        2.93756575537739        0.64658462975585
N           56.04405776821010        1.60333171638823        0.40880024340758
C           54.63433492274559        3.60512783946573        0.52289871771419
C           54.60479462142349        5.07689755528579        0.68403627344094
C           55.31741210616423        5.89033139211905       -0.11242061364801
C           55.31148622090968        7.38754573844728        0.04097028516242
N           54.21218721517304        7.83189236842280        0.89936644025631
C           53.63103517322473        6.98480879410639        1.80159272520854
C           53.76336900406890        5.64727742645150        1.72377544802193
C           53.44038595992964        2.94368728082951        0.26292619672228
C           52.18144626504228        3.60162515761290        0.07538738666110
C           51.24129911081310        2.63003973773475       -0.01523468077796
N           53.27382947519330        1.58102453983031        0.22559636713380
C           51.92868842119276        1.38227110662979        0.10581630479891
C           51.27843198614688        0.14863793420180        0.21265111685729
C           51.96560665729135       -1.06632744654131        0.27522864314336
C           51.31696997105804       -2.33568841444523        0.38432031409107
C           52.28016425556967       -3.27753200165319        0.23710279863337
C           53.51561730158053       -2.57956700659339        0.03724757401706
N           53.31187143244087       -1.22377032963358        0.10899223016883
C           54.72624462550613       -3.20186152825540       -0.24282222896448
C           54.74029432113188       -4.67191582857493       -0.42296583585040
C           55.47424331703965       -5.47220612938766        0.36761517805964
C           55.51789527087704       -6.96701114505921        0.19936780911727
N           54.45987204678363       -7.43616979659927       -0.69663539284174
C           53.84895342743888       -6.59455779188436       -1.58255176524977
C           53.92455427065408       -5.25427294574815       -1.47572278420672
C           55.92174181410455       -2.50022036401072       -0.35194238220405
C           57.18577299889271       -3.09953567718682       -0.67223226128949
C           58.12384572388548       -2.13182126969422       -0.54014743966493
C           57.43153942282162       -0.93804167223963       -0.15804975893493
N           56.08205822565888       -1.16531240301912       -0.09104606029551
H           59.14565711881727        0.25677945498763        0.18475354099943
H           59.11811092029495        2.72470474536152        1.02680356830302
H           57.20301257009201        4.61079466342208        1.24323860146655
H           55.94529408077823        5.50355015603621       -0.90649001679538
H           55.19496342564962        7.86897160180576       -0.93992217547702
H           56.27617084399787        7.73124899013430        0.45833167683896
H           54.24430134931156        8.80984566647963        1.14633848102106
H           52.99658999666788        7.46844411426743        2.53737956028319
H           53.25967228374162        4.99216588607458        2.42022251631944
H           52.04433944582792        4.66950673462665        0.02196936232623
H           50.17646438703418        2.73404825275746       -0.14866279459624
H           50.25901399259401       -2.47138613640619        0.54281942090559
H           52.17446783006556       -4.35010243962789        0.26186247636723
H           56.08516257404912       -5.07512438136598        1.16985264472062
H           55.38792212099712       -7.46224470088817        1.17209608290575
H           56.50452400790264       -7.27680399674630       -0.19194061006415
H           54.53211992026535       -8.40749485543245       -0.95984771699790
H           53.24207995351086       -7.08829779224427       -2.33472312102788
H           53.39829535241797       -4.60625179922958       -2.16198765667637
H           57.32547111079506       -4.12849664107178       -0.96198648702903
H           59.19045458197387       -2.20117504001586       -0.68534524714002
C           33.92654484062918        0.42365654727011        0.31320410164202
C           32.70531424635251        0.39544844872605        0.27259110827311
C           35.27449361441157        0.46142228032719        0.36967728782405
C           36.49460468265907        0.50435441487233        0.43139575289576
C           47.30567297216749        0.25186601181902        0.37798162915840
C           46.08864288963627        0.34033971120197        0.44510843868274
C           48.65313295809127        0.18469559946320        0.31558103705365
C           49.87326014224966        0.14320982217071        0.26416622178787
Fe          41.29486052728198        0.66583575844662        0.64262149080767
C           37.89509732606614        0.56459386460514        0.50814524950335
C           38.56412236332348        1.55617270882983       -0.22137477085179
C           37.89779666745461        2.57408243982849       -0.97052142487186
C           38.86345405279663        3.28675673131607       -1.60141296189369
C           40.11493577072368        2.67789542150350       -1.26097408922236
N           39.91513727845828        1.65157543042845       -0.36887625770629
C           41.33077268211039        3.00190004936894       -1.84903629214100
C           41.36060462557690        4.02892265244616       -2.91450046623307
C           40.64789823269225        3.88785321087339       -4.04486962753047
C           40.70076587298672        4.88318802082468       -5.17128498946203
N           41.35224608114149        6.12650110017589       -4.75682636281513
C           42.17380242243286        6.17433895643536       -3.66648595610009
C           42.19779042246169        5.20293349046233       -2.73418178599523
C           42.52338238039711        2.36640615690634       -1.51534921897345
C           43.76074567556679        2.56698145666342       -2.20787631606039
C           44.69353553529349        1.82023600149514       -1.56737203348661
N           42.69384353138940        1.48027695884619       -0.48321118329747
C           44.02545346114267        1.17618704679229       -0.48020989315148
C           44.69006130255500        0.45527461070712        0.51628392666503
C           44.02619097660391       -0.10207265104082        1.61603178429475
C           44.69904644286684       -0.67497826793864        2.73869576504372
C           43.73628006768354       -1.13462239044360        3.57556511796177
C           42.47869862452104       -0.87711428101098        2.93932635439559
N           42.67441676433786       -0.19256851270070        1.76361155122377
C           41.25741019215488       -1.36770468341915        3.38430441797481
C           41.21447449306417       -2.20181439624279        4.60623244162941
C           41.90545492838925       -3.34916773394585        4.70913521199275
C           41.87567706812602       -4.20888940445515        5.94383549245490
N           40.78983108906402       -3.81632786283665        6.84344463094889
C           40.22252969687132       -2.57543310602115        6.77703108082447
C           40.37021034888651       -1.76988504137643        5.70816968197278
C           40.06376598855380       -1.14301735798087        2.70443554202549
C           38.82256857050540       -1.77850034012234        3.03156099774145
C           37.89074264277227       -1.27748897014361        2.18418319133674
C           38.56186529861418       -0.32506728377888        1.35572725486974
N           39.89578041336389       -0.28678358782215        1.64735470525054
H           36.82960346114043        2.71892805099883       -0.99409570406694
H           38.74727093555640        4.14555020265723       -2.24232158688141
H           40.04897946796795        3.00433265864766       -4.23266848632847
H           41.23380162924872        4.45055247362711       -6.03798028796450
H           39.68274943240091        5.12499000294790       -5.50852702510663
H           41.54927773050218        6.76894594665854       -5.50951072716631
H           42.74954767926276        7.08941749903100       -3.57180136606280
H           42.80597610829621        5.29324861150715       -1.84553352925517
H           43.88812019172286        3.19126995322034       -3.07756454200302
H           45.74313277862237        1.71630394496350       -1.79112388216699
H           45.76951881881299       -0.70062438618061        2.86534660596372
H           43.85984752776449       -1.60802122670556        4.53594745913478
H           42.52681368031844       -3.71498662898694        3.90018678896892
H           42.84346227215825       -4.14518202039407        6.47455904608425
H           41.72825985096969       -5.26263745175402        5.66835255616034
H           40.81035044713667       -4.26505510579240        7.74687925524255
H           39.58802581224280       -2.31903208850700        7.61932430482229
H           39.87566358629959       -0.81048867078250        5.65552656641745
H           38.69330065386887       -2.51830861823364        3.80484827151853
H           36.83893821582811       -1.50745138482741        2.12621701735375

          :  Hamiltonian                  GFN1-xTB          :
         :: total energy            -306.741898846446 Eh    ::
         :: gradient norm              0.000778017792 Eh/a0 ::
         :: HOMO-LUMO gap              0.056135586815 eV    ::
         :: SCC energy              -311.543623197903 Eh    ::
         :: repulsion energy           4.963436235527 Eh    ::

    * Orbital Energies and Occupations

         #    Occupation            Energy/Eh            Energy/eV
      -------------------------------------------------------------
         1        2.0000           -0.7871755             -21.4201
       ...           ...                  ...                  ...
       272        1.9931           -0.3733992             -10.1607
       273        1.9919           -0.3732571             -10.1568
       274        1.9819           -0.3724821             -10.1358
       275        1.9805           -0.3724131             -10.1339
       276        1.9741           -0.3721404             -10.1265
       277        1.9698           -0.3719924             -10.1224
       278        1.9649           -0.3718473             -10.1185
       279        1.9626           -0.3717841             -10.1168
       280        1.9606           -0.3717354             -10.1154
       281        1.9579           -0.3716714             -10.1137
       282        1.9557           -0.3716217             -10.1123
       283        1.8975           -0.3707955             -10.0899
       284        1.3547           -0.3687273             -10.0336 (HOMO)
       285        0.3863           -0.3666644              -9.9774 (LUMO)
       286        0.3426           -0.3665251              -9.9737
       287        0.3375           -0.3665078              -9.9732
       288                         -0.3278291              -8.9207
       289                         -0.3190014              -8.6805
       290                         -0.3164575              -8.6112
       291                         -0.3144064              -8.5554
       292                         -0.3143648              -8.5543
       293                         -0.3142608              -8.5515
       294                         -0.2918307              -7.9411
       295                         -0.2866091              -7.7990
       ...                                ...                  ...
       615                          1.5248599              41.4935
      -------------------------------------------------------------
                  HL-Gap            0.0020629 Eh            0.0561 eV

Wiberg/Mayer (AO) data.
largest (>0.10) Wiberg bond orders for each atom

     #   Z sym  total        # sym  WBO       # sym  WBO       # sym  WBO
 ---------------------------------------------------------------------------
     1  26 Fe   3.091 --    37 N    0.661     7 N    0.661    18 N    0.656
                            25 N    0.656
     2   6 C    3.926 --    36 C    1.364     3 C    1.364    38 H    0.971
     3   6 C    3.928 --     2 C    1.364     7 N    1.212     4 C    1.173
     4   6 C    3.960 --     5 C    1.649     3 C    1.173    39 H    0.975
     5   6 C    3.963 --     4 C    1.649     6 C    1.174    40 H    0.973
     6   6 C    3.923 --     8 C    1.319     7 N    1.224     5 C    1.174
     7   7 N    3.377 --     6 C    1.224     3 C    1.212     1 Fe   0.661
     8   6 C    3.930 --    15 C    1.330     6 C    1.319     9 C    1.025
     9   6 C    3.982 --    10 C    1.753    14 C    1.107     8 C    1.025
    10   6 C    3.944 --     9 C    1.753    11 C    1.015    41 H    0.972
    11   6 C    3.956 --    10 C    1.015    42 H    0.973    43 H    0.964
                            12 N    0.947
    12   7 N    3.246 --    13 C    1.176    11 C    0.947    44 H    0.925
                            14 C    0.121
    13   6 C    3.946 --    14 C    1.669    12 N    1.176    45 H    0.970
    14   6 C    3.943 --    13 C    1.669     9 C    1.107    46 H    0.974
                            12 N    0.121
    15   6 C    3.918 --     8 C    1.330    18 N    1.206    16 C    1.180
    16   6 C    3.959 --    17 C    1.640    15 C    1.180    47 H    0.972
    17   6 C    3.961 --    16 C    1.640    19 C    1.187    48 H    0.973
    18   7 N    3.381 --    19 C    1.240    15 C    1.206     1 Fe   0.656
    19   6 C    3.908 --    20 C    1.262    18 N    1.240    17 C    1.187
    20   6 C    3.930 --    19 C    1.262    21 C    1.261   118 C    1.184
    21   6 C    3.908 --    20 C    1.261    25 N    1.240    22 C    1.187
    22   6 C    3.961 --    23 C    1.640    21 C    1.187    49 H    0.973
    23   6 C    3.959 --    22 C    1.640    24 C    1.180    50 H    0.972
    24   6 C    3.918 --    26 C    1.330    25 N    1.205    23 C    1.180
    25   7 N    3.381 --    21 C    1.240    24 C    1.205     1 Fe   0.656
    26   6 C    3.930 --    24 C    1.330    33 C    1.318    27 C    1.026
    27   6 C    3.982 --    28 C    1.752    32 C    1.106    26 C    1.026
    28   6 C    3.944 --    27 C    1.752    29 C    1.015    51 H    0.972
    29   6 C    3.956 --    28 C    1.015    52 H    0.973    53 H    0.964
                            30 N    0.947
    30   7 N    3.244 --    31 C    1.174    29 C    0.947    54 H    0.926
                            32 C    0.120
    31   6 C    3.947 --    32 C    1.671    30 N    1.174    55 H    0.970
    32   6 C    3.944 --    31 C    1.671    27 C    1.106    56 H    0.974
                            30 N    0.120
    33   6 C    3.923 --    26 C    1.318    37 N    1.224    34 C    1.175
    34   6 C    3.963 --    35 C    1.649    33 C    1.175    57 H    0.973
    35   6 C    3.960 --    34 C    1.649    36 C    1.173    58 H    0.975
    36   6 C    3.928 --     2 C    1.364    37 N    1.211    35 C    1.173
    37   7 N    3.378 --    33 C    1.224    36 C    1.211     1 Fe   0.661
    38   1 H    1.001 --     2 C    0.971
    39   1 H    0.998 --     4 C    0.975
    40   1 H    1.006 --     5 C    0.973
    41   1 H    1.003 --    10 C    0.972
    42   1 H    1.014 --    11 C    0.973
    43   1 H    1.003 --    11 C    0.964
    44   1 H    0.961 --    12 N    0.925
    45   1 H    1.001 --    13 C    0.970
    46   1 H    1.003 --    14 C    0.974
    47   1 H    1.005 --    16 C    0.972
    48   1 H    1.002 --    17 C    0.973
    49   1 H    1.002 --    22 C    0.973
    50   1 H    1.005 --    23 C    0.972
    51   1 H    1.003 --    28 C    0.972
    52   1 H    1.014 --    29 C    0.973
    53   1 H    1.002 --    29 C    0.964
    54   1 H    0.961 --    30 N    0.926
    55   1 H    1.001 --    31 C    0.970
    56   1 H    1.003 --    32 C    0.974
    57   1 H    1.006 --    34 C    0.973
    58   1 H    0.998 --    35 C    0.975
    59  26 Fe   3.125 --    95 N    0.666    65 N    0.665    76 N    0.662
                            83 N    0.661
    60   6 C    3.928 --    61 C    1.364    94 C    1.363    96 H    0.971
    61   6 C    3.928 --    60 C    1.364    65 N    1.209    62 C    1.173
    62   6 C    3.960 --    63 C    1.649    61 C    1.173    97 H    0.975
    63   6 C    3.963 --    62 C    1.649    64 C    1.175    98 H    0.973
    64   6 C    3.924 --    66 C    1.318    65 N    1.222    63 C    1.175
    65   7 N    3.379 --    64 C    1.222    61 C    1.209    59 Fe   0.665
    66   6 C    3.933 --    73 C    1.326    64 C    1.318    67 C    1.030
    67   6 C    3.982 --    68 C    1.750    72 C    1.105    66 C    1.030
    68   6 C    3.943 --    67 C    1.750    69 C    1.015    99 H    0.971
    69   6 C    3.957 --    68 C    1.015   100 H    0.974   101 H    0.964
                            70 N    0.948
    70   7 N    3.241 --    71 C    1.171    69 C    0.948   102 H    0.926
                            72 C    0.119
    71   6 C    3.947 --    72 C    1.674    70 N    1.171   103 H    0.970
    72   6 C    3.944 --    71 C    1.674    67 C    1.105   104 H    0.973
                            70 N    0.119
    73   6 C    3.918 --    66 C    1.326    76 N    1.205    74 C    1.180
    74   6 C    3.960 --    75 C    1.639    73 C    1.180   105 H    0.972
    75   6 C    3.962 --    74 C    1.639    77 C    1.187   106 H    0.974
    76   7 N    3.383 --    77 C    1.236    73 C    1.205    59 Fe   0.662
    77   6 C    3.908 --    78 C    1.261    76 N    1.236    75 C    1.187
    78   6 C    3.933 --    79 C    1.267    77 C    1.261   124 C    1.180
    79   6 C    3.909 --    78 C    1.267    83 N    1.234    80 C    1.187
    80   6 C    3.961 --    81 C    1.639    79 C    1.187   107 H    0.974
    81   6 C    3.960 --    80 C    1.639    82 C    1.180   108 H    0.973
    82   6 C    3.918 --    84 C    1.325    83 N    1.207    81 C    1.180
    83   7 N    3.382 --    79 C    1.234    82 C    1.207    59 Fe   0.661
    84   6 C    3.932 --    82 C    1.325    91 C    1.320    85 C    1.029
    85   6 C    3.982 --    86 C    1.749    90 C    1.107    84 C    1.029
    86   6 C    3.942 --    85 C    1.749    87 C    1.015   109 H    0.971
    87   6 C    3.956 --    86 C    1.015   110 H    0.973   111 H    0.964
                            88 N    0.947
    88   7 N    3.244 --    89 C    1.174    87 C    0.947   112 H    0.926
                            90 C    0.120
    89   6 C    3.946 --    90 C    1.671    88 N    1.174   113 H    0.970
    90   6 C    3.942 --    89 C    1.671    85 C    1.107   114 H    0.973
                            88 N    0.120
    91   6 C    3.924 --    84 C    1.320    95 N    1.221    92 C    1.174
    92   6 C    3.963 --    93 C    1.649    91 C    1.174   115 H    0.973
    93   6 C    3.960 --    92 C    1.649    94 C    1.174   116 H    0.975
    94   6 C    3.928 --    60 C    1.363    95 N    1.210    93 C    1.174
    95   7 N    3.379 --    91 C    1.221    94 C    1.210    59 Fe   0.666
    96   1 H    1.001 --    60 C    0.971
    97   1 H    0.998 --    62 C    0.975
    98   1 H    1.006 --    63 C    0.973
    99   1 H    1.004 --    68 C    0.971
   100   1 H    1.014 --    69 C    0.974
   101   1 H    1.002 --    69 C    0.964
   102   1 H    0.961 --    70 N    0.926
   103   1 H    1.001 --    71 C    0.970
   104   1 H    1.003 --    72 C    0.973
   105   1 H    1.005 --    74 C    0.972
   106   1 H    1.002 --    75 C    0.974
   107   1 H    1.002 --    80 C    0.974
   108   1 H    1.005 --    81 C    0.973
   109   1 H    1.004 --    86 C    0.971
   110   1 H    1.014 --    87 C    0.973
   111   1 H    1.002 --    87 C    0.964
   112   1 H    0.961 --    88 N    0.926
   113   1 H    1.001 --    89 C    0.970
   114   1 H    1.003 --    90 C    0.973
   115   1 H    1.006 --    92 C    0.973
   116   1 H    0.998 --    93 C    0.975
   117   6 C    3.930 --   118 C    2.472   119 C    1.309
   118   6 C    3.914 --   117 C    2.472    20 C    1.184   120 C    0.196
   119   6 C    3.925 --   120 C    2.469   117 C    1.309
   120   6 C    3.918 --   119 C    2.469   126 C    1.189   118 C    0.196
   121   6 C    3.925 --   122 C    2.474   123 C    1.304
   122   6 C    3.917 --   121 C    2.474   144 C    1.185   124 C    0.196
   123   6 C    3.931 --   124 C    2.477   121 C    1.304
   124   6 C    3.914 --   123 C    2.477    78 C    1.180   122 C    0.196
   125  26 Fe   3.088 --   161 N    0.655   142 N    0.653   149 N    0.651
                           131 N    0.650
   126   6 C    3.915 --   160 C    1.265   127 C    1.249   120 C    1.189
   127   6 C    3.909 --   126 C    1.249   131 N    1.247   128 C    1.192
   128   6 C    3.961 --   129 C    1.634   127 C    1.192   162 H    0.974
   129   6 C    3.960 --   128 C    1.634   130 C    1.182   163 H    0.973
   130   6 C    3.919 --   132 C    1.328   131 N    1.201   129 C    1.182
   131   7 N    3.370 --   127 C    1.247   130 C    1.201   125 Fe   0.650
   132   6 C    3.922 --   130 C    1.328   139 C    1.311   133 C    1.032
   133   6 C    3.982 --   134 C    1.744   138 C    1.107   132 C    1.032
   134   6 C    3.942 --   133 C    1.744   135 C    1.016   164 H    0.971
   135   6 C    3.957 --   134 C    1.016   166 H    0.971   165 H    0.965
                           136 N    0.947
   136   7 N    3.248 --   137 C    1.175   135 C    0.947   167 H    0.925
                           138 C    0.122
   137   6 C    3.947 --   138 C    1.672   136 N    1.175   168 H    0.970
   138   6 C    3.945 --   137 C    1.672   133 C    1.107   169 H    0.973
                           136 N    0.122
   139   6 C    3.915 --   132 C    1.311   142 N    1.215   140 C    1.184
   140   6 C    3.961 --   141 C    1.635   139 C    1.184   170 H    0.973
   141   6 C    3.960 --   140 C    1.635   143 C    1.189   171 H    0.974
   142   7 N    3.370 --   143 C    1.233   139 C    1.215   125 Fe   0.653
   143   6 C    3.909 --   144 C    1.265   142 N    1.233   141 C    1.189
   144   6 C    3.915 --   143 C    1.265   145 C    1.252   122 C    1.185
   145   6 C    3.911 --   144 C    1.252   149 N    1.246   146 C    1.191
   146   6 C    3.961 --   147 C    1.634   145 C    1.191   172 H    0.974
   147   6 C    3.960 --   146 C    1.634   148 C    1.182   173 H    0.973
   148   6 C    3.919 --   150 C    1.327   149 N    1.202   147 C    1.182
   149   7 N    3.369 --   145 C    1.246   148 C    1.202   125 Fe   0.651
   150   6 C    3.922 --   148 C    1.327   157 C    1.312   151 C    1.032
   151   6 C    3.982 --   152 C    1.747   156 C    1.106   150 C    1.032
   152   6 C    3.942 --   151 C    1.747   153 C    1.015   174 H    0.971
   153   6 C    3.957 --   152 C    1.015   176 H    0.973   175 H    0.964
                           154 N    0.947
   154   7 N    3.246 --   155 C    1.174   153 C    0.947   177 H    0.925
                           156 C    0.121
   155   6 C    3.947 --   156 C    1.672   154 N    1.174   178 H    0.970
   156   6 C    3.945 --   155 C    1.672   151 C    1.106   179 H    0.974
                           154 N    0.121
   157   6 C    3.914 --   150 C    1.312   161 N    1.214   158 C    1.184
   158   6 C    3.961 --   159 C    1.636   157 C    1.184   180 H    0.973
   159   6 C    3.960 --   158 C    1.636   160 C    1.188   181 H    0.974
   160   6 C    3.908 --   126 C    1.265   161 N    1.232   159 C    1.188
   161   7 N    3.370 --   160 C    1.232   157 C    1.214   125 Fe   0.655
   162   1 H    1.002 --   128 C    0.974
   163   1 H    1.007 --   129 C    0.973
   164   1 H    1.004 --   134 C    0.971
   165   1 H    1.004 --   135 C    0.965
   166   1 H    1.013 --   135 C    0.971
   167   1 H    0.961 --   136 N    0.925
   168   1 H    1.001 --   137 C    0.970
   169   1 H    1.003 --   138 C    0.973
   170   1 H    1.005 --   140 C    0.973
   171   1 H    1.002 --   141 C    0.974
   172   1 H    1.002 --   146 C    0.974
   173   1 H    1.006 --   147 C    0.973
   174   1 H    1.004 --   152 C    0.971
   175   1 H    1.002 --   153 C    0.964
   176   1 H    1.014 --   153 C    0.973
   177   1 H    0.961 --   154 N    0.925
   178   1 H    1.001 --   155 C    0.970
   179   1 H    1.003 --   156 C    0.974
   180   1 H    1.005 --   158 C    0.973
   181   1 H    1.002 --   159 C    0.974
 ---------------------------------------------------------------------------

           -------------------------------------------------
          | TOTAL ENERGY             -306.741898846446 Eh   |
          | GRADIENT NORM               0.000778017792 Eh/α |
          | HOMO-LUMO GAP               0.056135586815 eV   |
           -------------------------------------------------

 * finished run on 2022/07/29 at 19:09:20.303
