   * xtb version 6.5.1 (b24c23e) compiled by 'conda@728c89f4b128' on 2022-07-12
          program call               : xtb Ph3Me_C2_3.xyz --gfn 1 --opt -T 48

   ID    Z sym.   atoms
    1    6 C      1-5, 7-19, 21-26, 28-41, 76-80, 82-94, 96-101, 103-116,
                  151-159, 161-173, 175-180, 182-195
    2    7 N      6, 20, 27, 42, 81, 95, 102, 117, 160, 174, 181, 196
    3    1 H      43-75, 118-150, 197-228
########################################################################
[WARNING] Please study the warnings concerning your input carefully
-1- prog_main_parseArguments: Unknown option '-T' provided
########################################################################

          :  Hamiltonian                  GFN1-xTB          :
 * total energy  :  -339.9925898 Eh     change       -0.8093366E-09 Eh
 * total energy  :  -340.2702617 Eh     change       -0.2776719E+00 Eh
 * total energy  :  -340.4037381 Eh     change       -0.1334765E+00 Eh
 * total energy  :  -340.4612636 Eh     change       -0.5752551E-01 Eh
 * total energy  :  -340.4880525 Eh     change       -0.2678881E-01 Eh
 * total energy  :  -340.5086110 Eh     change       -0.2055851E-01 Eh
 * total energy  :  -340.5249774 Eh     change       -0.1636647E-01 Eh
 * total energy  :  -340.5388003 Eh     change       -0.1382289E-01 Eh
 * total energy  :  -340.5505171 Eh     change       -0.1171678E-01 Eh
 * total energy  :  -340.5603269 Eh     change       -0.9809764E-02 Eh
 * total energy  :  -340.5969208 Eh     change       -0.5373161E-05 Eh
 * total energy  :  -340.5969274 Eh     change       -0.6609414E-05 Eh
 * total energy  :  -340.5969347 Eh     change       -0.7301823E-05 Eh
 * total energy  :  -340.5969424 Eh     change       -0.7655378E-05 Eh
 * total energy  :  -340.5969518 Eh     change       -0.9492101E-05 Eh
 * total energy  :  -340.5969633 Eh     change       -0.1148035E-04 Eh
 * total energy  :  -340.5969718 Eh     change       -0.8524379E-05 Eh
 * total energy  :  -340.5969771 Eh     change       -0.5266048E-05 Eh
 * total energy  :  -340.5969821 Eh     change       -0.4985400E-05 Eh
   *** GEOMETRY OPTIMIZATION CONVERGED AFTER 81 ITERATIONS ***

 final structure:
================
228
 xtb: 6.5.1 (b24c23e)
C           32.44280229026016       -0.15202304520725        0.01886631236951
C           33.05462111691015       -1.39889130664641        0.00357924673077
C           32.41548329369538       -2.67110887601905       -0.01491783034133
C           33.38818794598441       -3.63107464723985       -0.01849032238873
C           34.65284133474958       -2.97591632701148       -0.00087888431966
N           34.40070749138172       -1.63302557362970        0.00986550440935
C           35.91474753612778       -3.57378117813760        0.01104386407888
C           35.94344340742609       -5.06626401133162       -0.00519301981926
C           35.98288039075830       -5.74781256971143       -1.22504838080612
C           35.99735862010042       -4.97633795303879       -2.51780332357689
C           36.01316415240709       -7.13746899660888       -1.23127298547228
C           36.00610138760651       -7.85794051309442       -0.04150029792818
C           36.02214796524065       -9.36266649186556       -0.06099902545762
C           35.96519789422074       -7.16952592890620        1.16663216084549
C           35.93427358428995       -5.78018529577232        1.19644661730356
C           35.89650798484469       -5.04305163778158        2.50865917314761
C           37.13419300336170       -2.89748919306512        0.02913407008762
C           38.42070747570538       -3.56976154387181        0.04677289065483
C           39.35825739027667       -2.59912732810958        0.04334893786427
N           37.31079570192480       -1.54778301157419        0.01987869192902
C           38.64307983601755       -1.33739463086554        0.02342841433800
C           39.29129396137022       -0.08732326341045       -0.02012578011414
C           38.65475478493141        1.16647077368793       -0.05326260005571
C           39.28686102411201        2.43865330573539       -0.07548341780846
C           38.31007514290031        3.39564633278442       -0.06118533850208
C           37.05029046583346        2.73527124232431       -0.03008977566173
N           37.31024147393685        1.39047126372475       -0.03130751425961
C           35.78985167214271        3.33494730348052        0.00560383745511
C           35.76479329104527        4.82710835151222        0.02517952615160
C           35.72792723834815        5.54255453979598       -1.17503093224609
C           35.70994922058011        4.80710718437917       -2.48856037250859
C           35.71119591397327        6.93208767614450       -1.14248050259338
C           35.73140974519070        7.61918518953019        0.06686807811352
C           35.69520743830800        9.12349974735902        0.08932214795133
C           35.76487739241345        6.89711956541570        1.25527464751506
C           35.78221043754240        5.50729431131201        1.24635676227082
C           35.82222410722726        4.73424555659813        2.53768649355586
C           34.56972854261696        2.65748345057177        0.02787995834358
C           33.27677914572966        3.32299787673694        0.05764007840139
C           32.34553545831458        2.34765999701040        0.05770625496716
C           33.06944593326372        1.08815508395441        0.03106781706632
N           34.40570485957238        1.31278693202328        0.01550720110529
H           31.35769526187487       -0.15621301254588        0.02188002118000
H           31.34717697447419       -2.81809270055188       -0.02462777419147
H           33.25423803219412       -4.70088278606092       -0.03148621886727
H           35.11462923457538       -0.91259049419687        0.02153680751824
H           35.10565316812879       -4.35158533581840       -2.59719296602383
H           36.02870297571410       -5.65066656222353       -3.37308903454864
H           36.86889713862363       -4.32023278803564       -2.55711946122396
H           36.04572351461323       -7.66569648263188       -2.17862020311168
H           34.99890416820287       -9.74559599291264       -0.06396828095692
H           36.52581270966776       -9.73436248558739       -0.95364607955821
H           36.52866651635049       -9.75705523479024        0.82029712200781
H           35.96024106945637       -7.72319029621606        2.09990094102811
H           34.99706964295219       -4.42766064206685        2.57250032963975
H           35.90323157637854       -5.73942562946221        3.34665054558112
H           36.76028656718277       -4.38140756122882        2.59600161911183
H           38.55911266239610       -4.63904624601532        0.05875928245991
H           40.43177004719549       -2.70142828375706        0.04758798945650
H           40.35379112936869        2.59202817243160       -0.09407370080838
H           38.44052661298310        4.46574144449488       -0.06899355002224
H           36.59939686051469        0.66694958059509       -0.00819971958352
H           35.63247429409287        5.50310090144178       -3.32325489562513
H           36.62330408266843        4.22072932244969       -2.60649261771739
H           34.86416536213909        4.11834751084749       -2.52628923424744
H           35.68397935842339        7.48696234386092       -2.07463396504816
H           36.19002194362302        9.51094214095076        0.98023274349962
H           34.65923205110136        9.47037500712322        0.09815607827627
H           36.18316522129903        9.53695397838345       -0.79369946772451
H           35.77980734403825        7.42441342667941        2.20359204689856
H           35.79503931222280        5.40655672868333        3.39469071476535
H           34.97125480684310        4.05348468326759        2.59893553744587
H           36.73334533701442        4.13521078857509        2.59242541170766
H           33.13397722163992        4.39185477000723        0.07403267315887
H           31.27068677686478        2.43912414820272        0.07496768528827
C           61.13633261084573        0.13450977531871       -0.04963239603652
C           60.51700623342239        1.36795549618689       -0.20543903660764
C           61.14823350352381        2.63519542018126       -0.35684935158857
C           60.16948591411977        3.58150331805076       -0.47621041762269
C           58.90894118079888        2.92223427967730       -0.40324497893696
N           59.16944341516829        1.59093464741895       -0.24012016442704
C           57.64341110413272        3.50735655948851       -0.48246914932246
C           57.60775813436172        4.99001530128434       -0.65343312777830
C           57.59916810088817        5.54615636245513       -1.93562836797421
C           57.62288944356610        4.64893418748628       -3.14437495985350
C           57.56489457088593        6.92822838277734       -2.08145617075453
C           57.53795334023040        7.76372149610643       -0.96984481414281
C           57.51931036952439        9.25912589650719       -1.13807285807294
C           57.54766311095643        7.19943521943253        0.30174351866346
C           57.58179114851175        5.82036144335544        0.47096255086788
C           57.58642950181353        5.21828563354893        1.85084853948402
C           56.42747598975730        2.82851213020206       -0.41126837948921
C           55.13784342574323        3.48883936870640       -0.49929697294295
C           54.20505524442336        2.52039648216868       -0.38446372037503
N           56.25709641601306        1.48753625980708       -0.24799928086853
C           54.92600912003097        1.27179201350421       -0.22712182219278
C           54.28307428668349        0.02963423961144       -0.05401380395480
C           54.92742723333409       -1.20813763845981        0.12553702304040
C           54.30413962282168       -2.47467428595457        0.28447289597240
C           55.28754034279125       -3.41700857360052        0.40715969054188
C           56.54300440957308       -2.75304754196132        0.32444342364156
N           56.27369968376304       -1.42059403717041        0.15643993298371
C           57.80739630806824       -3.34132242265356        0.39442336755522
C           57.84025847127415       -4.82248163746596        0.57527857152080
C           57.84277858151620       -5.66153264179404       -0.54284932001788
C           57.81560054160177       -5.07067698494845       -1.92736709054667
C           57.86577071085735       -7.03962486863785       -0.36342349962549
C           57.88531343873214       -7.59433158091792        0.91214372568921
C           57.92700225905360       -9.08784522008169        1.09214122070378
C           57.88590739036165       -6.75006878108777        2.01753449561405
C           57.86310753833665       -5.36896703249939        1.86157682577787
C           57.86012000185259       -4.46269316982134        3.06377093491349
C           59.02425494475217       -2.66348823651640        0.30616930300588
C           60.32082269967859       -3.31763206217424        0.38648334051811
C           61.24705336518985       -2.34538344057967        0.26257886301610
C           60.51646978377675       -1.09931504748320        0.10599774285926
N           59.18124342993190       -1.32859101367953        0.13701761958436
H           62.22138483660480        0.14508310756897       -0.04903048630031
H           62.21563836116611        2.78833387308588       -0.36995561870647
H           60.29648085260207        4.64454333775178       -0.60433827267326
H           58.46035571201726        0.87057462220267       -0.15570602225101
H           58.52402309612929        4.03266420313012       -3.14174723127290
H           57.60236675312313        5.23352722824347       -4.06363676220869
H           56.76084430070247        3.97932974133127       -3.13564015057304
H           57.55658560873952        7.35913062958450       -3.07734984446133
H           58.54017321688693        9.64802877167444       -1.12122139994181
H           57.06538772177552        9.53815288172684       -2.08919229944912
H           56.96341889303818        9.73352096538863       -0.32884323175760
H           57.52580361717479        7.84356871747494        1.17477155289468
H           58.48482759581056        4.61606149758012        1.99916113953357
H           57.55668877966475        5.99492077418945        2.61450298485519
H           56.72167555669792        4.56511723580940        1.98166077842523
H           54.99404588265917        4.54954849138839       -0.62925749169262
H           53.13121915284649        2.61757942943869       -0.39478483836924
H           53.23838093539625       -2.63580702922199        0.29673409630888
H           55.16422351367503       -4.47955489272700        0.54107080875652
H           56.97962284515359       -0.69808833467874        0.06174181895032
H           57.88662730651079       -5.85075329808807       -2.68467934882190
H           56.88813946364259       -4.51628423086736       -2.08368578975006
H           58.64627615160182       -4.37553874374717       -2.06044591446591
H           57.86617923958006       -7.69041159344640       -1.23177408472394
H           57.47132250233275       -9.37826155192132        2.03903812548468
H           58.96339575124369       -9.43352051920381        1.09348135008117
H           57.40338702937482       -9.59144678465044        0.27908499215143
H           57.90210264810720       -7.17348224141554        3.01652431676232
H           57.90445897686883       -5.04023042440854        3.98665841788954
H           58.71690826551755       -3.78720090920165        3.03143673776713
H           56.95469188882355       -3.85277936041408        3.07622864469214
H           60.46938224747514       -4.37744555835199        0.52000375525395
H           62.32248227969253       -2.43092690842974        0.27190445673382
C           40.70103433557860       -0.07723793554666       -0.03041164270491
C           41.91756452146455       -0.06360304943729       -0.04093183956989
C           51.65716880722735       -0.01066699985192       -0.05502453077619
C           52.87396168398516        0.01088211109339       -0.05665521735635
C           43.32661626345403       -0.05835678104962       -0.04567028071229
C           43.96336423968724       -1.06682607052928        0.70066242636261
C           43.33599681231837       -2.07549890179602        1.47802301270562
C           44.31774627152776       -2.82079438641405        2.07188378881824
C           45.57415102735586       -2.28773425618593        1.67304030619424
N           45.30914081358554       -1.23311405262310        0.84111861541429
C           46.83666774333423       -2.74151540703080        2.06445201432834
C           46.85233966554443       -3.89513896304644        3.01237251369727
C           46.87341622522293       -5.20435694234931        2.52318540524042
C           46.88514816850484       -5.45209674367920        1.03824970016985
C           46.88137274941133       -6.26797225400319        3.41779265842147
C           46.86764139435486       -6.04717499974902        4.79143179872707
C           46.89440225851558       -7.20886252655457        5.74771040358152
C           46.84880776561987       -4.74043482656929        5.26690640360984
C           46.84038116361940       -3.66144583349517        4.39046906184157
C           46.81751531059792       -2.25024816499813        4.91454000393643
C           48.06223178928239       -2.21378171330518        1.66348477354354
C           49.34068555257399       -2.73486869502449        2.11261826322483
C           50.28974587130035       -1.98184936336349        1.51810900365747
N           48.25510837587259       -1.16543723113649        0.81633967392397
C           49.58971239345507       -1.00340730938771        0.70901511515210
C           50.24866964305422       -0.02195246669779       -0.05751689231486
C           49.61092357105335        0.96316122955349       -0.83435261280268
C           50.23736039346595        1.94631129415384       -1.64424916257559
C           49.25526616255254        2.69019341438994       -2.23924253685149
C           47.99923662896739        2.18162225186647       -1.80872813128647
N           48.26509407729782        1.13883537486691       -0.96207077294828
C           46.73659002196655        2.65545052085029       -2.17494704218338
C           46.71983494446393        3.80904770236638       -3.12279401603374
C           46.67052336286275        3.57569410726217       -4.50009513966292
C           46.63214749548850        2.16473193633268       -5.02385848254692
C           46.65770096885765        4.65495276509410       -5.37617480030285
C           46.69200962424726        5.96155882019127       -4.90110574475040
C           46.69730416341795        7.12291433762749       -5.85816418655599
C           46.74142594285404        6.18203205029684       -3.52825047355094
C           46.75556521322673        5.11816584313150       -2.63405371227174
C           46.80595343721654        5.36516672887046       -1.14978238337952
C           45.51110949297016        2.14925436306618       -1.74653018750208
C           44.23207444656686        2.70094698765080       -2.15602590284552
C           43.28348897815182        1.95042726868181       -1.55756353718717
C           43.98467789265997        0.94212403726874       -0.78693250419326
N           45.31940482891309        1.08871203278991       -0.91499013208975
H           42.26968292869107       -2.20349779390294        1.57100940191016
H           44.19094415348226       -3.66453218805591        2.73076487935971
H           46.01366531139431       -0.65035520022085        0.40161596503097
H           45.98054361205190       -5.04784929080233        0.57971873667996
H           47.74225356622686       -4.95728288924907        0.57796988028097
H           46.93881232068385       -6.51867195965441        0.82212638514599
H           46.89656131273919       -7.28433622530967        3.03791056497290
H           46.48214679595068       -6.92560369273633        6.71632597877603
H           46.32241090004980       -8.04900895519721        5.35260970046567
H           47.92373837495443       -7.54200492215373        5.89950500181655
H           46.83844853371332       -4.55809933470193        6.33656210101399
H           45.92062179215845       -1.73209517980863        4.56954393604656
H           46.82923008194068       -2.23956723563600        6.00400992220707
H           47.68416165213710       -1.69617714616419        4.54934383424850
H           49.46611003113773       -3.56348542417010        2.79108683457807
H           51.36172359747488       -2.05661821519185        1.60795094669921
H           51.30327682200125        2.05922283719703       -1.75773393068970
H           49.38153690771389        3.51777030939510       -2.91839281225847
H           47.56081237066049        0.57275952927687       -0.50092156294835
H           46.57707365506003        2.15506242245936       -6.11198089545683
H           45.76522595451755        1.63530502663588       -4.62453764244607
H           47.52683096231369        1.62113942621290       -4.71423867943186
H           46.61871554446728        4.47289848842001       -6.44521818861512
H           46.23348949871747        6.84853602213667       -6.80582358145089
H           47.72507597988533        7.43402129773937       -6.05954524142662
H           46.16275077075206        7.97484246418751       -5.43692276257038
H           46.76766300387902        7.19830431532879       -3.14873057095724
H           47.70672681135249        4.92085313860244       -0.72194499884857
H           46.80684651767061        6.43286378764323       -0.93266987333083
H           45.94386382112015        4.90840697782702       -0.66031149247699
H           44.10602724841799        3.54761923202102       -2.81167106552257
H           42.21108671135593        2.04523747540592       -1.62066270710666

          :  Hamiltonian                  GFN1-xTB          :
         :: total energy            -340.596982102331 Eh    ::
         :: gradient norm              0.000432123209 Eh/a0 ::
         :: HOMO-LUMO gap              0.849417583582 eV    ::
         :: SCC energy              -346.112508145527 Eh    ::
         :: repulsion energy           5.717187284156 Eh    ::

    * Orbital Energies and Occupations

         #    Occupation            Energy/Eh            Energy/eV
      -------------------------------------------------------------
         1        2.0000           -0.8016908             -21.8151
       ...           ...                  ...                  ...
       303        2.0000           -0.4167640             -11.3407
       304        2.0000           -0.4141675             -11.2701
       305        2.0000           -0.4135567             -11.2535
       306        2.0000           -0.4135281             -11.2527
       307        2.0000           -0.4130343             -11.2392
       308        2.0000           -0.4129670             -11.2374
       309        2.0000           -0.4128422             -11.2340
       310        2.0000           -0.3966467             -10.7933
       311        2.0000           -0.3961246             -10.7791
       312        2.0000           -0.3960644             -10.7775
       313        2.0000           -0.3884384             -10.5699
       314        2.0000           -0.3813216             -10.3763
       315        2.0000           -0.3724262             -10.1342 (HOMO)
       316        0.0000           -0.3412107              -9.2848 (LUMO)
       317                         -0.3306952              -8.9987
       318                         -0.3266385              -8.8883
       319                         -0.3265610              -8.8862
       320                         -0.3265241              -8.8852
       321                         -0.3214221              -8.7463
       322                         -0.2962120              -8.0603
       323                         -0.2890428              -7.8653
       324                         -0.2848830              -7.7521
       325                         -0.2553993              -6.9498
       326                         -0.2553328              -6.9480
       ...                                ...                  ...
       716                          1.3423664              36.5276
      -------------------------------------------------------------
                  HL-Gap            0.0312155 Eh            0.8494 eV

Wiberg/Mayer (AO) data.
largest (>0.10) Wiberg bond orders for each atom

     #   Z sym  total        # sym  WBO       # sym  WBO       # sym  WBO
 ---------------------------------------------------------------------------
     1   6 C    3.925 --    41 C    1.363     2 C    1.347    43 H    0.971
     2   6 C    3.903 --     1 C    1.347     3 C    1.229     6 N    1.170
     3   6 C    3.954 --     4 C    1.597     2 C    1.229    44 H    0.977
     4   6 C    3.959 --     3 C    1.597     5 C    1.232    45 H    0.976
     5   6 C    3.896 --     7 C    1.311     4 C    1.232     6 N    1.172
     6   7 N    3.468 --     5 C    1.172     2 C    1.170    46 H    0.874
     7   6 C    3.939 --    17 C    1.341     5 C    1.311     8 C    1.003
     8   6 C    3.987 --    15 C    1.382     9 C    1.381     7 C    1.003
                            12 C    0.104
     9   6 C    3.984 --    11 C    1.420     8 C    1.381    10 C    1.020
                            14 C    0.103
    10   6 C    3.996 --     9 C    1.020    48 H    0.986    47 H    0.974
                            49 H    0.973
    11   6 C    3.993 --     9 C    1.420    12 C    1.414    50 H    0.970
                            15 C    0.103
    12   6 C    3.988 --    11 C    1.414    14 C    1.414    13 C    1.020
                             8 C    0.104
    13   6 C    3.996 --    12 C    1.020    52 H    0.983    53 H    0.983
                            51 H    0.971
    14   6 C    3.993 --    15 C    1.421    12 C    1.414    54 H    0.970
                             9 C    0.103
    15   6 C    3.984 --    14 C    1.421     8 C    1.382    16 C    1.020
                            11 C    0.103
    16   6 C    3.996 --    15 C    1.020    56 H    0.986    55 H    0.974
                            57 H    0.974
    17   6 C    3.916 --     7 C    1.341    20 N    1.283    18 C    1.125
    18   6 C    3.966 --    19 C    1.709    17 C    1.125    58 H    0.975
    19   6 C    3.965 --    18 C    1.709    21 C    1.129    59 H    0.972
    20   7 N    3.022 --    21 C    1.343    17 C    1.283
    21   6 C    3.916 --    20 N    1.343    22 C    1.260    19 C    1.129
    22   6 C    3.937 --    21 C    1.260    23 C    1.258   151 C    1.174
    23   6 C    3.892 --    22 C    1.258    24 C    1.247    27 N    1.188
    24   6 C    3.959 --    25 C    1.585    23 C    1.247    60 H    0.973
    25   6 C    3.956 --    24 C    1.585    26 C    1.238    61 H    0.975
    26   6 C    3.898 --    28 C    1.315    25 C    1.238    27 N    1.162
    27   7 N    3.473 --    23 C    1.188    26 C    1.162    62 H    0.873
    28   6 C    3.926 --    38 C    1.330    26 C    1.315    29 C    1.003
    29   6 C    3.987 --    30 C    1.381    36 C    1.381    28 C    1.003
                            33 C    0.104
    30   6 C    3.984 --    32 C    1.421    29 C    1.381    31 C    1.020
                            35 C    0.103
    31   6 C    3.996 --    30 C    1.020    63 H    0.986    65 H    0.974
                            64 H    0.974
    32   6 C    3.993 --    30 C    1.421    33 C    1.414    66 H    0.970
                            36 C    0.103
    33   6 C    3.988 --    35 C    1.414    32 C    1.414    34 C    1.020
                            29 C    0.104
    34   6 C    3.996 --    33 C    1.020    67 H    0.983    69 H    0.983
                            68 H    0.971
    35   6 C    3.993 --    36 C    1.420    33 C    1.414    70 H    0.970
                            30 C    0.103
    36   6 C    3.984 --    35 C    1.420    29 C    1.381    37 C    1.020
                            32 C    0.103
    37   6 C    3.996 --    36 C    1.020    71 H    0.986    72 H    0.974
                            73 H    0.974
    38   6 C    3.929 --    28 C    1.330    42 N    1.310    39 C    1.117
    39   6 C    3.968 --    40 C    1.723    38 C    1.117    74 H    0.975
    40   6 C    3.966 --    39 C    1.723    41 C    1.117    75 H    0.976
    41   6 C    3.930 --     1 C    1.363    42 N    1.304    40 C    1.117
    42   7 N    3.012 --    38 C    1.310    41 C    1.304
    43   1 H    1.002 --     1 C    0.971
    44   1 H    0.998 --     3 C    0.977
    45   1 H    1.002 --     4 C    0.976
    46   1 H    0.987 --     6 N    0.874
    47   1 H    1.008 --    10 C    0.974
    48   1 H    1.004 --    10 C    0.986
    49   1 H    1.008 --    10 C    0.973
    50   1 H    1.000 --    11 C    0.970
    51   1 H    1.006 --    13 C    0.971
    52   1 H    1.004 --    13 C    0.983
    53   1 H    1.004 --    13 C    0.983
    54   1 H    1.000 --    14 C    0.970
    55   1 H    1.008 --    16 C    0.974
    56   1 H    1.004 --    16 C    0.986
    57   1 H    1.007 --    16 C    0.974
    58   1 H    1.002 --    18 C    0.975
    59   1 H    1.005 --    19 C    0.972
    60   1 H    1.004 --    24 C    0.973
    61   1 H    1.002 --    25 C    0.975
    62   1 H    0.988 --    27 N    0.873
    63   1 H    1.004 --    31 C    0.986
    64   1 H    1.008 --    31 C    0.974
    65   1 H    1.008 --    31 C    0.974
    66   1 H    1.000 --    32 C    0.970
    67   1 H    1.004 --    34 C    0.983
    68   1 H    1.006 --    34 C    0.971
    69   1 H    1.004 --    34 C    0.983
    70   1 H    1.000 --    35 C    0.970
    71   1 H    1.004 --    37 C    0.986
    72   1 H    1.008 --    37 C    0.974
    73   1 H    1.008 --    37 C    0.974
    74   1 H    1.002 --    39 C    0.975
    75   1 H    0.999 --    40 C    0.976
    76   6 C    3.924 --   116 C    1.363    77 C    1.347   118 H    0.971
    77   6 C    3.903 --    76 C    1.347    78 C    1.229    81 N    1.170
    78   6 C    3.953 --    79 C    1.597    77 C    1.229   119 H    0.977
    79   6 C    3.960 --    78 C    1.597    80 C    1.232   120 H    0.976
    80   6 C    3.896 --    82 C    1.310    79 C    1.232    81 N    1.172
    81   7 N    3.468 --    80 C    1.172    77 C    1.170   121 H    0.874
    82   6 C    3.939 --    92 C    1.341    80 C    1.310    83 C    1.003
    83   6 C    3.987 --    84 C    1.382    90 C    1.381    82 C    1.003
                            87 C    0.104
    84   6 C    3.984 --    86 C    1.420    83 C    1.382    85 C    1.020
                            89 C    0.103
    85   6 C    3.996 --    84 C    1.020   123 H    0.986   122 H    0.974
                           124 H    0.974
    86   6 C    3.993 --    84 C    1.420    87 C    1.415   125 H    0.970
                            90 C    0.103
    87   6 C    3.988 --    86 C    1.415    89 C    1.413    88 C    1.020
                            83 C    0.104
    88   6 C    3.996 --    87 C    1.020   127 H    0.983   128 H    0.982
                           126 H    0.971
    89   6 C    3.993 --    90 C    1.421    87 C    1.413   129 H    0.970
                            84 C    0.103
    90   6 C    3.984 --    89 C    1.421    83 C    1.381    91 C    1.020
                            86 C    0.103
    91   6 C    3.996 --    90 C    1.020   131 H    0.986   130 H    0.974
                           132 H    0.974
    92   6 C    3.916 --    82 C    1.341    95 N    1.282    93 C    1.125
    93   6 C    3.966 --    94 C    1.709    92 C    1.125   133 H    0.975
    94   6 C    3.965 --    93 C    1.709    96 C    1.129   134 H    0.972
    95   7 N    3.022 --    96 C    1.345    92 C    1.282
    96   6 C    3.915 --    95 N    1.345    97 C    1.258    94 C    1.129
    97   6 C    3.937 --    96 C    1.258    98 C    1.257   154 C    1.177
    98   6 C    3.891 --    97 C    1.257    99 C    1.248   102 N    1.188
    99   6 C    3.959 --   100 C    1.584    98 C    1.248   135 H    0.973
   100   6 C    3.955 --    99 C    1.584   101 C    1.238   136 H    0.975
   101   6 C    3.898 --   103 C    1.315   100 C    1.238   102 N    1.162
   102   7 N    3.473 --    98 C    1.188   101 C    1.162   137 H    0.873
   103   6 C    3.925 --   113 C    1.330   101 C    1.315   104 C    1.003
   104   6 C    3.987 --   111 C    1.382   105 C    1.381   103 C    1.003
                           108 C    0.104
   105   6 C    3.984 --   107 C    1.421   104 C    1.381   106 C    1.020
                           110 C    0.103
   106   6 C    3.996 --   105 C    1.020   138 H    0.986   140 H    0.975
                           139 H    0.974
   107   6 C    3.993 --   105 C    1.421   108 C    1.414   141 H    0.970
                           111 C    0.103
   108   6 C    3.988 --   110 C    1.414   107 C    1.414   109 C    1.020
                           104 C    0.104
   109   6 C    3.996 --   108 C    1.020   142 H    0.983   144 H    0.983
                           143 H    0.971
   110   6 C    3.993 --   111 C    1.420   108 C    1.414   145 H    0.970
                           105 C    0.103
   111   6 C    3.984 --   110 C    1.420   104 C    1.382   112 C    1.020
                           107 C    0.103
   112   6 C    3.996 --   111 C    1.020   146 H    0.986   148 H    0.974
                           147 H    0.974
   113   6 C    3.929 --   103 C    1.330   117 N    1.310   114 C    1.117
   114   6 C    3.968 --   115 C    1.723   113 C    1.117   149 H    0.975
   115   6 C    3.966 --   114 C    1.723   116 C    1.117   150 H    0.976
   116   6 C    3.930 --    76 C    1.363   117 N    1.304   115 C    1.117
   117   7 N    3.012 --   113 C    1.310   116 C    1.304
   118   1 H    1.002 --    76 C    0.971
   119   1 H    0.998 --    78 C    0.977
   120   1 H    1.002 --    79 C    0.976
   121   1 H    0.987 --    81 N    0.874
   122   1 H    1.008 --    85 C    0.974
   123   1 H    1.004 --    85 C    0.986
   124   1 H    1.008 --    85 C    0.974
   125   1 H    1.000 --    86 C    0.970
   126   1 H    1.006 --    88 C    0.971
   127   1 H    1.004 --    88 C    0.983
   128   1 H    1.004 --    88 C    0.982
   129   1 H    1.000 --    89 C    0.970
   130   1 H    1.008 --    91 C    0.974
   131   1 H    1.004 --    91 C    0.986
   132   1 H    1.007 --    91 C    0.974
   133   1 H    1.002 --    93 C    0.975
   134   1 H    1.005 --    94 C    0.972
   135   1 H    1.005 --    99 C    0.973
   136   1 H    1.002 --   100 C    0.975
   137   1 H    0.988 --   102 N    0.873
   138   1 H    1.004 --   106 C    0.986
   139   1 H    1.008 --   106 C    0.974
   140   1 H    1.008 --   106 C    0.975
   141   1 H    1.000 --   107 C    0.970
   142   1 H    1.004 --   109 C    0.983
   143   1 H    1.006 --   109 C    0.971
   144   1 H    1.004 --   109 C    0.983
   145   1 H    1.000 --   110 C    0.970
   146   1 H    1.004 --   112 C    0.986
   147   1 H    1.008 --   112 C    0.974
   148   1 H    1.008 --   112 C    0.974
   149   1 H    1.002 --   114 C    0.975
   150   1 H    0.999 --   115 C    0.976
   151   6 C    3.928 --   152 C    2.575    22 C    1.174
   152   6 C    3.931 --   151 C    2.575   155 C    1.176
   153   6 C    3.931 --   154 C    2.573   176 C    1.179
   154   6 C    3.928 --   153 C    2.573    97 C    1.177
   155   6 C    3.924 --   195 C    1.260   156 C    1.255   152 C    1.176
   156   6 C    3.892 --   155 C    1.255   157 C    1.251   160 N    1.188
   157   6 C    3.956 --   158 C    1.579   156 C    1.251   197 H    0.973
   158   6 C    3.956 --   157 C    1.579   159 C    1.243   198 H    0.975
   159   6 C    3.894 --   161 C    1.306   158 C    1.243   160 N    1.163
   160   7 N    3.469 --   156 C    1.188   159 C    1.163   199 H    0.874
   161   6 C    3.927 --   171 C    1.344   159 C    1.306   162 C    1.003
   162   6 C    3.987 --   169 C    1.382   163 C    1.381   161 C    1.003
                           166 C    0.104
   163   6 C    3.984 --   165 C    1.422   162 C    1.381   164 C    1.020
                           168 C    0.102
   164   6 C    3.996 --   163 C    1.020   202 H    0.986   201 H    0.974
                           200 H    0.974
   165   6 C    3.993 --   163 C    1.422   166 C    1.413   203 H    0.970
                           169 C    0.103
   166   6 C    3.988 --   168 C    1.415   165 C    1.413   167 C    1.020
                           162 C    0.104
   167   6 C    3.996 --   166 C    1.020   204 H    0.984   205 H    0.982
                           206 H    0.971
   168   6 C    3.993 --   169 C    1.419   166 C    1.415   207 H    0.970
                           163 C    0.102
   169   6 C    3.984 --   168 C    1.419   162 C    1.382   170 C    1.020
                           165 C    0.103
   170   6 C    3.996 --   169 C    1.020   209 H    0.986   208 H    0.974
                           210 H    0.974
   171   6 C    3.918 --   161 C    1.344   174 N    1.280   172 C    1.125
   172   6 C    3.966 --   173 C    1.709   171 C    1.125   211 H    0.975
   173   6 C    3.964 --   172 C    1.709   175 C    1.130   212 H    0.972
   174   7 N    3.010 --   175 C    1.345   171 C    1.280
   175   6 C    3.916 --   174 N    1.345   176 C    1.258   173 C    1.130
   176   6 C    3.925 --   175 C    1.258   177 C    1.253   153 C    1.179
   177   6 C    3.892 --   176 C    1.253   178 C    1.252   181 N    1.189
   178   6 C    3.956 --   179 C    1.579   177 C    1.252   213 H    0.972
   179   6 C    3.956 --   178 C    1.579   180 C    1.243   214 H    0.975
   180   6 C    3.894 --   182 C    1.306   179 C    1.243   181 N    1.163
   181   7 N    3.469 --   177 C    1.189   180 C    1.163   215 H    0.874
   182   6 C    3.927 --   192 C    1.344   180 C    1.306   183 C    1.003
   183   6 C    3.987 --   184 C    1.382   190 C    1.381   182 C    1.003
                           187 C    0.104
   184   6 C    3.985 --   186 C    1.419   183 C    1.382   185 C    1.021
                           189 C    0.103
   185   6 C    3.996 --   184 C    1.021   216 H    0.986   218 H    0.974
                           217 H    0.974
   186   6 C    3.993 --   184 C    1.419   187 C    1.415   219 H    0.970
                           190 C    0.103
   187   6 C    3.988 --   186 C    1.415   189 C    1.413   188 C    1.020
                           183 C    0.104
   188   6 C    3.996 --   187 C    1.020   220 H    0.984   222 H    0.982
                           221 H    0.971
   189   6 C    3.993 --   190 C    1.421   187 C    1.413   223 H    0.970
                           184 C    0.103
   190   6 C    3.984 --   189 C    1.421   183 C    1.381   191 C    1.020
                           186 C    0.103
   191   6 C    3.996 --   190 C    1.020   225 H    0.986   226 H    0.974
                           224 H    0.974
   192   6 C    3.918 --   182 C    1.344   196 N    1.281   193 C    1.124
   193   6 C    3.967 --   194 C    1.709   192 C    1.124   227 H    0.975
   194   6 C    3.964 --   193 C    1.709   195 C    1.130   228 H    0.973
   195   6 C    3.918 --   196 N    1.343   155 C    1.260   194 C    1.130
   196   7 N    3.009 --   195 C    1.343   192 C    1.281
   197   1 H    1.004 --   157 C    0.973
   198   1 H    1.002 --   158 C    0.975
   199   1 H    0.988 --   160 N    0.874
   200   1 H    1.008 --   164 C    0.974
   201   1 H    1.008 --   164 C    0.974
   202   1 H    1.004 --   164 C    0.986
   203   1 H    1.000 --   165 C    0.970
   204   1 H    1.004 --   167 C    0.984
   205   1 H    1.005 --   167 C    0.982
   206   1 H    1.006 --   167 C    0.971
   207   1 H    1.000 --   168 C    0.970
   208   1 H    1.008 --   170 C    0.974
   209   1 H    1.004 --   170 C    0.986
   210   1 H    1.008 --   170 C    0.974
   211   1 H    1.002 --   172 C    0.975
   212   1 H    1.005 --   173 C    0.972
   213   1 H    1.004 --   178 C    0.972
   214   1 H    1.002 --   179 C    0.975
   215   1 H    0.988 --   181 N    0.874
   216   1 H    1.004 --   185 C    0.986
   217   1 H    1.008 --   185 C    0.974
   218   1 H    1.008 --   185 C    0.974
   219   1 H    1.000 --   186 C    0.970
   220   1 H    1.004 --   188 C    0.984
   221   1 H    1.006 --   188 C    0.971
   222   1 H    1.005 --   188 C    0.982
   223   1 H    1.000 --   189 C    0.970
   224   1 H    1.008 --   191 C    0.974
   225   1 H    1.004 --   191 C    0.986
   226   1 H    1.007 --   191 C    0.974
   227   1 H    1.002 --   193 C    0.975
   228   1 H    1.004 --   194 C    0.973
 ---------------------------------------------------------------------------

           -------------------------------------------------
          | TOTAL ENERGY             -340.596982102331 Eh   |
          | GRADIENT NORM               0.000432123209 Eh/α |
          | HOMO-LUMO GAP               0.849417583582 eV   |
           -------------------------------------------------

 * finished run on 2022/07/28 at 14:23:09.485
