   * xtb version 6.5.1 (b24c23e) compiled by 'conda@728c89f4b128' on 2022-07-12
          program call               : xtb Cu_Py_C2_4.xyz --gfn 1 --opt -T 48

   ID    Z sym.   atoms
    1   29 Cu     1, 55, 115, 168
    2    6 C      2-6, 8-11, 13-17, 19-24, 26-29, 31-36, 56-60, 62-65, 67-71,
                  73-78, 80-83, 85-90, 109-114, 116-120, 122-125, 127-131,
                  133-138, 140-143, 145-150, 169-173, 175-178, 180-184,
                  186-191, 193-196, 198-203
    3    7 N      7, 12, 18, 25, 30, 37, 61, 66, 72, 79, 84, 91, 121, 126,
                  132, 139, 144, 151, 174, 179, 185, 192, 197, 204
    4    1 H      38-54, 92-108, 152-167, 205-220

          :  Hamiltonian                  GFN1-xTB          :
 * total energy  :  -395.7446962 Eh     change        0.2165564E-08 Eh
 * total energy  :  -395.9426331 Eh     change       -0.1979369E+00 Eh
 * total energy  :  -396.0747348 Eh     change       -0.1321017E+00 Eh
 * total energy  :  -396.1480414 Eh     change       -0.7330664E-01 Eh
 * total energy  :  -396.1969395 Eh     change       -0.4889809E-01 Eh
 * total energy  :  -396.2237025 Eh     change       -0.2676298E-01 Eh
 * total energy  :  -396.2460626 Eh     change       -0.2236015E-01 Eh
 * total energy  :  -396.2641912 Eh     change       -0.1812856E-01 Eh
 * total energy  :  -396.2787159 Eh     change       -0.1452474E-01 Eh
 * total energy  :  -396.2896415 Eh     change       -0.1092560E-01 Eh
 * total energy  :  -396.3424649 Eh     change       -0.1433783E-04 Eh
 * total energy  :  -396.3424806 Eh     change       -0.1573293E-04 Eh
 * total energy  :  -396.3424970 Eh     change       -0.1639003E-04 Eh
 * total energy  :  -396.3425136 Eh     change       -0.1655570E-04 Eh
 * total energy  :  -396.3425298 Eh     change       -0.1616817E-04 Eh
 * total energy  :  -396.3425354 Eh     change       -0.5669090E-05 Eh
 * total energy  :  -396.3425438 Eh     change       -0.8401177E-05 Eh
 * total energy  :  -396.3425494 Eh     change       -0.5525137E-05 Eh
 * total energy  :  -396.3425528 Eh     change       -0.3450323E-05 Eh
   *** GEOMETRY OPTIMIZATION CONVERGED AFTER 97 ITERATIONS ***

 final structure:
================
220
 xtb: 6.5.1 (b24c23e)
Cu          40.91607778416405       -0.03081547170039       -0.04599230808132
C           37.50922862426846       -0.05245143497486       -0.06434041845428
C           38.14008301851126       -1.26535714673284        0.16741684346801
C           37.46010219304878       -2.50113204165183        0.43206034361321
C           38.41507702439404       -3.44373028843105        0.62682588163427
C           39.68829264209585       -2.79347578619152        0.47303319428901
N           39.49011662848975       -1.47048220025911        0.20033315301152
C           40.93072464281506       -3.41578431218949        0.61207620430602
C           40.93908184246514       -4.87062619856403        0.90030960703127
C           41.47611293420525       -5.36987882120583        2.08639713913768
C           41.45809929236673       -6.73686701285046        2.31405868183961
N           40.95427178432983       -7.60911517994161        1.44676917173529
C           40.44361758900060       -7.14191531991591        0.31207923736179
C           40.41053733798128       -5.79242500849356       -0.00246524717794
C           42.16661365795675       -2.77577439662641        0.50021024199154
C           43.44040699575278       -3.43242866328982        0.58239853766338
C           44.39046338601050       -2.48124936834406        0.39822225950006
N           42.36129116878666       -1.44174417850231        0.25896407222835
C           43.70644968799808       -1.23871131472677        0.19959162349478
C           44.34621986000522       -0.01136772729749       -0.04242806229413
C           43.69262449907269        1.20951127631863       -0.27989899642320
C           44.36378882242564        2.44987234418003       -0.52914662843730
C           43.40365864196364        3.39228477125819       -0.70593577308094
C           42.13652449133986        2.73488484193706       -0.55546033753232
N           42.34526594533836        1.40451966807872       -0.30534456480464
C           40.89381144546478        3.36011769110820       -0.67501738974350
C           40.88588811835589        4.82133284828710       -0.92981694122082
C           40.34624517933682        5.35154165272720       -2.10096713400347
C           40.36262769772237        6.72430622973836       -2.29170159664613
N           40.86799409020177        7.57343369358652       -1.40278323403200
C           41.38266745660464        7.07638197678844       -0.28262379752444
C           41.41668306761790        5.71912623550421       -0.00431146122044
C           39.65800903069073        2.71851459296208       -0.56882397883075
C           38.37775770968101        3.36730534987243       -0.65691816561489
C           37.43305162195706        2.40918882820685       -0.48982306128325
C           38.12646160483467        1.16896388776722       -0.28809846221038
N           39.47401411010826        1.38598579834764       -0.33551553748709
H           36.42412968790603       -0.05737451724237       -0.05794306234984
H           36.38827910586124       -2.61633558618175        0.46894086213092
H           38.27723175352540       -4.48598734616447        0.86561979301947
H           41.88826754618810       -4.69522067425499        2.82736503900998
H           41.86570236596439       -7.14865011369362        3.23274018058465
H           40.04273613299974       -7.87904243271755       -0.37760311466944
H           39.99396215089767       -5.45862797375458       -0.94538610247338
H           43.58502810637332       -4.48838687293646        0.74355364739620
H           45.46129057528822       -2.60485716535891        0.38467056789379
H           45.43387701296008        2.57590857389662       -0.56312179785396
H           43.53782481875870        4.43834459621145       -0.92878147316524
H           39.93347297736106        4.69699054777709       -2.85937300697628
H           39.95196799510137        7.16034702489544       -3.19773967118265
H           41.78592925185092        7.79492676032717        0.42498630082252
H           41.83648692064533        5.36013104757166        0.92785710925414
H           38.22864460766555        4.42324274622550       -0.81528420332346
H           36.36007210078316        2.51933259815128       -0.49308777079760
Cu          73.63703086427842        0.04864615109592       -0.01648354627649
C           77.04417056490267        0.06054415923065       -0.00393153151678
C           76.41642534456325        1.26782713383643       -0.27064915427505
C           77.09921192388292        2.50741818100448       -0.50910230175780
C           76.14651397170650        3.45071712417193       -0.71120071002673
C           74.87196859877879        2.79342796042876       -0.60615570272170
N           75.06699935650519        1.47037314122028       -0.33106964742003
C           73.63149191800895        3.42196160100744       -0.73119994465770
C           73.62858403973813        4.87440061058610       -1.03315679051860
C           73.10414159597910        5.80093259225158       -0.13292171954626
C           73.12732049819610        7.14783376015330       -0.45904860043912
N           73.62474613680378        7.60787886974279       -1.60255590136276
C           74.12390657015997        6.73089435365800       -2.46758614216336
C           74.15105695350192        5.36587210188325       -2.22868580296130
C           72.39365230780435        2.79113602667550       -0.59331320739091
C           71.12134570763132        3.43557321520779       -0.75610291105952
C           70.16873787538151        2.48942580054943       -0.55992738994619
N           72.19575688176123        1.46506314171507       -0.31463002878255
C           70.84979212816060        1.25951516268676       -0.28644729003432
C           70.20744186830066        0.03750362354652       -0.02844063060312
C           70.85732853976629       -1.17949017902423        0.23532868092785
C           70.18331588820753       -2.42556676229043        0.44542460209692
C           71.14072093521412       -3.36563346135013        0.64755113198419
C           72.40896646448229       -2.69819579459213        0.56723367484877
N           72.20410958023515       -1.36939895873682        0.30617470162996
C           73.64993470033245       -3.32373127906725        0.70368155695079
C           73.65381418488823       -4.77479127596352        1.00983418195913
C           74.21179428089449       -5.69954561372086        0.12786622538841
C           74.18925107949477       -7.04585056696268        0.45634103465372
N           73.66149393596346       -7.50736921772152        1.58556548251073
C           73.12984294857476       -6.63234876609664        2.43313554368354
C           73.09981313979692       -5.26809737956150        2.19054298475407
C           74.88735810250469       -2.68993355843410        0.57293715812406
C           76.16513126665907       -3.32204669472421        0.76120166461737
C           77.11263217223031       -2.37329851499332        0.56002673116837
C           76.42334446892191       -1.15189039065665        0.25562024790956
N           75.07534345149665       -1.37099112390776        0.27470070946813
H           78.12913326049429        0.06729012295393        0.01271413475404
H           78.17116983087385        2.62709414209355       -0.51201526682091
H           76.28620623947292        4.50224784125488       -0.90376160901472
H           72.69750661437207        5.47272009383788        0.81626429067527
H           72.72921177317306        7.88881421809785        0.22810055536270
H           74.52008951975424        7.13679665452371       -3.39383577809727
H           74.55882785220199        4.68680258482378       -2.96803129846281
H           70.97911787160457        4.47621456401609       -0.99849615026612
H           69.09763484182659        2.60634302796341       -0.59599793318262
H           69.11370417268768       -2.55887636700890        0.42595804426845
H           71.00434511206110       -4.42081782601094        0.82040158128117
H           74.64308201466322       -5.37055224278398       -0.81011181757611
H           74.61365327183501       -7.78509733595679       -0.21677586715223
H           72.70827838097482       -7.03941715515480        3.34756716315286
H           72.66514921967921       -4.59081682794115        2.91607598577823
H           76.31049419546673       -4.35686802604107        1.02642017394617
H           78.18491348279164       -2.47548437463791        0.61663550930952
C           45.75675321100952       -0.00531196312957       -0.04971498604750
C           46.97315167587922       -0.00004822533942       -0.05044109855568
C           56.66777691232590        0.01696433022345        0.01125255518720
C           57.88492400433172        0.01430646003309        0.00588240161037
C           67.57998365405415        0.02396333486207       -0.04683122892026
C           68.79607346241983        0.02992785313399       -0.04069119984844
Cu          51.81995300261434        0.01104744861213       -0.01672195185947
C           48.38308037888677        0.00267766377577       -0.04479560742683
C           49.02860110277690       -0.98761005948556        0.71563836114973
C           48.35216916199988       -1.94494288175377        1.53807609072448
C           49.30605691748820       -2.73485642041407        2.09347410330892
C           50.57286358494423       -2.26688635424682        1.60825358886741
N           50.37237455122439       -1.19461354895293        0.78086499669294
C           51.81121049767158       -2.82156039512592        1.93868816668888
C           51.80847025388596       -4.03733772703026        2.78648137462493
C           51.18112478106202       -5.21132625607364        2.37065021234612
C           51.20771520398652       -6.32196662062959        3.19923885234864
N           51.80309957848527       -6.32528341657847        4.38762169691118
C           52.40144502944629       -5.20968665521419        4.79288008043249
C           52.43336740493189       -4.05103826651523        4.03321983463959
C           53.05236910746663       -2.32351650009113        1.53666396745306
C           54.31459333039488       -2.95346610508267        1.79908286795857
C           55.27348990583462       -2.16224771968023        1.25427603095487
N           53.26099954495646       -1.17084700921308        0.82742807851373
C           54.60542959615446       -1.04646459650342        0.65547193229530
C           55.25872019679225        0.01807697658871        0.00929986410670
C           54.61022859465930        1.08252275123785       -0.64218143438375
C           55.28185610452767        2.20470056274588       -1.22455219506110
C           54.32779214561732        2.99311248671719       -1.78193033303510
C           53.06504948171000        2.35437296581545       -1.54467366514626
N           53.26799541792575        1.20065571673153       -0.83551298503522
C           51.82855528741317        2.84488117581978       -1.97030499675372
C           51.83524205034023        4.06037265396475       -2.81839458938543
C           52.48835034554587        4.07847550687914       -4.05060872959941
C           52.46553357149365        5.23669429580528       -4.81121893941051
N           51.85020932831278        6.34808579868949       -4.42007855449863
C           51.22760821219571        6.34057067768485       -3.24573855371703
C           51.18992217138425        5.22988746854556       -2.41761285661756
C           50.58772533046793        2.28220465923763       -1.66357774373244
C           49.32691331966083        2.74167218021901       -2.17218109801161
C           48.36787266169612        1.94750580568507       -1.63183464399513
C           49.03527602436939        0.99523086329269       -0.79631265628483
N           50.37881888664762        1.20957809830581       -0.83863074274793
H           47.28454864514433       -1.99149713889123        1.68008772612634
H           49.16791682952812       -3.55087146342311        2.78410167569789
H           50.69348604405580       -5.25873323498780        1.40420963533949
H           50.73025973947563       -7.24881352623774        2.89493054781790
H           52.87669749683044       -5.24275313206805        5.76893092295958
H           52.92319712188836       -3.16079166189222        4.40950627183582
H           54.44569559095890       -3.89014130428329        2.31615810394433
H           56.33946876533392       -2.32143044074935        1.24319564083596
H           56.34636776395330        2.37078340407359       -1.19310720711160
H           54.46223731641074        3.93347773713949       -2.29142499459100
H           52.99319954786860        3.19179853675982       -4.41531669802754
H           52.96275025699907        5.27290834661480       -5.77617916220847
H           50.73682805543578        7.26407391087682       -2.95264014458023
H           50.68000246979418        5.27418537007505       -1.46257962557434
H           49.19648081702327        3.55531962536915       -2.86709896658800
H           47.30261073005536        1.98742862159063       -1.79259889105062
Cu          62.73229125712734        0.00658008344803       -0.03179971204183
C           59.29401604439939        0.01174598978476       -0.00376479637008
C           59.95166295937965       -0.78301412935460        0.95188240226010
C           59.28876547992981       -1.53315109926928        1.97551367934421
C           60.25022050306139       -2.19277148961092        2.67031871657273
C           61.50909192780062       -1.85034667723918        2.07268957029715
N           61.29602292413749       -0.97836219065659        1.03850620488854
C           62.75087818730670       -2.32903581260047        2.49562509553195
C           62.75618430791229       -3.33541545479096        3.58429793761885
C           62.12992665779296       -4.57171286026777        3.42929126947106
C           62.16377541991687       -5.48243341263919        4.47340900069493
N           62.76534634746881       -5.23376677409218        5.63227833847494
C           63.36205878656230       -4.05651956683968        5.78963446121149
C           63.38667325569109       -3.08407432094161        4.80246550901481
C           63.98743084481520       -1.93490400484526        1.98004554011197
C           65.25643543105910       -2.47202552891575        2.38114194423014
C           66.20807495614859       -1.81378371060178        1.67178927151929
N           64.18443686407002       -0.97784028537241        1.02134120604767
C           65.52787555846521       -0.88129830297004        0.82394016181100
C           66.16913849258009        0.01578047554777       -0.04695576525994
C           65.51489062602855        0.90302349283687       -0.91804749857524
C           66.18258778264143        1.82870098458881       -1.78303695445057
C           65.22138548492532        2.47184461128532       -2.49334379209848
C           63.95874005994550        1.93467952616925       -2.07284446062737
N           64.16905575410266        0.99005590077460       -1.10468724162011
C           62.71575596438165        2.32181060403024       -2.57827778426987
C           62.70758822451650        3.31060575765017       -3.68302487091039
C           63.31777613432011        3.03555365235115       -4.90636106100793
C           63.28010095595033        3.99027970589884       -5.91028000659082
N           62.68938996770362        5.17199161983014       -5.76439665145212
C           62.10750621347796        5.44334834559531       -4.60057657983627
C           62.08778346551033        4.55153639148797       -3.53988417817681
C           61.47935222795991        1.85174895940540       -2.13117152424486
C           60.21169443789246        2.19336720268059       -2.71037644480116
C           59.25986907083448        1.54505522624971       -1.99209474952611
C           59.93769442216186        0.80124822937971       -0.97354985684066
N           61.28071790891176        0.99067238756314       -1.08497342730234
H           58.22426855101133       -1.53869307802031        2.14465888725814
H           60.12317752398964       -2.84011612494780        3.52280225324124
H           61.63691388334725       -4.82241350162036        2.49755227910594
H           61.68713913430241       -6.45331588561544        4.37428354612241
H           63.84233955627479       -3.88197499953571        6.74802725084088
H           63.87542891605702       -2.13350399624016        4.98012235282134
H           65.39792123217103       -3.25921221374672        3.10380193508912
H           67.27731991567504       -1.94553147124868        1.71167548647403
H           67.25082497371052        1.96466544325044       -1.83430170231823
H           65.35185996219926        3.24913646484788       -3.22867684563918
H           63.80080113741781        2.08034395853124       -5.07456215699494
H           63.74399668760037        3.79693663844141       -6.87310438038023
H           61.63568111233403        6.41750877516259       -4.51116546508894
H           61.61065263907441        4.82038754082088       -2.60495893906428
H           60.07205925732309        2.83276741339112       -3.56687777211499
H           58.19270779906363        1.55347854595526       -2.14319625665408

          :  Hamiltonian                  GFN1-xTB          :
         :: total energy            -396.342552805554 Eh    ::
         :: gradient norm              0.000497599485 Eh/a0 ::
         :: HOMO-LUMO gap              0.000284641594 eV    ::
         :: SCC energy              -402.336018344210 Eh    ::
         :: repulsion energy           6.205182183133 Eh    ::

    * Orbital Energies and Occupations

         #    Occupation            Energy/Eh            Energy/eV
      -------------------------------------------------------------
         1        2.0000           -0.7709347             -20.9782
       ...           ...                  ...                  ...
       355        2.0000           -0.4145710             -11.2811
       356        2.0000           -0.4144555             -11.2779
       357        2.0000           -0.4143325             -11.2746
       358        2.0000           -0.4040141             -10.9938
       359        2.0000           -0.4023651             -10.9489
       360        2.0000           -0.4023424             -10.9483
       361        2.0000           -0.4022548             -10.9459
       362        2.0000           -0.4022475             -10.9457
       363        2.0000           -0.3979245             -10.8281
       364        2.0000           -0.3906300             -10.6296
       365        2.0000           -0.3835720             -10.4375
       366        1.0811           -0.3626954              -9.8694
       367        0.9934           -0.3625283              -9.8649 (HOMO)
       368        0.9879           -0.3625178              -9.8646 (LUMO)
       369        0.9376           -0.3624222              -9.8620
       370        0.0000           -0.3495554              -9.5119
       371                         -0.3414073              -9.2902
       372                         -0.3357048              -9.1350
       373                         -0.3355034              -9.1295
       374                         -0.3353544              -9.1255
       375                         -0.3353150              -9.1244
       376                         -0.3331155              -9.0645
       377                         -0.3253129              -8.8522
       378                         -0.3084768              -8.3941
       ...                                ...                  ...
       768                          1.3358406              36.3501
      -------------------------------------------------------------
                  HL-Gap            0.0000105 Eh            0.0003 eV

Wiberg/Mayer (AO) data.
largest (>0.10) Wiberg bond orders for each atom

     #   Z sym  total        # sym  WBO       # sym  WBO       # sym  WBO
 ---------------------------------------------------------------------------
     1  29 Cu   2.190 --     7 N    0.506    37 N    0.506    25 N    0.504
                            18 N    0.503
     2   6 C    3.930 --     3 C    1.362    36 C    1.362    38 H    0.971
     3   6 C    3.916 --     2 C    1.362     7 N    1.229     4 C    1.170
     4   6 C    3.955 --     5 C    1.657     3 C    1.170    39 H    0.975
     5   6 C    3.958 --     4 C    1.657     6 C    1.171    40 H    0.973
     6   6 C    3.914 --     8 C    1.320     7 N    1.238     5 C    1.171
     7   7 N    3.244 --     6 C    1.238     3 C    1.229     1 Cu   0.506
     8   6 C    3.935 --    15 C    1.325     6 C    1.320     9 C    1.027
     9   6 C    3.986 --    14 C    1.393    10 C    1.393     8 C    1.027
                            12 N    0.107
    10   6 C    3.987 --    11 C    1.442     9 C    1.393    41 H    0.973
                            13 C    0.109
    11   6 C    3.972 --    10 C    1.442    12 N    1.415    42 H    0.972
                            14 C    0.108
    12   7 N    3.030 --    13 C    1.416    11 C    1.415     9 C    0.107
    13   6 C    3.972 --    14 C    1.442    12 N    1.416    43 H    0.972
                            10 C    0.109
    14   6 C    3.987 --    13 C    1.442     9 C    1.393    44 H    0.973
                            11 C    0.108
    15   6 C    3.909 --     8 C    1.325    18 N    1.223    16 C    1.179
    16   6 C    3.954 --    17 C    1.643    15 C    1.179    45 H    0.973
    17   6 C    3.957 --    16 C    1.643    19 C    1.186    46 H    0.971
    18   7 N    3.248 --    19 C    1.254    15 C    1.223     1 Cu   0.503
    19   6 C    3.902 --    20 C    1.266    18 N    1.254    17 C    1.186
    20   6 C    3.940 --    21 C    1.266    19 C    1.266   109 C    1.172
    21   6 C    3.902 --    20 C    1.266    25 N    1.254    22 C    1.186
    22   6 C    3.957 --    23 C    1.643    21 C    1.186    47 H    0.971
    23   6 C    3.954 --    22 C    1.643    24 C    1.179    48 H    0.973
    24   6 C    3.909 --    26 C    1.325    25 N    1.223    23 C    1.179
    25   7 N    3.248 --    21 C    1.254    24 C    1.223     1 Cu   0.504
    26   6 C    3.935 --    24 C    1.325    33 C    1.320    27 C    1.027
    27   6 C    3.986 --    28 C    1.393    32 C    1.393    26 C    1.027
                            30 N    0.107
    28   6 C    3.987 --    29 C    1.442    27 C    1.393    49 H    0.973
                            31 C    0.108
    29   6 C    3.972 --    28 C    1.442    30 N    1.416    50 H    0.972
                            32 C    0.109
    30   7 N    3.030 --    29 C    1.416    31 C    1.415    27 C    0.107
    31   6 C    3.972 --    32 C    1.442    30 N    1.415    51 H    0.972
                            28 C    0.108
    32   6 C    3.987 --    31 C    1.442    27 C    1.393    52 H    0.973
                            29 C    0.109
    33   6 C    3.914 --    26 C    1.320    37 N    1.238    34 C    1.171
    34   6 C    3.958 --    35 C    1.657    33 C    1.171    53 H    0.973
    35   6 C    3.955 --    34 C    1.657    36 C    1.170    54 H    0.975
    36   6 C    3.916 --     2 C    1.362    37 N    1.229    35 C    1.170
    37   7 N    3.244 --    33 C    1.238    36 C    1.229     1 Cu   0.506
    38   1 H    1.001 --     2 C    0.971
    39   1 H    0.998 --     4 C    0.975
    40   1 H    1.004 --     5 C    0.973
    41   1 H    1.004 --    10 C    0.973
    42   1 H    1.013 --    11 C    0.972
    43   1 H    1.013 --    13 C    0.972
    44   1 H    1.004 --    14 C    0.973
    45   1 H    1.004 --    16 C    0.973
    46   1 H    1.005 --    17 C    0.971
    47   1 H    1.005 --    22 C    0.971
    48   1 H    1.004 --    23 C    0.973
    49   1 H    1.004 --    28 C    0.973
    50   1 H    1.013 --    29 C    0.972
    51   1 H    1.013 --    31 C    0.972
    52   1 H    1.004 --    32 C    0.973
    53   1 H    1.004 --    34 C    0.973
    54   1 H    0.998 --    35 C    0.975
    55  29 Cu   2.193 --    61 N    0.507    91 N    0.507    79 N    0.504
                            72 N    0.504
    56   6 C    3.931 --    57 C    1.362    90 C    1.362    92 H    0.971
    57   6 C    3.916 --    56 C    1.362    61 N    1.229    58 C    1.170
    58   6 C    3.955 --    59 C    1.657    57 C    1.170    93 H    0.975
    59   6 C    3.958 --    58 C    1.657    60 C    1.171    94 H    0.973
    60   6 C    3.914 --    62 C    1.321    61 N    1.238    59 C    1.171
    61   7 N    3.245 --    60 C    1.238    57 C    1.229    55 Cu   0.507
    62   6 C    3.935 --    69 C    1.325    60 C    1.321    63 C    1.026
    63   6 C    3.986 --    68 C    1.394    64 C    1.394    62 C    1.026
                            66 N    0.107
    64   6 C    3.987 --    65 C    1.442    63 C    1.394    95 H    0.973
                            67 C    0.109
    65   6 C    3.972 --    64 C    1.442    66 N    1.416    96 H    0.972
                            68 C    0.109
    66   7 N    3.030 --    67 C    1.416    65 C    1.416    63 C    0.107
    67   6 C    3.972 --    68 C    1.442    66 N    1.416    97 H    0.972
                            64 C    0.109
    68   6 C    3.987 --    67 C    1.442    63 C    1.394    98 H    0.973
                            65 C    0.109
    69   6 C    3.909 --    62 C    1.325    72 N    1.224    70 C    1.179
    70   6 C    3.955 --    71 C    1.643    69 C    1.179    99 H    0.973
    71   6 C    3.957 --    70 C    1.643    73 C    1.186   100 H    0.971
    72   7 N    3.248 --    73 C    1.253    69 C    1.224    55 Cu   0.504
    73   6 C    3.903 --    74 C    1.268    72 N    1.253    71 C    1.186
    74   6 C    3.940 --    73 C    1.268    75 C    1.268   114 C    1.168
    75   6 C    3.903 --    74 C    1.268    79 N    1.252    76 C    1.186
    76   6 C    3.957 --    77 C    1.643    75 C    1.186   101 H    0.971
    77   6 C    3.955 --    76 C    1.643    78 C    1.179   102 H    0.973
    78   6 C    3.909 --    80 C    1.324    79 N    1.224    77 C    1.179
    79   7 N    3.249 --    75 C    1.252    78 C    1.224    55 Cu   0.504
    80   6 C    3.935 --    78 C    1.324    87 C    1.320    81 C    1.028
    81   6 C    3.986 --    82 C    1.393    86 C    1.393    80 C    1.028
                            84 N    0.107
    82   6 C    3.987 --    83 C    1.442    81 C    1.393   103 H    0.973
                            85 C    0.108
    83   6 C    3.972 --    82 C    1.442    84 N    1.416   104 H    0.972
                            86 C    0.108
    84   7 N    3.030 --    83 C    1.416    85 C    1.415    81 C    0.107
    85   6 C    3.972 --    86 C    1.442    84 N    1.415   105 H    0.972
                            82 C    0.108
    86   6 C    3.987 --    85 C    1.442    81 C    1.393   106 H    0.973
                            83 C    0.108
    87   6 C    3.914 --    80 C    1.320    91 N    1.238    88 C    1.171
    88   6 C    3.958 --    89 C    1.657    87 C    1.171   107 H    0.973
    89   6 C    3.955 --    88 C    1.657    90 C    1.170   108 H    0.975
    90   6 C    3.916 --    56 C    1.362    91 N    1.229    89 C    1.170
    91   7 N    3.244 --    87 C    1.238    90 C    1.229    55 Cu   0.507
    92   1 H    1.001 --    56 C    0.971
    93   1 H    0.998 --    58 C    0.975
    94   1 H    1.004 --    59 C    0.973
    95   1 H    1.004 --    64 C    0.973
    96   1 H    1.013 --    65 C    0.972
    97   1 H    1.013 --    67 C    0.972
    98   1 H    1.004 --    68 C    0.973
    99   1 H    1.004 --    70 C    0.973
   100   1 H    1.005 --    71 C    0.971
   101   1 H    1.004 --    76 C    0.971
   102   1 H    1.004 --    77 C    0.973
   103   1 H    1.004 --    82 C    0.973
   104   1 H    1.013 --    83 C    0.972
   105   1 H    1.013 --    85 C    0.972
   106   1 H    1.004 --    86 C    0.973
   107   1 H    1.004 --    88 C    0.973
   108   1 H    0.998 --    89 C    0.975
   109   6 C    3.932 --   110 C    2.582    20 C    1.172
   110   6 C    3.935 --   109 C    2.582   116 C    1.174
   111   6 C    3.933 --   112 C    2.575   134 C    1.180
   112   6 C    3.932 --   111 C    2.575   169 C    1.179
   113   6 C    3.934 --   114 C    2.585   187 C    1.170
   114   6 C    3.931 --   113 C    2.585    74 C    1.168
   115  29 Cu   2.165 --   139 N    0.498   121 N    0.498   132 N    0.498
                           151 N    0.498
   116   6 C    3.927 --   150 C    1.263   117 C    1.263   110 C    1.174
   117   6 C    3.903 --   116 C    1.263   121 N    1.256   118 C    1.187
   118   6 C    3.955 --   119 C    1.640   117 C    1.187   152 H    0.971
   119   6 C    3.956 --   118 C    1.640   120 C    1.181   153 H    0.973
   120   6 C    3.908 --   122 C    1.321   121 N    1.224   119 C    1.181
   121   7 N    3.240 --   117 C    1.256   120 C    1.224   115 Cu   0.498
   122   6 C    3.929 --   129 C    1.322   120 C    1.321   123 C    1.030
   123   6 C    3.986 --   124 C    1.392   128 C    1.391   122 C    1.030
                           126 N    0.106
   124   6 C    3.987 --   125 C    1.442   123 C    1.392   154 H    0.973
                           127 C    0.108
   125   6 C    3.972 --   124 C    1.442   126 N    1.415   155 H    0.972
                           128 C    0.108
   126   7 N    3.029 --   125 C    1.415   127 C    1.415   123 C    0.106
   127   6 C    3.972 --   128 C    1.443   126 N    1.415   156 H    0.972
                           124 C    0.108
   128   6 C    3.987 --   127 C    1.443   123 C    1.391   157 H    0.973
                           125 C    0.108
   129   6 C    3.908 --   122 C    1.322   132 N    1.224   130 C    1.181
   130   6 C    3.955 --   131 C    1.640   129 C    1.181   158 H    0.973
   131   6 C    3.955 --   130 C    1.640   133 C    1.188   159 H    0.970
   132   7 N    3.240 --   133 C    1.258   129 C    1.224   115 Cu   0.498
   133   6 C    3.902 --   134 C    1.261   132 N    1.258   131 C    1.188
   134   6 C    3.928 --   133 C    1.261   135 C    1.260   111 C    1.180
   135   6 C    3.902 --   134 C    1.260   139 N    1.258   136 C    1.188
   136   6 C    3.955 --   137 C    1.639   135 C    1.188   160 H    0.970
   137   6 C    3.955 --   136 C    1.639   138 C    1.181   161 H    0.973
   138   6 C    3.908 --   140 C    1.321   139 N    1.224   137 C    1.181
   139   7 N    3.240 --   135 C    1.258   138 C    1.224   115 Cu   0.498
   140   6 C    3.929 --   138 C    1.321   147 C    1.321   141 C    1.031
   141   6 C    3.986 --   146 C    1.392   142 C    1.391   140 C    1.031
                           144 N    0.106
   142   6 C    3.986 --   143 C    1.443   141 C    1.391   162 H    0.973
                           145 C    0.108
   143   6 C    3.972 --   142 C    1.443   144 N    1.415   163 H    0.972
                           146 C    0.108
   144   7 N    3.029 --   145 C    1.415   143 C    1.415   141 C    0.106
   145   6 C    3.972 --   146 C    1.442   144 N    1.415   164 H    0.972
                           142 C    0.108
   146   6 C    3.987 --   145 C    1.442   141 C    1.392   165 H    0.973
                           143 C    0.108
   147   6 C    3.908 --   140 C    1.321   151 N    1.224   148 C    1.181
   148   6 C    3.956 --   149 C    1.640   147 C    1.181   166 H    0.973
   149   6 C    3.956 --   148 C    1.640   150 C    1.187   167 H    0.971
   150   6 C    3.904 --   116 C    1.263   151 N    1.257   149 C    1.187
   151   7 N    3.240 --   150 C    1.257   147 C    1.224   115 Cu   0.498
   152   1 H    1.005 --   118 C    0.971
   153   1 H    1.004 --   119 C    0.973
   154   1 H    1.004 --   124 C    0.973
   155   1 H    1.013 --   125 C    0.972
   156   1 H    1.013 --   127 C    0.972
   157   1 H    1.004 --   128 C    0.973
   158   1 H    1.004 --   130 C    0.973
   159   1 H    1.005 --   131 C    0.970
   160   1 H    1.005 --   136 C    0.970
   161   1 H    1.004 --   137 C    0.973
   162   1 H    1.004 --   142 C    0.973
   163   1 H    1.013 --   143 C    0.972
   164   1 H    1.013 --   145 C    0.972
   165   1 H    1.004 --   146 C    0.973
   166   1 H    1.004 --   148 C    0.973
   167   1 H    1.004 --   149 C    0.971
   168  29 Cu   2.164 --   174 N    0.499   192 N    0.498   204 N    0.498
                           185 N    0.498
   169   6 C    3.929 --   170 C    1.261   203 C    1.260   112 C    1.179
   170   6 C    3.902 --   169 C    1.261   174 N    1.257   171 C    1.188
   171   6 C    3.955 --   172 C    1.640   170 C    1.188   205 H    0.970
   172   6 C    3.955 --   171 C    1.640   173 C    1.181   206 H    0.973
   173   6 C    3.908 --   175 C    1.322   174 N    1.223   172 C    1.181
   174   7 N    3.240 --   170 C    1.257   173 C    1.223   168 Cu   0.499
   175   6 C    3.929 --   173 C    1.322   182 C    1.321   176 C    1.029
   176   6 C    3.986 --   177 C    1.392   181 C    1.392   175 C    1.029
                           179 N    0.106
   177   6 C    3.987 --   178 C    1.442   176 C    1.392   207 H    0.973
                           180 C    0.108
   178   6 C    3.972 --   177 C    1.442   179 N    1.415   208 H    0.972
                           181 C    0.108
   179   7 N    3.029 --   180 C    1.415   178 C    1.415   176 C    0.106
   180   6 C    3.972 --   181 C    1.442   179 N    1.415   209 H    0.972
                           177 C    0.108
   181   6 C    3.987 --   180 C    1.442   176 C    1.392   210 H    0.973
                           178 C    0.108
   182   6 C    3.908 --   175 C    1.321   185 N    1.225   183 C    1.180
   183   6 C    3.956 --   184 C    1.641   182 C    1.180   211 H    0.973
   184   6 C    3.955 --   183 C    1.641   186 C    1.186   212 H    0.971
   185   7 N    3.240 --   186 C    1.256   182 C    1.225   168 Cu   0.498
   186   6 C    3.904 --   187 C    1.265   185 N    1.256   184 C    1.186
   187   6 C    3.928 --   188 C    1.266   186 C    1.265   113 C    1.170
   188   6 C    3.904 --   187 C    1.266   192 N    1.255   189 C    1.186
   189   6 C    3.955 --   190 C    1.641   188 C    1.186   213 H    0.971
   190   6 C    3.956 --   189 C    1.641   191 C    1.180   214 H    0.973
   191   6 C    3.908 --   193 C    1.321   192 N    1.225   190 C    1.180
   192   7 N    3.240 --   188 C    1.255   191 C    1.225   168 Cu   0.498
   193   6 C    3.929 --   200 C    1.323   191 C    1.321   194 C    1.029
   194   6 C    3.986 --   199 C    1.392   195 C    1.392   193 C    1.029
                           197 N    0.106
   195   6 C    3.987 --   196 C    1.442   194 C    1.392   215 H    0.973
                           198 C    0.108
   196   6 C    3.972 --   195 C    1.442   197 N    1.415   216 H    0.972
                           199 C    0.108
   197   7 N    3.029 --   196 C    1.415   198 C    1.415   194 C    0.106
   198   6 C    3.972 --   199 C    1.442   197 N    1.415   217 H    0.972
                           195 C    0.108
   199   6 C    3.987 --   198 C    1.442   194 C    1.392   218 H    0.973
                           196 C    0.108
   200   6 C    3.908 --   193 C    1.323   204 N    1.223   201 C    1.181
   201   6 C    3.955 --   202 C    1.640   200 C    1.181   219 H    0.973
   202   6 C    3.955 --   201 C    1.640   203 C    1.187   220 H    0.970
   203   6 C    3.902 --   169 C    1.260   204 N    1.258   202 C    1.187
   204   7 N    3.240 --   203 C    1.258   200 C    1.223   168 Cu   0.498
   205   1 H    1.005 --   171 C    0.970
   206   1 H    1.004 --   172 C    0.973
   207   1 H    1.004 --   177 C    0.973
   208   1 H    1.013 --   178 C    0.972
   209   1 H    1.013 --   180 C    0.972
   210   1 H    1.004 --   181 C    0.973
   211   1 H    1.004 --   183 C    0.973
   212   1 H    1.005 --   184 C    0.971
   213   1 H    1.004 --   189 C    0.971
   214   1 H    1.004 --   190 C    0.973
   215   1 H    1.004 --   195 C    0.973
   216   1 H    1.013 --   196 C    0.972
   217   1 H    1.013 --   198 C    0.972
   218   1 H    1.004 --   199 C    0.973
   219   1 H    1.004 --   201 C    0.973
   220   1 H    1.005 --   202 C    0.970
 ---------------------------------------------------------------------------

           -------------------------------------------------
          | TOTAL ENERGY             -396.342552805554 Eh   |
          | GRADIENT NORM               0.000497599485 Eh/α |
          | HOMO-LUMO GAP               0.000284641594 eV   |
           -------------------------------------------------

 * finished run on 2022/07/30 at 04:41:05.022
