   * xtb version 6.5.1 (b24c23e) compiled by 'conda@728c89f4b128' on 2022-07-12
          program call               : xtb Ni_PhNO2_C4_3.xyz --gfn 1 --opt -T 48

   ID    Z sym.   atoms
    1   28 Ni     1, 61, 129
    2    6 C      2-6, 8-12, 16-20, 22-27, 29-33, 37-42, 62-66, 68-72, 76-80,
                  82-87, 89-93, 97-102, 121-128, 130-134, 136-140, 144-148,
                  150-155, 157-161, 165-170
    3    7 N      7, 13, 21, 28, 34, 43, 67, 73, 81, 88, 94, 103, 135, 141,
                  149, 156, 162, 171
    4    8 O      14, 15, 35, 36, 74, 75, 95, 96, 142, 143, 163, 164
    5    1 H      44-60, 104-120, 172-187
########################################################################
[WARNING] Please study the warnings concerning your input carefully
-1- prog_main_parseArguments: Unknown option '-T' provided
########################################################################

          :  Hamiltonian                  GFN1-xTB          :
 * total energy  :  -370.7747583 Eh     change        0.6588152E-09 Eh
 * total energy  :  -371.6316843 Eh     change       -0.8569260E+00 Eh
 * total energy  :  -371.8989513 Eh     change       -0.2672670E+00 Eh
 * total energy  :  -372.0288080 Eh     change       -0.1298567E+00 Eh
 * total energy  :  -372.0972375 Eh     change       -0.6842946E-01 Eh
 * total energy  :  -372.1361547 Eh     change       -0.3891723E-01 Eh
 * total energy  :  -372.1573137 Eh     change       -0.2115896E-01 Eh
 * total energy  :  -372.1698512 Eh     change       -0.1253752E-01 Eh
 * total energy  :  -372.1781308 Eh     change       -0.8279613E-02 Eh
 * total energy  :  -372.1855080 Eh     change       -0.7377163E-02 Eh
 * total energy  :  -372.2114737 Eh     change       -0.7777672E-05 Eh
 * total energy  :  -372.2114804 Eh     change       -0.6723397E-05 Eh
 * total energy  :  -372.2114873 Eh     change       -0.6922007E-05 Eh
 * total energy  :  -372.2114940 Eh     change       -0.6668370E-05 Eh
 * total energy  :  -372.2115003 Eh     change       -0.6318898E-05 Eh
 * total energy  :  -372.2115080 Eh     change       -0.7678189E-05 Eh
 * total energy  :  -372.2115149 Eh     change       -0.6870510E-05 Eh
 * total energy  :  -372.2115208 Eh     change       -0.5963761E-05 Eh
 * total energy  :  -372.2115229 Eh     change       -0.2028486E-05 Eh
   *** GEOMETRY OPTIMIZATION CONVERGED AFTER 59 ITERATIONS ***

 final structure:
================
187
 xtb: 6.5.1 (b24c23e)
Ni          32.32124674661962       -0.00583054233760       -0.07663771622781
C           28.93048477876207       -0.01953443121887       -0.20495777909786
C           29.58477820052310       -1.23262286623707       -0.25100610734920
C           28.91010942077106       -2.49329623646837       -0.31290410991100
C           29.86920804300379       -3.44152479026813       -0.42195527207989
C           31.12905984693795       -2.75640561451226       -0.44422391334495
N           30.94574701090519       -1.40443969073712       -0.30040464773549
C           32.35233958117158       -3.38687253908139       -0.63355175917433
C           32.36956795819967       -4.84945312622433       -0.86547255116130
C           33.03282323323272       -5.69587726398209        0.02797660452980
C           33.05036673559729       -7.06294515260526       -0.18054724578433
C           32.40382370880535       -7.58750402031982       -1.29600384893912
N           32.42154251702953       -9.02249125817823       -1.52155841458957
O           31.84978937836900       -9.44058881627212       -2.49537482690733
O           33.00658645938979       -9.70520919194522       -0.72065098833317
C           31.74106269120087       -6.76176896276538       -2.19943981588379
C           31.72460698443609       -5.39653128402572       -1.97864271712418
C           33.56142371466458       -2.70299764290987       -0.62328269265699
C           34.82582476527778       -3.31796661210646       -0.89395714214958
C           35.76907427258961       -2.35995309374895       -0.73009879737734
N           33.72650754269203       -1.36831728891613       -0.33365122847253
C           35.07899318504229       -1.16351059683687       -0.36581161183604
C           35.73457490741021        0.02066200095599       -0.02023241292385
C           35.05043934223966        1.18980713195565        0.32119723525064
C           35.70903949774637        2.38673443563833        0.73783235126156
C           34.74415176871621        3.32166556906744        0.90930193120473
C           33.49919475217020        2.69508040936248        0.58109912801843
N           33.69606515639309        1.37231401398336        0.25711551190112
C           32.28067274284854        3.36141096869373        0.55708383723167
C           32.26076263607165        4.81453357874652        0.84201106750059
C           31.54359129750195        5.30790812166385        1.93602824568041
C           31.52362834428694        6.66343150647554        2.20962715397412
C           32.22247393139808        7.53391905927300        1.37820623580346
N           32.20311949916698        8.95892187411716        1.65974374646835
O           31.56561427147728        9.33028421293091        2.61142626819868
O           32.82713422794262        9.68059067488285        0.92510268550377
C           32.93927214133241        7.06346164356160        0.28172723491694
C           32.95718116188218        5.70552521281607        0.02002046213006
C           31.07956852790269        2.72448233884453        0.27077367376738
C           29.81884991825341        3.40100589783378        0.17085237236975
C           28.88122750728471        2.45085838074373       -0.05031888665321
C           29.56998023669113        1.19695488356719       -0.09230358408197
N           30.92105821290570        1.37651966266397        0.07256326251965
H           27.84781602123569       -0.02307330867480       -0.25054743466486
H           27.83967739261246       -2.61603586418599       -0.27273115816416
H           29.74775017092529       -4.51091439862685       -0.47944848325727
H           33.52336630347790       -5.27523182172150        0.89800569128789
H           33.55613498709418       -7.72777346161995        0.50929139878096
H           31.24951675841112       -7.19494126601112       -3.06225076770694
H           31.22218855858375       -4.74159359796453       -2.68086795983778
H           34.96346260679518       -4.34765573398572       -1.18059994830480
H           36.83825033348298       -2.44093473728473       -0.84069408778129
H           36.77327463793325        2.48239953428814        0.88000112309614
H           34.85554508107423        4.34336075627333        1.23343853756561
H           31.01282873904018        4.61818643635440        2.58185121615197
H           30.97627370894855        7.05494274843419        3.05863133647901
H           33.47090070316843        7.76258951920531       -0.35252902676259
H           33.50174327261686        5.32748695637291       -0.83733239513333
H           29.68321007109323        4.46702014137282        0.25383244338103
H           27.81654994528156        2.56753056652121       -0.17418574870884
Ni          59.18759019539942        0.06196223120565       -0.02501048961249
C           62.57698786921268        0.11709845358252       -0.14993325616476
C           61.92581023361847        1.25765151769434        0.27105280691372
C           62.60221756554462        2.44717827089104        0.69043223969098
C           61.64492933264607        3.37095062492959        0.93822801421715
C           60.38445882409125        2.74859680124699        0.65363755503770
N           60.56533451977786        1.43986709672652        0.28441175240172
C           59.16332640420977        3.40963781264995        0.69857899433849
C           59.14966511508413        4.85546064648563        1.01831181275323
C           58.47687563412629        5.31921553964831        2.15271592125812
C           58.46364082259682        6.66767238619054        2.45951560013580
C           59.12387549005622        7.56094920312582        1.62071995512396
N           59.11095956943956        8.97876728525856        1.93690091134966
O           59.69662183446704        9.72128317145173        1.19151659234316
O           58.51604216555518        9.32379885943850        2.92534787884796
C           59.79606582916954        7.12012041845160        0.48442409332812
C           59.80832928165671        5.76886225091741        0.18984504231338
C           57.95373043710008        2.77385731914564        0.44851695882468
C           56.69132474420680        3.44827588142232        0.41093304020730
C           55.74620209359261        2.49761435960581        0.21633493349672
N           57.78572865186968        1.42487325915943        0.23706031870047
C           56.43319447002009        1.24827766031509        0.13074365769132
C           55.77593986898377        0.01832645456588        0.04176097487074
C           56.46039042203120       -1.19624073468101       -0.05421001821972
C           55.80380145145563       -2.46415990318634       -0.08512411175077
C           56.76652889496708       -3.39557439196399       -0.28682948738453
C           58.00790687298770       -2.68996616094540       -0.39226865689631
N           57.81237672394282       -1.34090863471796       -0.20491780592839
C           59.22039531018644       -3.29664565206104       -0.69507044112743
C           59.23363173236369       -4.74822599210644       -0.98666539295952
C           59.97754027957000       -5.62282025862229       -0.18899264387566
C           59.99260696053499       -6.97921619600845       -0.45878733592841
C           59.26143931923990       -7.46454931996811       -1.53917451423230
N           59.27676464282222       -8.88783152033034       -1.82948696684537
O           59.94131025643141       -9.59489278943816       -1.11649407935931
O           58.62387804174085       -9.27265268051406       -2.76525217446762
C           58.51626729888741       -6.61038180122216       -2.34698257600405
C           58.50373133331777       -5.25646357741302       -2.06547411174092
C           60.41995494561330       -2.59716134810931       -0.74482053241305
C           61.67577481883622       -3.18332858765322       -1.11408078289056
C           62.61606895621572       -2.22206058295851       -0.96266004576680
C           61.93344215820969       -1.04789813273093       -0.51126384861328
N           60.58309955687167       -1.27584278686548       -0.41460446905075
H           63.65957725915539        0.13541028490491       -0.19366164978987
H           63.67251494445534        2.54240902310287        0.77937192351230
H           61.76802447647912        4.38391151898405        1.28526119013754
H           57.97578289457597        4.61168269859277        2.80297361166241
H           57.95091424694367        7.03625428966465        3.33982348854673
H           60.29811865296161        7.83664775729508       -0.15450841931521
H           60.31821999759575        5.41388310323146       -0.69813024372824
H           56.55611303202499        4.51256774814294        0.51295907942314
H           54.67753880017577        2.61562900715457        0.13887614018620
H           54.74219452809371       -2.60723582631145        0.03533683537454
H           56.65602168429641       -4.46545516198580       -0.35400996868218
H           60.53335561305467       -5.23356500828714        0.65601959524739
H           60.56111719637401       -7.66589942860328        0.15680268131847
H           57.95920439651710       -7.01298698559554       -3.18439950336383
H           57.93745850427504       -4.57893714473246       -2.69382669370247
H           61.80708773506445       -4.19910103102334       -1.44967915936385
H           63.67879346634322       -2.28306207914038       -1.13411377146436
C           38.36233360597356        0.03753680318521        0.00628580461368
C           37.14117377937588        0.03175420863542       -0.00534732975880
C           39.71341703470209        0.03951118282578        0.01638517736758
C           40.93469296497215        0.03491123622621        0.02239673533025
C           51.79836274606713       -0.01616714371283        0.05695456493896
C           50.57682857599050       -0.01879583973672        0.05133138983584
C           53.14885516550930       -0.01004898843266        0.05710892903708
C           54.37024374551838        0.00228423025551        0.05374124952914
Ni          45.75582945684984        0.00640113761340        0.00786857626808
C           42.34085622404464        0.02779011801225        0.02020943773953
C           43.00653698672241       -1.18384891878383        0.22420810109342
C           42.33110198513258       -2.41598859409499        0.47928291907674
C           43.27973739529379       -3.38319628132029        0.49543013961023
C           44.53148725107827       -2.73738171753356        0.24078461080325
N           44.35667165586450       -1.37826411609879        0.11895107932653
C           45.73582761265592       -3.41195984913912        0.08499463287519
C           45.72590531790365       -4.89233993374070        0.11660369540949
C           46.44758274141882       -5.58151315294889        1.09580644546522
C           46.43756527093271       -6.96398676595574        1.13314259691448
C           45.70410023240186       -7.66326281729848        0.17906779299243
N           45.69133861410437       -9.11589223784553        0.21297520586456
O           45.04222481037075       -9.68681199918476       -0.62485616644439
O           46.33289842887000       -9.65834394788744        1.07555599104797
C           44.98181768210164       -6.99624918522010       -0.80612102522699
C           44.99338152871022       -5.61345151861275       -0.83100355665942
C           46.94901442633485       -2.75920723348645       -0.09287642163271
C           48.19537836793147       -3.42988677994116       -0.30602634600172
C           49.15624527659557       -2.47458486647001       -0.31374446377057
N           47.13963946332636       -1.39830314110215       -0.02418037863306
C           48.49325186504983       -1.22499021787812       -0.11869896906495
C           49.17148639622305       -0.01320741775265        0.03995720575173
C           48.50431167500998        1.20752869382563        0.17589806991830
C           49.17809156576900        2.45271602271256        0.36233865125922
C           48.23039688413944        3.41951547986415        0.30664476700351
C           46.98080781592803        2.75934702929954        0.08024894520408
N           47.15551347689435        1.39540982374831        0.04599175079695
C           45.77841486150580        3.42340490841439       -0.12784386786582
C           45.79374699325923        4.90189313009961       -0.20632850768814
C           46.53454759899957        5.54394273778333       -1.20325540155229
C           46.54996666853053        6.92416998135052       -1.28835660388563
C           45.82312015151922        7.66895597706577       -0.36412617095115
N           45.83740757907099        9.11949500160904       -0.44789060503393
O           46.49425566268032        9.62019254339022       -1.32396927970451
O           45.18840362709111        9.73051571828223        0.36142119168887
C           45.08319213759980        7.04939070405888        0.63879336291135
C           45.06965761191334        5.66827190137356        0.71165960311035
C           44.56480419624237        2.76182383644175       -0.26468822473112
C           43.31873292375364        3.41903773401536       -0.51838938073438
C           42.35716680596274        2.46600050264491       -0.46662614478979
C           43.01948526735060        1.22979141228817       -0.19755864354834
N           44.37311699930347        1.40776291202884       -0.11215218624267
H           41.26720055945129       -2.51269264913064        0.62323340332990
H           43.15311472400055       -4.43924632587302        0.66896982714429
H           47.00501192172013       -5.02455772690137        1.83983193515419
H           46.98787451679181       -7.50718769450798        1.89194477433938
H           44.42246131922305       -7.56444991120300       -1.53960119267761
H           44.44379375947678       -5.08189774797393       -1.59906680309988
H           48.31079356169416       -4.49345099295708       -0.43599853620589
H           50.22075918960198       -2.58987800068060       -0.43826563223585
H           50.24042055725682        2.55802353943748        0.51175216875178
H           48.35608863239300        4.48437375821935        0.41471869965960
H           47.08718028925760        4.95151030095355       -1.92309028875496
H           47.11515841130083        7.43088922217883       -2.06132402969329
H           44.53022282302945        7.65255778619746        1.34879299104230
H           44.50717895112489        5.17366126145384        1.49489892585718
H           43.20371203900596        4.47269501946200       -0.71305825714000
H           41.29270012847966        2.57458461555317       -0.59727205781800

          :  Hamiltonian                  GFN1-xTB          :
         :: total energy            -372.211522871261 Eh    ::
         :: gradient norm              0.000993008576 Eh/a0 ::
         :: HOMO-LUMO gap              1.075204888784 eV    ::
         :: SCC energy              -377.355449310589 Eh    ::
         :: repulsion energy           5.315506937312 Eh    ::

    * Orbital Energies and Occupations

         #    Occupation            Energy/Eh            Energy/eV
      -------------------------------------------------------------
         1        2.0000           -0.9255547             -25.1856
       ...           ...                  ...                  ...
       317        2.0000           -0.4241671             -11.5422
       318        2.0000           -0.4239042             -11.5350
       319        2.0000           -0.4238849             -11.5345
       320        2.0000           -0.4238708             -11.5341
       321        2.0000           -0.4238236             -11.5328
       322        2.0000           -0.4230078             -11.5106
       323        2.0000           -0.4229913             -11.5102
       324        2.0000           -0.4219448             -11.4817
       325        2.0000           -0.4219426             -11.4816
       326        2.0000           -0.4218218             -11.4784
       327        2.0000           -0.4218215             -11.4783
       328        2.0000           -0.4168848             -11.3440
       329        2.0000           -0.4090381             -11.1305 (HOMO)
       330                         -0.3695250             -10.0553 (LUMO)
       331                         -0.3625649              -9.8659
       332                         -0.3611128              -9.8264
       333                         -0.3609972              -9.8232
       334                         -0.3597867              -9.7903
       335                         -0.3560481              -9.6886
       336                         -0.3543541              -9.6425
       337                         -0.3540727              -9.6348
       338                         -0.3523989              -9.5893
       339                         -0.3519832              -9.5779
       340                         -0.3517370              -9.5713
       ...                                ...                  ...
       663                          1.4928109              40.6215
      -------------------------------------------------------------
                  HL-Gap            0.0395131 Eh            1.0752 eV

Wiberg/Mayer (AO) data.
largest (>0.10) Wiberg bond orders for each atom

     #   Z sym  total        # sym  WBO       # sym  WBO       # sym  WBO
 ---------------------------------------------------------------------------
     1  28 Ni   3.007 --    43 N    0.663     7 N    0.663    21 N    0.659
                            28 N    0.659
     2   6 C    3.936 --    42 C    1.365     3 C    1.364    44 H    0.970
     3   6 C    3.921 --     2 C    1.364     7 N    1.212     4 C    1.173
     4   6 C    3.960 --     5 C    1.651     3 C    1.173    45 H    0.974
     5   6 C    3.962 --     4 C    1.651     6 C    1.174    46 H    0.972
     6   6 C    3.920 --     8 C    1.321     7 N    1.223     5 C    1.174
     7   7 N    3.402 --     6 C    1.223     3 C    1.212     1 Ni   0.663
     8   6 C    3.937 --    18 C    1.324     6 C    1.321     9 C    1.031
     9   6 C    3.985 --    17 C    1.384    10 C    1.384     8 C    1.031
    10   6 C    3.987 --    11 C    1.463     9 C    1.384    47 H    0.971
                            16 C    0.102
    11   6 C    3.987 --    10 C    1.463    12 C    1.388    48 H    0.964
                            17 C    0.102
    12   6 C    3.942 --    16 C    1.388    11 C    1.388    13 N    0.920
    13   7 N    3.866 --    15 O    1.455    14 O    1.455    12 C    0.920
    14   8 O    1.830 --    13 N    1.455    15 O    0.252
    15   8 O    1.830 --    13 N    1.455    14 O    0.252
    16   6 C    3.987 --    17 C    1.463    12 C    1.388    49 H    0.964
                            10 C    0.102
    17   6 C    3.987 --    16 C    1.463     9 C    1.384    50 H    0.971
                            11 C    0.102
    18   6 C    3.915 --     8 C    1.324    21 N    1.210    19 C    1.182
    19   6 C    3.959 --    20 C    1.637    18 C    1.182    51 H    0.973
    20   6 C    3.961 --    19 C    1.637    22 C    1.190    52 H    0.973
    21   7 N    3.405 --    22 C    1.236    18 C    1.210     1 Ni   0.659
    22   6 C    3.903 --    23 C    1.267    21 N    1.236    20 C    1.190
    23   6 C    3.945 --    22 C    1.267    24 C    1.266   122 C    1.178
    24   6 C    3.903 --    23 C    1.266    28 N    1.237    25 C    1.190
    25   6 C    3.961 --    26 C    1.637    24 C    1.190    53 H    0.973
    26   6 C    3.959 --    25 C    1.637    27 C    1.182    54 H    0.972
    27   6 C    3.915 --    29 C    1.325    28 N    1.209    26 C    1.182
    28   7 N    3.405 --    24 C    1.237    27 C    1.209     1 Ni   0.659
    29   6 C    3.937 --    27 C    1.325    39 C    1.320    30 C    1.032
    30   6 C    3.985 --    38 C    1.384    31 C    1.384    29 C    1.032
    31   6 C    3.987 --    32 C    1.463    30 C    1.384    55 H    0.971
                            37 C    0.102
    32   6 C    3.987 --    31 C    1.463    33 C    1.388    56 H    0.964
                            38 C    0.102
    33   6 C    3.942 --    37 C    1.388    32 C    1.388    34 N    0.920
    34   7 N    3.866 --    36 O    1.455    35 O    1.455    33 C    0.920
    35   8 O    1.830 --    34 N    1.455    36 O    0.252
    36   8 O    1.830 --    34 N    1.455    35 O    0.252
    37   6 C    3.987 --    38 C    1.463    33 C    1.388    57 H    0.964
                            31 C    0.102
    38   6 C    3.987 --    37 C    1.463    30 C    1.384    58 H    0.971
                            32 C    0.102
    39   6 C    3.920 --    29 C    1.320    43 N    1.224    40 C    1.174
    40   6 C    3.963 --    41 C    1.652    39 C    1.174    59 H    0.972
    41   6 C    3.960 --    40 C    1.652    42 C    1.173    60 H    0.974
    42   6 C    3.921 --     2 C    1.365    43 N    1.211    41 C    1.173
    43   7 N    3.402 --    39 C    1.224    42 C    1.211     1 Ni   0.663
    44   1 H    0.999 --     2 C    0.970
    45   1 H    0.997 --     4 C    0.974
    46   1 H    1.003 --     5 C    0.972
    47   1 H    1.003 --    10 C    0.971
    48   1 H    1.006 --    11 C    0.964
    49   1 H    1.006 --    16 C    0.964
    50   1 H    1.003 --    17 C    0.971
    51   1 H    1.003 --    19 C    0.973
    52   1 H    1.001 --    20 C    0.973
    53   1 H    1.001 --    25 C    0.973
    54   1 H    1.003 --    26 C    0.972
    55   1 H    1.003 --    31 C    0.971
    56   1 H    1.006 --    32 C    0.964
    57   1 H    1.006 --    37 C    0.964
    58   1 H    1.003 --    38 C    0.971
    59   1 H    1.003 --    40 C    0.972
    60   1 H    0.997 --    41 C    0.974
    61  28 Ni   3.009 --   103 N    0.663    67 N    0.663    88 N    0.659
                            81 N    0.659
    62   6 C    3.936 --   102 C    1.365    63 C    1.364   104 H    0.969
    63   6 C    3.921 --    62 C    1.364    67 N    1.212    64 C    1.173
    64   6 C    3.960 --    65 C    1.651    63 C    1.173   105 H    0.974
    65   6 C    3.962 --    64 C    1.651    66 C    1.174   106 H    0.972
    66   6 C    3.920 --    68 C    1.321    67 N    1.223    65 C    1.174
    67   7 N    3.402 --    66 C    1.223    63 C    1.212    61 Ni   0.663
    68   6 C    3.937 --    78 C    1.324    66 C    1.321    69 C    1.032
    69   6 C    3.985 --    77 C    1.384    70 C    1.384    68 C    1.032
    70   6 C    3.987 --    71 C    1.463    69 C    1.384   107 H    0.971
                            76 C    0.102
    71   6 C    3.987 --    70 C    1.463    72 C    1.388   108 H    0.964
                            77 C    0.102
    72   6 C    3.942 --    76 C    1.388    71 C    1.388    73 N    0.920
    73   7 N    3.866 --    74 O    1.455    75 O    1.455    72 C    0.920
    74   8 O    1.830 --    73 N    1.455    75 O    0.252
    75   8 O    1.830 --    73 N    1.455    74 O    0.252
    76   6 C    3.987 --    77 C    1.463    72 C    1.388   109 H    0.964
                            70 C    0.102
    77   6 C    3.987 --    76 C    1.463    69 C    1.384   110 H    0.971
                            71 C    0.102
    78   6 C    3.915 --    68 C    1.324    81 N    1.209    79 C    1.183
    79   6 C    3.958 --    80 C    1.637    78 C    1.183   111 H    0.973
    80   6 C    3.961 --    79 C    1.637    82 C    1.190   112 H    0.973
    81   7 N    3.405 --    82 C    1.237    78 C    1.209    61 Ni   0.659
    82   6 C    3.903 --    83 C    1.265    81 N    1.237    80 C    1.190
    83   6 C    3.944 --    82 C    1.265    84 C    1.264   128 C    1.181
    84   6 C    3.903 --    83 C    1.264    88 N    1.237    85 C    1.191
    85   6 C    3.961 --    86 C    1.636    84 C    1.191   113 H    0.973
    86   6 C    3.958 --    85 C    1.636    87 C    1.183   114 H    0.973
    87   6 C    3.915 --    89 C    1.325    88 N    1.208    86 C    1.183
    88   7 N    3.405 --    84 C    1.237    87 C    1.208    61 Ni   0.659
    89   6 C    3.937 --    87 C    1.325    99 C    1.320    90 C    1.032
    90   6 C    3.985 --    91 C    1.384    98 C    1.384    89 C    1.032
    91   6 C    3.987 --    92 C    1.463    90 C    1.384   115 H    0.971
                            97 C    0.102
    92   6 C    3.987 --    91 C    1.463    93 C    1.388   116 H    0.964
                            98 C    0.102
    93   6 C    3.942 --    92 C    1.388    97 C    1.387    94 N    0.920
    94   7 N    3.866 --    95 O    1.455    96 O    1.455    93 C    0.920
    95   8 O    1.830 --    94 N    1.455    96 O    0.252
    96   8 O    1.830 --    94 N    1.455    95 O    0.252
    97   6 C    3.987 --    98 C    1.463    93 C    1.387   117 H    0.964
                            91 C    0.102
    98   6 C    3.987 --    97 C    1.463    90 C    1.384   118 H    0.971
                            92 C    0.102
    99   6 C    3.920 --    89 C    1.320   103 N    1.224   100 C    1.175
   100   6 C    3.963 --   101 C    1.651    99 C    1.175   119 H    0.972
   101   6 C    3.960 --   100 C    1.651   102 C    1.173   120 H    0.974
   102   6 C    3.921 --    62 C    1.365   103 N    1.211   101 C    1.173
   103   7 N    3.402 --    99 C    1.224   102 C    1.211    61 Ni   0.663
   104   1 H    0.999 --    62 C    0.969
   105   1 H    0.997 --    64 C    0.974
   106   1 H    1.003 --    65 C    0.972
   107   1 H    1.003 --    70 C    0.971
   108   1 H    1.006 --    71 C    0.964
   109   1 H    1.006 --    76 C    0.964
   110   1 H    1.003 --    77 C    0.971
   111   1 H    1.003 --    79 C    0.973
   112   1 H    1.001 --    80 C    0.973
   113   1 H    1.001 --    85 C    0.973
   114   1 H    1.003 --    86 C    0.973
   115   1 H    1.003 --    91 C    0.971
   116   1 H    1.006 --    92 C    0.964
   117   1 H    1.006 --    97 C    0.964
   118   1 H    1.003 --    98 C    0.971
   119   1 H    1.003 --   100 C    0.972
   120   1 H    0.997 --   101 C    0.974
   121   6 C    3.938 --   122 C    2.488   123 C    1.300
   122   6 C    3.925 --   121 C    2.488    23 C    1.178   124 C    0.200
   123   6 C    3.935 --   124 C    2.486   121 C    1.300
   124   6 C    3.927 --   123 C    2.486   130 C    1.180   122 C    0.200
   125   6 C    3.936 --   126 C    2.483   127 C    1.303
   126   6 C    3.928 --   125 C    2.483   151 C    1.183   128 C    0.200
   127   6 C    3.938 --   128 C    2.485   125 C    1.303
   128   6 C    3.926 --   127 C    2.485    83 C    1.181   126 C    0.200
   129  28 Ni   3.000 --   135 N    0.660   149 N    0.659   171 N    0.659
                           156 N    0.659
   130   6 C    3.935 --   131 C    1.264   170 C    1.264   124 C    1.180
   131   6 C    3.903 --   130 C    1.264   135 N    1.237   132 C    1.191
   132   6 C    3.959 --   133 C    1.635   131 C    1.191   172 H    0.973
   133   6 C    3.959 --   132 C    1.635   134 C    1.184   173 H    0.973
   134   6 C    3.913 --   136 C    1.322   135 N    1.208   133 C    1.184
   135   7 N    3.399 --   131 C    1.237   134 C    1.208   129 Ni   0.660
   136   6 C    3.933 --   146 C    1.323   134 C    1.322   137 C    1.032
   137   6 C    3.985 --   145 C    1.384   138 C    1.384   136 C    1.032
   138   6 C    3.987 --   139 C    1.463   137 C    1.384   174 H    0.971
                           144 C    0.102
   139   6 C    3.987 --   138 C    1.463   140 C    1.388   175 H    0.964
                           145 C    0.102
   140   6 C    3.942 --   144 C    1.388   139 C    1.388   141 N    0.920
   141   7 N    3.866 --   142 O    1.456   143 O    1.455   140 C    0.920
   142   8 O    1.831 --   141 N    1.456   143 O    0.252
   143   8 O    1.830 --   141 N    1.455   142 O    0.252
   144   6 C    3.987 --   145 C    1.463   140 C    1.388   176 H    0.964
                           138 C    0.102
   145   6 C    3.987 --   144 C    1.463   137 C    1.384   177 H    0.971
                           139 C    0.102
   146   6 C    3.913 --   136 C    1.323   149 N    1.207   147 C    1.184
   147   6 C    3.959 --   148 C    1.635   146 C    1.184   178 H    0.973
   148   6 C    3.959 --   147 C    1.635   150 C    1.192   179 H    0.973
   149   7 N    3.399 --   150 C    1.238   146 C    1.207   129 Ni   0.659
   150   6 C    3.903 --   151 C    1.263   149 N    1.238   148 C    1.192
   151   6 C    3.936 --   150 C    1.263   152 C    1.263   126 C    1.183
   152   6 C    3.903 --   151 C    1.263   156 N    1.237   153 C    1.192
   153   6 C    3.959 --   154 C    1.634   152 C    1.192   180 H    0.973
   154   6 C    3.959 --   153 C    1.634   155 C    1.184   181 H    0.973
   155   6 C    3.913 --   157 C    1.322   156 N    1.208   154 C    1.184
   156   7 N    3.400 --   152 C    1.237   155 C    1.208   129 Ni   0.659
   157   6 C    3.933 --   167 C    1.323   155 C    1.322   158 C    1.032
   158   6 C    3.985 --   166 C    1.384   159 C    1.384   157 C    1.032
   159   6 C    3.987 --   160 C    1.463   158 C    1.384   182 H    0.971
                           165 C    0.102
   160   6 C    3.987 --   159 C    1.463   161 C    1.388   183 H    0.964
                           166 C    0.102
   161   6 C    3.942 --   165 C    1.388   160 C    1.388   162 N    0.920
   162   7 N    3.866 --   164 O    1.455   163 O    1.455   161 C    0.920
   163   8 O    1.830 --   162 N    1.455   164 O    0.252
   164   8 O    1.831 --   162 N    1.455   163 O    0.252
   165   6 C    3.987 --   166 C    1.463   161 C    1.388   184 H    0.964
                           159 C    0.102
   166   6 C    3.987 --   165 C    1.463   158 C    1.384   185 H    0.971
                           160 C    0.102
   167   6 C    3.913 --   157 C    1.323   171 N    1.207   168 C    1.184
   168   6 C    3.959 --   169 C    1.635   167 C    1.184   186 H    0.972
   169   6 C    3.959 --   168 C    1.635   170 C    1.191   187 H    0.973
   170   6 C    3.903 --   130 C    1.264   171 N    1.238   169 C    1.191
   171   7 N    3.399 --   170 C    1.238   167 C    1.207   129 Ni   0.659
   172   1 H    1.001 --   132 C    0.973
   173   1 H    1.003 --   133 C    0.973
   174   1 H    1.003 --   138 C    0.971
   175   1 H    1.006 --   139 C    0.964
   176   1 H    1.006 --   144 C    0.964
   177   1 H    1.003 --   145 C    0.971
   178   1 H    1.003 --   147 C    0.973
   179   1 H    1.001 --   148 C    0.973
   180   1 H    1.001 --   153 C    0.973
   181   1 H    1.003 --   154 C    0.973
   182   1 H    1.003 --   159 C    0.971
   183   1 H    1.006 --   160 C    0.964
   184   1 H    1.006 --   165 C    0.964
   185   1 H    1.003 --   166 C    0.971
   186   1 H    1.003 --   168 C    0.972
   187   1 H    1.001 --   169 C    0.973
 ---------------------------------------------------------------------------

           -------------------------------------------------
          | TOTAL ENERGY             -372.211522871261 Eh   |
          | GRADIENT NORM               0.000993008576 Eh/α |
          | HOMO-LUMO GAP               1.075204888784 eV   |
           -------------------------------------------------

 * finished run on 2022/07/30 at 04:59:09.606
