   * xtb version 6.5.1 (b24c23e) compiled by 'conda@728c89f4b128' on 2022-07-12
          program call               : xtb Cu_Ph3OH_C6_2.xyz --gfn 1 --opt -T 48

   ID    Z sym.   atoms
    1   29 Cu     1, 63
    2    6 C      2-6, 8-11, 13, 15, 17-20, 22-27, 29-32, 34, 36, 38-42,
                  64-68, 70-73, 75, 77, 79-82, 84-89, 91-94, 96, 98, 100-104,
                  125-130
    3    7 N      7, 21, 28, 43, 69, 83, 90, 105
    4    8 O      12, 14, 16, 33, 35, 37, 74, 76, 78, 95, 97, 99
    5    1 H      44-62, 106-124
########################################################################
[WARNING] Please study the warnings concerning your input carefully
-1- prog_main_parseArguments: Unknown option '-T' provided
########################################################################

          :  Hamiltonian                  GFN1-xTB          :
 * total energy  :  -259.1068735 Eh     change       -0.1003286E-09 Eh
 * total energy  :  -259.2228453 Eh     change       -0.1159718E+00 Eh
 * total energy  :  -259.2862204 Eh     change       -0.6337510E-01 Eh
 * total energy  :  -259.3062664 Eh     change       -0.2004605E-01 Eh
 * total energy  :  -259.3166702 Eh     change       -0.1040378E-01 Eh
 * total energy  :  -259.3219005 Eh     change       -0.5230297E-02 Eh
 * total energy  :  -259.3245829 Eh     change       -0.2682407E-02 Eh
 * total energy  :  -259.3262994 Eh     change       -0.1716545E-02 Eh
 * total energy  :  -259.3270970 Eh     change       -0.7975373E-03 Eh
 * total energy  :  -259.3278055 Eh     change       -0.7085521E-03 Eh
 * total energy  :  -259.3321350 Eh     change       -0.1394522E-03 Eh
 * total energy  :  -259.3322286 Eh     change       -0.9357383E-04 Eh
 * total energy  :  -259.3323044 Eh     change       -0.7580705E-04 Eh
 * total energy  :  -259.3323380 Eh     change       -0.3353145E-04 Eh
 * total energy  :  -259.3323651 Eh     change       -0.2710626E-04 Eh
 * total energy  :  -259.3323998 Eh     change       -0.3473755E-04 Eh
 * total energy  :  -259.3324133 Eh     change       -0.1345786E-04 Eh
 * total energy  :  -259.3324372 Eh     change       -0.2389038E-04 Eh
 * total energy  :  -259.3324420 Eh     change       -0.4841723E-05 Eh
   *** GEOMETRY OPTIMIZATION CONVERGED AFTER 39 ITERATIONS ***

 final structure:
================
130
 xtb: 6.5.1 (b24c23e)
Cu          14.70030300427817        0.04577382266829       -0.00386697575316
C           11.29966448915502        0.08255648518308       -0.18134523798039
C           11.93394448292740        1.31356101891320       -0.10831639800211
C           11.25754817946041        2.57801935551507       -0.05904686982405
C           12.21469550787500        3.53506926510949        0.02140217312185
C           13.48650331629371        2.86410721919445        0.01033871456541
N           13.28397104897072        1.51554104852499       -0.05802112974924
C           14.73033039366964        3.49658425421497        0.07976129606117
C           14.74409191664630        4.98139949821782        0.11431305222661
C           14.22082054867871        5.71077080809389       -0.95351640508552
C           14.23858069509236        7.10030951682463       -0.92455899248286
O           13.73959002941775        7.81859917315360       -1.96033845259016
C           14.77495109100664        7.76586239862186        0.17879131587310
O           14.77662937521785        9.13634228173387        0.18105285532860
C           15.29414169565792        7.03778285282456        1.24620322264876
O           15.80011638165316        7.76065519553639        2.29473290535784
C           15.28392300798566        5.64874924337870        1.21715618248102
C           15.96212658331569        2.83940909410281        0.11382078872516
C           17.24148965447863        3.49047355409202        0.12305430910392
C           18.18530969510143        2.51528056830642        0.14604117607329
N           16.14824296819422        1.48189874259884        0.11716082846128
C           17.49117054356190        1.26305607392958        0.14273360350146
C           18.12511362952295        0.00777917656664        0.15254774475689
C           17.46618855167548       -1.23365747595932        0.11437784313031
C           18.13392996968696       -2.50058670908717        0.10560266659365
C           17.17066915849789       -3.45449411579476        0.04213968001710
C           15.90608655539758       -2.77553910137562        0.01756294100243
N           16.11985079952843       -1.42266765506263        0.05868304566942
C           14.66350984393464       -3.40446038416159       -0.07440323374214
C           14.64639839427938       -4.89028671056178       -0.10763076381140
C           15.08926298844025       -5.62185383219890        0.99395618867293
C           15.06488268853436       -7.01151519313245        0.96255140232418
O           15.48365187032418       -7.73396793399170        2.03049625930709
C           14.60573578987844       -7.67317816505193       -0.17746849434701
O           14.59673891276960       -9.04386005595992       -0.18123336891636
C           14.16929155964826       -6.94192168877131       -1.27918947944824
O           13.73812292196358       -7.66124511247978       -2.36326419612343
C           14.18294094919671       -5.55293230099673       -1.24710069498569
C           13.43371472162566       -2.74550651081359       -0.14217455011923
C           12.15096385516520       -3.39241674837480       -0.19852105116786
C           11.21183500995569       -2.41451421626438       -0.23306298440990
C           11.91100980504597       -1.16228867976295       -0.18940594717554
N           13.25606616638391       -1.39189046820973       -0.13312105999520
H           10.21535684503256        0.09397401778656       -0.22389408738789
H           10.18623487684215        2.70266642577055       -0.07626323413581
H           12.07800992935360        4.60195897685959        0.09382291125873
H           13.81613717340152        5.20481419282623       -1.82054031154523
H           13.84480590461862        8.76223327826202       -1.75525310656855
H           15.18383511642521        9.43296328817068        1.01041791529494
H           16.14722845326848        7.17541262343220        2.98041145921916
H           15.67754218065192        5.08840484059388        2.05708812841826
H           17.39597027323615        4.55709013715824        0.09849643696631
H           19.25793027174776        2.62523117691573        0.15671520551306
H           19.20353748217405       -2.63317288766225        0.13854150107394
H           17.30086690038242       -4.52391327931155        0.00391686705084
H           15.43703126482920       -5.11814287393329        1.88665398153637
H           15.38833922704380       -8.67671276103445        1.81640087704084
H           14.25305211234787       -9.33719694022899       -1.04010270329193
H           13.46176396819644       -7.07306940452402       -3.07816352244060
H           13.85145771997296       -4.98911306849106       -2.11140773951299
H           11.99543212282834       -4.45938566405962       -0.19821415129737
H           10.13894668370707       -2.51797511756952       -0.27644354888571
Cu          30.72504666826438       -0.04575008959835       -0.00832297680760
C           34.12570747384020       -0.06189878393730       -0.18832870411517
C           33.49160626329892       -1.29331809155288       -0.25575163102318
C           34.16811343670186       -2.55512839052744       -0.35047756897840
C           33.21103146595944       -3.51517462974104       -0.37998252377366
C           31.93916687252160       -2.84739514495473       -0.31489184550705
N           32.14158537944665       -1.49979569794311       -0.22923630808988
C           30.69536993743775       -3.48370158677746       -0.31778287138850
C           30.68158117087122       -4.96287642115950       -0.45175053788218
C           31.20452279002598       -5.56685734296453       -1.59533621668014
C           31.18657047599770       -6.95076084003878       -1.72368895106584
O           31.68514672298589       -7.54740327637197       -2.83420617642734
C           30.65042149686836       -7.73678469858854       -0.70253099406886
O           30.64857374792307       -9.09872972036666       -0.85526462090110
C           30.13157284885924       -7.13403658625031        0.44049328597890
O           29.62576142004491       -7.97077067707720        1.40069685490806
C           30.14193891572238       -5.75063405669384        0.56867897554631
C           29.46356183142104       -2.83472368772573       -0.20900958997520
C           28.18424452601091       -3.48270122182159       -0.27370528680908
C           27.24035779341247       -2.51656391857570       -0.13966421493687
N           29.27736516755014       -1.48640557348329       -0.05110661949155
C           27.93442548394611       -1.27203149172015       -0.00053918024587
C           27.30029290722654       -0.02615457790938        0.15192545884019
C           27.95900220614917        1.21175653109063        0.25482270450587
C           27.29114014960198        2.47141149947572        0.38996280091607
C           28.25423514114724        3.42655335890749        0.43419174744632
C           29.51889749070172        2.75495290592842        0.33217167103035
N           29.30529001186199        1.40610942135794        0.22012681273692
C           30.76136799466879        3.39043534285924        0.31115658905248
C           30.77837125810463        4.87042174504968        0.44648917560050
C           30.33471608342029        5.47219056886026        1.62373593831696
C           30.35918731448529        6.85640062005452        1.75045880684292
O           29.93966605587208        7.45287721565247        2.89327636813714
C           30.81933800032102        7.64322704378820        0.69338596631376
O           30.82859707999392        9.00544823436473        0.84546770491321
C           31.25656584455272        7.04181315514269       -0.48395712330950
O           31.68877800849262        7.87959056664762       -1.47885904882950
C           31.24270124918904        5.65817301506941       -0.60997254103808
C           31.99122125920395        2.74348470245973        0.16900218328967
C           33.27389950414924        3.39274451159704        0.18609303254923
C           34.21316697635506        2.42504155044843        0.04190274429269
C           33.51415200823968        1.17581235215321       -0.05600815983835
N           32.16903283686695        1.39748924988676        0.02547379490270
H           35.21004816379223       -0.06828640438590       -0.23121888427625
H           35.23944636522624       -2.67693702933877       -0.38140768154220
H           33.34780880931905       -4.58336079963369       -0.42966126448048
H           31.60907260470541       -4.96616654577346       -2.39970323214486
H           31.57983051098233       -8.50816540450551       -2.73707552435940
H           30.24169388351864       -9.48719565404014       -0.06456881360448
H           29.27903396640866       -7.46674543961285        2.14829065448342
H           29.74856325734977       -5.28882577268099        1.46667632394641
H           28.02983705915668       -4.53959480733588       -0.41959303884789
H           26.16774139485516       -2.62707292993661       -0.14124988676817
H           26.22155832693308        2.59924102480293        0.43858559673869
H           28.12382830193505        4.49339088336832        0.51719532109436
H           29.98631566693538        4.87034602844531        2.45316691155957
H           30.03527456508008        8.41382139311913        2.78781315370046
H           31.17303421885375        9.39440418114650        0.02577206113519
H           31.96566440489941        7.37645149359211       -2.25576934214538
H           31.57471895268705        5.19618367432902       -1.53254345474753
H           33.42933993859523        4.45290865206595        0.30653708300760
H           35.28604698589728        2.53285880398329        0.01069585027966
C           23.32670692322649       -0.01286456919482        0.22046366943430
C           22.09864769823198       -0.00908555836927        0.22070588509373
C           20.75404099335857       -0.00716359007978        0.20519666922192
C           19.53054716966806       -0.00463930193311        0.18683753909480
C           24.67136588016326       -0.01494855277714        0.20756132615343
C           25.89482243244583       -0.01773341018103        0.18700236550181

          :  Hamiltonian                  GFN1-xTB          :
         :: total energy            -259.332441985131 Eh    ::
         :: gradient norm              0.000844652375 Eh/a0 ::
         :: HOMO-LUMO gap              0.000023692810 eV    ::
         :: SCC energy              -262.771680796539 Eh    ::
         :: repulsion energy           3.552894954929 Eh    ::

    * Orbital Energies and Occupations

         #    Occupation            Energy/Eh            Energy/eV
      -------------------------------------------------------------
         1        2.0000           -0.8117332             -22.0884
       ...           ...                  ...                  ...
       214        2.0000           -0.4100626             -11.1584
       215        2.0000           -0.4097350             -11.1495
       216        2.0000           -0.4086577             -11.1201
       217        2.0000           -0.4086541             -11.1200
       218        2.0000           -0.4084182             -11.1136
       219        2.0000           -0.4083250             -11.1111
       220        2.0000           -0.4082840             -11.1100
       221        2.0000           -0.4081777             -11.1071
       222        2.0000           -0.3956469             -10.7661
       223        2.0000           -0.3956456             -10.7661
       224        2.0000           -0.3902116             -10.6182
       225        2.0000           -0.3802380             -10.3468
       226        1.0002           -0.3559498              -9.6859 (HOMO)
       227        0.9998           -0.3559489              -9.6859 (LUMO)
       228                         -0.3380031              -9.1975
       229                         -0.3275631              -8.9134
       230                         -0.3275431              -8.9129
       231                         -0.3263736              -8.8811
       232                         -0.2985796              -8.1248
       233                         -0.2910520              -7.9199
       234                         -0.2831435              -7.7047
       235                         -0.2608300              -7.0975
       236                         -0.2536787              -6.9029
       237                         -0.2536673              -6.9026
       ...                                ...                  ...
       454                          1.5816890              43.0399
      -------------------------------------------------------------
                  HL-Gap            0.0000009 Eh            0.0000 eV

Wiberg/Mayer (AO) data.
largest (>0.10) Wiberg bond orders for each atom

     #   Z sym  total        # sym  WBO       # sym  WBO       # sym  WBO
 ---------------------------------------------------------------------------
     1  29 Cu   2.185 --     7 N    0.505    43 N    0.505    28 N    0.502
                            21 N    0.502
     2   6 C    3.929 --     3 C    1.362    42 C    1.361    44 H    0.971
     3   6 C    3.917 --     2 C    1.362     7 N    1.229     4 C    1.170
     4   6 C    3.955 --     5 C    1.656     3 C    1.170    45 H    0.976
     5   6 C    3.958 --     4 C    1.656     6 C    1.172    46 H    0.973
     6   6 C    3.912 --     8 C    1.320     7 N    1.239     5 C    1.172
     7   7 N    3.243 --     6 C    1.239     3 C    1.229     1 Cu   0.505
     8   6 C    3.935 --    18 C    1.326     6 C    1.320     9 C    1.027
     9   6 C    3.989 --    10 C    1.399    17 C    1.387     8 C    1.027
    10   6 C    3.977 --     9 C    1.399    11 C    1.380    47 H    0.970
    11   6 C    3.917 --    10 C    1.380    13 C    1.324    12 O    1.052
    12   8 O    2.048 --    11 C    1.052    48 H    0.848
    13   6 C    3.904 --    15 C    1.341    11 C    1.324    14 O    1.020
    14   8 O    2.020 --    13 C    1.020    49 H    0.846
    15   6 C    3.905 --    17 C    1.384    13 C    1.341    16 O    1.013
    16   8 O    2.024 --    15 C    1.013    50 H    0.861
    17   6 C    3.973 --     9 C    1.387    15 C    1.384    51 H    0.969
    18   6 C    3.908 --     8 C    1.326    21 N    1.222    19 C    1.180
    19   6 C    3.954 --    20 C    1.641    18 C    1.180    52 H    0.973
    20   6 C    3.956 --    19 C    1.641    22 C    1.188    53 H    0.974
    21   7 N    3.248 --    22 C    1.257    18 C    1.222     1 Cu   0.502
    22   6 C    3.897 --    23 C    1.258    21 N    1.257    20 C    1.188
    23   6 C    3.939 --    24 C    1.260    22 C    1.258   128 C    1.188
    24   6 C    3.897 --    23 C    1.260    28 N    1.257    25 C    1.186
    25   6 C    3.957 --    26 C    1.643    24 C    1.186    54 H    0.974
    26   6 C    3.954 --    25 C    1.643    27 C    1.179    55 H    0.973
    27   6 C    3.908 --    29 C    1.330    28 N    1.220    26 C    1.179
    28   7 N    3.248 --    24 C    1.257    27 C    1.220     1 Cu   0.502
    29   6 C    3.935 --    27 C    1.330    39 C    1.320    30 C    1.023
    30   6 C    3.989 --    31 C    1.401    38 C    1.388    29 C    1.023
    31   6 C    3.978 --    30 C    1.401    32 C    1.379    56 H    0.970
    32   6 C    3.917 --    31 C    1.379    34 C    1.325    33 O    1.052
    33   8 O    2.048 --    32 C    1.052    57 H    0.848
    34   6 C    3.905 --    36 C    1.341    32 C    1.325    35 O    1.020
    35   8 O    2.020 --    34 C    1.020    58 H    0.846
    36   6 C    3.905 --    38 C    1.384    34 C    1.341    37 O    1.013
    37   8 O    2.024 --    36 C    1.013    59 H    0.861
    38   6 C    3.973 --    30 C    1.388    36 C    1.384    60 H    0.970
    39   6 C    3.913 --    29 C    1.320    43 N    1.239    40 C    1.173
    40   6 C    3.958 --    41 C    1.655    39 C    1.173    61 H    0.974
    41   6 C    3.955 --    40 C    1.655    42 C    1.171    62 H    0.976
    42   6 C    3.917 --     2 C    1.361    43 N    1.230    41 C    1.171
    43   7 N    3.243 --    39 C    1.239    42 C    1.230     1 Cu   0.505
    44   1 H    1.002 --     2 C    0.971
    45   1 H    0.998 --     4 C    0.976
    46   1 H    1.005 --     5 C    0.973
    47   1 H    1.000 --    10 C    0.970
    48   1 H    0.878 --    12 O    0.848
    49   1 H    0.876 --    14 O    0.846
    50   1 H    0.881 --    16 O    0.861
    51   1 H    1.001 --    17 C    0.969
    52   1 H    1.006 --    19 C    0.973
    53   1 H    1.002 --    20 C    0.974
    54   1 H    1.002 --    25 C    0.974
    55   1 H    1.005 --    26 C    0.973
    56   1 H    1.000 --    31 C    0.970
    57   1 H    0.878 --    33 O    0.848
    58   1 H    0.876 --    35 O    0.846
    59   1 H    0.881 --    37 O    0.861
    60   1 H    1.001 --    38 C    0.970
    61   1 H    1.006 --    40 C    0.974
    62   1 H    0.998 --    41 C    0.976
    63  29 Cu   2.186 --    69 N    0.505   105 N    0.505    90 N    0.502
                            83 N    0.502
    64   6 C    3.929 --    65 C    1.362   104 C    1.361   106 H    0.971
    65   6 C    3.917 --    64 C    1.362    69 N    1.229    66 C    1.170
    66   6 C    3.955 --    67 C    1.656    65 C    1.170   107 H    0.976
    67   6 C    3.958 --    66 C    1.656    68 C    1.172   108 H    0.973
    68   6 C    3.912 --    70 C    1.320    69 N    1.239    67 C    1.172
    69   7 N    3.244 --    68 C    1.239    65 C    1.229    63 Cu   0.505
    70   6 C    3.935 --    80 C    1.326    68 C    1.320    71 C    1.027
    71   6 C    3.989 --    72 C    1.399    79 C    1.387    70 C    1.027
    72   6 C    3.977 --    71 C    1.399    73 C    1.380   109 H    0.970
    73   6 C    3.917 --    72 C    1.380    75 C    1.324    74 O    1.052
    74   8 O    2.048 --    73 C    1.052   110 H    0.848
    75   6 C    3.904 --    77 C    1.341    73 C    1.324    76 O    1.020
    76   8 O    2.020 --    75 C    1.020   111 H    0.846
    77   6 C    3.905 --    79 C    1.384    75 C    1.341    78 O    1.013
    78   8 O    2.024 --    77 C    1.013   112 H    0.861
    79   6 C    3.973 --    71 C    1.387    77 C    1.384   113 H    0.969
    80   6 C    3.908 --    70 C    1.326    83 N    1.222    81 C    1.180
    81   6 C    3.954 --    82 C    1.641    80 C    1.180   114 H    0.973
    82   6 C    3.956 --    81 C    1.641    84 C    1.188   115 H    0.974
    83   7 N    3.248 --    84 C    1.257    80 C    1.222    63 Cu   0.502
    84   6 C    3.897 --    85 C    1.258    83 N    1.257    82 C    1.188
    85   6 C    3.939 --    86 C    1.259    84 C    1.258   130 C    1.188
    86   6 C    3.897 --    85 C    1.259    90 N    1.257    87 C    1.186
    87   6 C    3.957 --    88 C    1.643    86 C    1.186   116 H    0.974
    88   6 C    3.954 --    87 C    1.643    89 C    1.179   117 H    0.973
    89   6 C    3.908 --    91 C    1.330    90 N    1.220    88 C    1.179
    90   7 N    3.248 --    86 C    1.257    89 C    1.220    63 Cu   0.502
    91   6 C    3.935 --    89 C    1.330   101 C    1.320    92 C    1.023
    92   6 C    3.989 --    93 C    1.401   100 C    1.388    91 C    1.023
    93   6 C    3.978 --    92 C    1.401    94 C    1.379   118 H    0.970
    94   6 C    3.917 --    93 C    1.379    96 C    1.325    95 O    1.052
    95   8 O    2.048 --    94 C    1.052   119 H    0.848
    96   6 C    3.905 --    98 C    1.341    94 C    1.325    97 O    1.020
    97   8 O    2.020 --    96 C    1.020   120 H    0.846
    98   6 C    3.905 --   100 C    1.384    96 C    1.341    99 O    1.013
    99   8 O    2.024 --    98 C    1.013   121 H    0.861
   100   6 C    3.973 --    92 C    1.388    98 C    1.384   122 H    0.970
   101   6 C    3.913 --    91 C    1.320   105 N    1.239   102 C    1.173
   102   6 C    3.958 --   103 C    1.654   101 C    1.173   123 H    0.974
   103   6 C    3.955 --   102 C    1.654   104 C    1.171   124 H    0.976
   104   6 C    3.917 --    64 C    1.361   105 N    1.230   103 C    1.171
   105   7 N    3.243 --   101 C    1.239   104 C    1.230    63 Cu   0.505
   106   1 H    1.002 --    64 C    0.971
   107   1 H    0.998 --    66 C    0.976
   108   1 H    1.005 --    67 C    0.973
   109   1 H    1.000 --    72 C    0.970
   110   1 H    0.878 --    74 O    0.848
   111   1 H    0.876 --    76 O    0.846
   112   1 H    0.881 --    78 O    0.861
   113   1 H    1.001 --    79 C    0.969
   114   1 H    1.006 --    81 C    0.973
   115   1 H    1.002 --    82 C    0.974
   116   1 H    1.002 --    87 C    0.974
   117   1 H    1.005 --    88 C    0.973
   118   1 H    1.000 --    93 C    0.970
   119   1 H    0.878 --    95 O    0.848
   120   1 H    0.876 --    97 O    0.846
   121   1 H    0.881 --    99 O    0.861
   122   1 H    1.001 --   100 C    0.970
   123   1 H    1.006 --   102 C    0.974
   124   1 H    0.998 --   103 C    0.976
   125   6 C    3.927 --   126 C    2.372   129 C    1.333   128 C    0.191
   126   6 C    3.927 --   125 C    2.372   127 C    1.333   130 C    0.191
   127   6 C    3.936 --   128 C    2.453   126 C    1.333
   128   6 C    3.891 --   127 C    2.453    23 C    1.188   125 C    0.191
   129   6 C    3.936 --   130 C    2.453   125 C    1.333
   130   6 C    3.891 --   129 C    2.453    85 C    1.188   126 C    0.191
 ---------------------------------------------------------------------------

           -------------------------------------------------
          | TOTAL ENERGY             -259.332441985131 Eh   |
          | GRADIENT NORM               0.000844652375 Eh/α |
          | HOMO-LUMO GAP               0.000023692810 eV   |
           -------------------------------------------------

 * finished run on 2022/07/30 at 09:39:27.593
