   * xtb version 6.5.1 (b24c23e) compiled by 'conda@728c89f4b128' on 2022-07-12
          program call               : xtb PhOH_C8_2.xyz --gfn 1 --opt -T 48

   ID    Z sym.   atoms
    1    6 C      1-5, 7-11, 13-17, 19-24, 26-30, 32-37, 60-64, 66-70, 72-76,
                  78-83, 85-89, 91-96, 119-126
    2    7 N      6, 18, 25, 38, 65, 77, 84, 97
    3    8 O      12, 31, 71, 90
    4    1 H      39-59, 98-118
########################################################################
[WARNING] Please study the warnings concerning your input carefully
-1- prog_main_parseArguments: Unknown option '-T' provided
########################################################################

          :  Hamiltonian                  GFN1-xTB          :
 * total energy  :  -218.5127193 Eh     change       -0.2370484E-08 Eh
 * total energy  :  -218.7649682 Eh     change       -0.2522489E+00 Eh
 * total energy  :  -218.8497682 Eh     change       -0.8480001E-01 Eh
 * total energy  :  -218.8793009 Eh     change       -0.2953264E-01 Eh
 * total energy  :  -218.8909668 Eh     change       -0.1166598E-01 Eh
 * total energy  :  -218.8973453 Eh     change       -0.6378421E-02 Eh
 * total energy  :  -218.8989091 Eh     change       -0.1563844E-02 Eh
 * total energy  :  -218.9013980 Eh     change       -0.2488856E-02 Eh
 * total energy  :  -218.9026228 Eh     change       -0.1224845E-02 Eh
 * total energy  :  -218.9041363 Eh     change       -0.1513513E-02 Eh
 * total energy  :  -218.9114517 Eh     change       -0.2603784E-04 Eh
 * total energy  :  -218.9114811 Eh     change       -0.2933262E-04 Eh
 * total energy  :  -218.9115093 Eh     change       -0.2826589E-04 Eh
 * total energy  :  -218.9115320 Eh     change       -0.2267872E-04 Eh
 * total energy  :  -218.9115551 Eh     change       -0.2306200E-04 Eh
 * total energy  :  -218.9115759 Eh     change       -0.2084065E-04 Eh
 * total energy  :  -218.9115896 Eh     change       -0.1369637E-04 Eh
 * total energy  :  -218.9115963 Eh     change       -0.6691296E-05 Eh
 * total energy  :  -218.9115979 Eh     change       -0.1557730E-05 Eh
   *** GEOMETRY OPTIMIZATION CONVERGED AFTER 44 ITERATIONS ***

 final structure:
================
126
 xtb: 6.5.1 (b24c23e)
C            9.09055320234854        0.12078913766179        0.04170397811519
C            9.70159371960630        1.25041169990901       -0.48746475128226
C            9.05118203125682        2.39512178350882       -1.02745031776041
C           10.01481296090911        3.27999813916470       -1.42278171603798
C           11.28523267517584        2.70865491308694       -1.12741248834414
N           11.04525113397431        1.48174720711385       -0.57631125243168
C           12.54999036804549        3.26308738543819       -1.35748611367761
C           12.58662149122731        4.62850277602628       -1.93510693549684
C           13.21507401515342        4.86214726634662       -3.15906752322913
C           13.25016415245029        6.13495590366307       -3.70662715807124
C           12.65763773716458        7.19653410292519       -3.02664198306272
O           12.67093380267313        8.45952816656411       -3.52511671408173
C           12.02912259610824        6.97794607311696       -1.80208808850561
C           11.99341921494485        5.70252207802244       -1.26676331137912
C           13.76280919723180        2.62528549121854       -1.08491865100532
C           15.06293522630107        3.24504888859652       -1.26705868272948
C           15.98029334175754        2.32100099132718       -0.91342144743838
N           13.91271112329570        1.35899046957920       -0.60633358367715
C           15.23951221108528        1.14375016198655       -0.50439049797343
C           15.87310747866397       -0.04000573832997       -0.07219100599596
C           15.23383127384476       -1.20255729077806        0.39958868650866
C           15.87326972889449       -2.40088084349976        0.81344521683430
C           14.90517692014033       -3.27692903475450        1.22044734535112
C           13.64380719923474       -2.63600206075789        1.07485900736764
N           13.89420610903943       -1.38863257622963        0.56567297902000
C           12.38224350651391       -3.16491923761408        1.36844740981961
C           12.34663290573454       -4.52664669431715        1.95412618479449
C           12.97870874680092       -4.79479864434064        3.17105590005101
C           12.94395071215208       -6.06250856778437        3.72423133229251
C           12.27814467531886       -7.08955078230096        3.05774869057258
O           12.26735987213375       -8.32265916412115        3.62625358432706
C           11.64679399371755       -6.83854713892944        1.84167132003880
C           11.68022524877666       -5.56331677538686        1.29938647098760
C           11.16908586667176       -2.50316801074959        1.14848476435489
C            9.86622927843546       -3.04095326078163        1.50782837189670
C            8.95524223310869       -2.12188015355993        1.12880757331585
C            9.70094831586479       -1.01768483897791        0.55151838192067
N           11.03094263108548       -1.27782745549296        0.58893309048898
H            8.00541679266976        0.14038149266975        0.05779544472676
H            7.98182644413469        2.51161508484831       -1.10376131753422
H            9.86401524013115        4.24090528609518       -1.88741759660326
H           11.77054829576960        0.83720000488979       -0.28004698857326
H           13.66472000804957        4.03445532938852       -3.69605184545464
H           13.73469747690180        6.30859720129056       -4.66146148252146
H           13.13667277821007        8.49944386724264       -4.37121484655464
H           11.57724257231899        7.81338953666924       -1.28175113196704
H           11.51829129982328        5.53723001859716       -0.30615402556630
H           15.23028385664591        4.25564016991214       -1.60276892999888
H           17.05506522422606        2.40747043809657       -0.91019903363642
H           16.93872320262936       -2.56428314330270        0.79336889569729
H           15.04856244920403       -4.28288087756590        1.57980592836100
H           13.17427618745202       -0.70992655153715        0.34045774662240
H           13.48470311713940       -3.99329691808374        3.69770419142311
H           13.42585172385356       -6.27036471003460        4.67157024657535
H           11.77852089602949       -8.95641605537667        3.08429992193670
H           11.13359134595174       -7.64194635501761        1.32410067589704
H           11.19975720880284       -5.37289698422366        0.34617995397692
H            9.69679571538567       -3.98715923833565        1.99619474247685
H            7.88139022433309       -2.15477024308941        1.22719583255192
C           34.39863004210333       -0.02775312072029        0.13087919751773
C           33.78739633159982       -1.08336562262104        0.79533612031747
C           34.43775562243739       -2.15512142512168        1.46866290166926
C           33.47401398242963       -2.96781850232196        1.99642070367975
C           32.20350244613839       -2.41273383705026        1.67168737082604
N           32.44367033490197       -1.28533848365652        0.93826440863465
C           30.93879794457760       -2.90856501195272        2.01011662194112
C           30.90241332788877       -4.13390885152864        2.84481539621953
C           30.27821602089311       -5.29075335206758        2.37613100157951
C           30.24319123558656       -6.44052209277603        3.14938499738348
C           30.83143019979452       -6.44249420666330        4.41207685645025
O           30.81789062234885       -7.54561033989355        5.20378466673442
C           31.45574399167015       -5.29331029350792        4.89368529865971
C           31.49143810276673       -4.15241787148402        4.11160730106596
C           29.72569518507611       -2.33578675280396        1.61974461486611
C           28.42566464188848       -2.82675729653763        2.03988301011542
C           27.50801340253203       -2.02869481593491        1.45547935072661
N           29.57538187493656       -1.24673452293626        0.81581984523230
C           28.24846942039547       -1.04511093900478        0.68983487407910
C           27.61468178317900       -0.03950000679757       -0.06944879862284
C           28.25400663576103        0.98655585135982       -0.79137192364432
C           27.61476208723925        1.98395663860418       -1.57408454326374
C           28.58318689404358        2.79905031447877       -2.09179282690415
C           29.84457887925525        2.32806435820109       -1.63340605179908
N           29.59387906125367        1.22514323165936       -0.85975106854276
C           31.10618478773006        2.85976602763428       -1.92145291134001
C           31.14133665705548        4.08883463717211       -2.75025286297177
C           30.51298849941731        5.25847132704435       -2.31505645029076
C           30.54737864863550        6.40958126188054       -3.08189114348389
C           31.20900154919181        6.40351982091593       -4.30847862746482
O           31.21959640625075        7.54886503985996       -5.03783732091815
C           31.83650189855446        5.24380555871241       -4.75764119723618
C           31.80354593642048        4.09777884724921       -3.97855549931079
C           32.31960292342048        2.31690177035335       -1.48466709904499
C           33.62228357331793        2.90944014517862       -1.74482501554668
C           34.53354474370180        2.09559300078801       -1.17430518849258
C           33.78819930365596        1.01437333968926       -0.55462963367654
N           32.45814610391649        1.18534270592484       -0.75391988722318
H           35.48370511098547       -0.02355110374527        0.15823202684550
H           35.50717246693103       -2.28024150073154        1.52870489754239
H           33.62470562746930       -3.87789593836956        2.55409989982852
H           31.71861925604644       -0.68871443014491        0.55408073735081
H           29.83200538290608       -5.29486542994808        1.38796816142454
H           29.76204983812415       -7.33836818203953        2.77655357712417
H           30.35449527547243       -8.27923513545253        4.77780259413233
H           31.90430229451580       -5.30736050285477        5.87933579074985
H           31.96315030609288       -3.25425324773625        4.49451506973713
H           28.25852695130510       -3.65783534960670        2.70575012783026
H           26.43321430012987       -2.07399977950153        1.52892951417166
H           26.54920111698833        2.05692594749416       -1.72087848364053
H           28.44001727173621        3.64592247624282       -2.74290519510215
H           30.31368412206265        0.66790409742370       -0.41140982807008
H           30.01019888130720        5.26849713257004       -1.35438123892761
H           30.06842306556430        7.31965130501247       -2.74240690447324
H           31.70574196616715        7.43515138415085       -5.86551845350224
H           32.34640340053873        5.24229077265032       -5.71508522656861
H           32.28109930809757        3.19221215197201       -4.33576881530482
H           33.79142739886115        3.83020190760830       -2.27970913850119
H           35.60737631510458        2.19649363308304       -1.14930429432076
C           17.27754554821217       -0.06985815094170       -0.10281139266452
C           18.50214363123921       -0.08360965746059       -0.13058676937273
C           19.84425642402310       -0.09360993265145       -0.14965547826037
C           21.07509461785396       -0.09140171133480       -0.16728200467496
C           22.41264655816581       -0.08326434754468       -0.17031284544714
C           23.64362542135284       -0.07160775900136       -0.16236751665782
C           24.98574609312676       -0.06172252652462       -0.14281789657423
C           26.21020199126646       -0.04739537383955       -0.11064585028502

          :  Hamiltonian                  GFN1-xTB          :
         :: total energy            -218.911597871499 Eh    ::
         :: gradient norm              0.000722016498 Eh/a0 ::
         :: HOMO-LUMO gap              1.009150148876 eV    ::
         :: SCC energy              -222.481038288909 Eh    ::
         :: repulsion energy           3.672974272992 Eh    ::

    * Orbital Energies and Occupations

         #    Occupation            Energy/Eh            Energy/eV
      -------------------------------------------------------------
         1        2.0000           -0.8057313             -21.9251
       ...           ...                  ...                  ...
       185        2.0000           -0.4196853             -11.4202
       186        2.0000           -0.4177291             -11.3670
       187        2.0000           -0.4173599             -11.3569
       188        2.0000           -0.4155584             -11.3079
       189        2.0000           -0.4154996             -11.3063
       190        2.0000           -0.4139486             -11.2641
       191        2.0000           -0.4139187             -11.2633
       192        2.0000           -0.4107221             -11.1763
       193        2.0000           -0.4054162             -11.0319
       194        2.0000           -0.3976503             -10.8206
       195        2.0000           -0.3972948             -10.8109
       196        2.0000           -0.3842427             -10.4558
       197        2.0000           -0.3768153             -10.2537 (HOMO)
       198                         -0.3397297              -9.2445 (LUMO)
       199                         -0.3307836              -9.0011
       200                         -0.3293878              -8.9631
       201                         -0.3291108              -8.9556
       202                         -0.3018968              -8.2150
       203                         -0.2983935              -8.1197
       204                         -0.2928570              -7.9690
       205                         -0.2740376              -7.4569
       206                         -0.2677341              -7.2854
       207                         -0.2677297              -7.2853
       208                         -0.2675228              -7.2797
       ...                                ...                  ...
       420                          1.6072081              43.7344
      -------------------------------------------------------------
                  HL-Gap            0.0370856 Eh            1.0092 eV

Wiberg/Mayer (AO) data.
largest (>0.10) Wiberg bond orders for each atom

     #   Z sym  total        # sym  WBO       # sym  WBO       # sym  WBO
 ---------------------------------------------------------------------------
     1   6 C    3.924 --    37 C    1.366     2 C    1.346    39 H    0.971
     2   6 C    3.903 --     1 C    1.346     3 C    1.231     6 N    1.170
     3   6 C    3.953 --     4 C    1.594     2 C    1.231    40 H    0.977
     4   6 C    3.959 --     3 C    1.594     5 C    1.236    41 H    0.974
     5   6 C    3.895 --     7 C    1.301     4 C    1.236     6 N    1.177
     6   7 N    3.470 --     5 C    1.177     2 C    1.170    42 H    0.873
     7   6 C    3.940 --    15 C    1.336     5 C    1.301     8 C    1.032
     8   6 C    3.989 --     9 C    1.391    14 C    1.383     7 C    1.032
     9   6 C    3.988 --    10 C    1.454     8 C    1.391    43 H    0.972
                            13 C    0.105
    10   6 C    3.988 --     9 C    1.454    11 C    1.371    44 H    0.970
                            14 C    0.102
    11   6 C    3.900 --    10 C    1.371    13 C    1.364    12 O    1.041
    12   8 O    2.043 --    11 C    1.041    45 H    0.865
    13   6 C    3.990 --    14 C    1.466    11 C    1.364    46 H    0.971
                             9 C    0.105
    14   6 C    3.987 --    13 C    1.466     8 C    1.383    47 H    0.973
                            10 C    0.102
    15   6 C    3.914 --     7 C    1.336    18 N    1.285    16 C    1.126
    16   6 C    3.966 --    17 C    1.708    15 C    1.126    48 H    0.974
    17   6 C    3.963 --    16 C    1.708    19 C    1.129    49 H    0.974
    18   7 N    3.022 --    19 C    1.346    15 C    1.285
    19   6 C    3.908 --    18 N    1.346    20 C    1.251    17 C    1.129
    20   6 C    3.936 --    19 C    1.251    21 C    1.250   119 C    1.194
    21   6 C    3.885 --    20 C    1.250    22 C    1.250    25 N    1.190
    22   6 C    3.959 --    23 C    1.582    21 C    1.250    50 H    0.975
    23   6 C    3.955 --    22 C    1.582    24 C    1.242    51 H    0.974
    24   6 C    3.898 --    26 C    1.309    23 C    1.242    25 N    1.164
    25   7 N    3.474 --    21 C    1.190    24 C    1.164    52 H    0.873
    26   6 C    3.925 --    34 C    1.320    24 C    1.309    27 C    1.032
    27   6 C    3.988 --    33 C    1.392    28 C    1.383    26 C    1.032
    28   6 C    3.986 --    29 C    1.467    27 C    1.383    53 H    0.973
                            32 C    0.102
    29   6 C    3.990 --    28 C    1.467    30 C    1.364    54 H    0.971
                            33 C    0.105
    30   6 C    3.900 --    32 C    1.371    29 C    1.364    31 O    1.041
    31   8 O    2.043 --    30 C    1.041    55 H    0.865
    32   6 C    3.988 --    33 C    1.453    30 C    1.371    56 H    0.970
                            28 C    0.102
    33   6 C    3.987 --    32 C    1.453    27 C    1.392    57 H    0.972
                            29 C    0.105
    34   6 C    3.928 --    26 C    1.320    38 N    1.318    35 C    1.119
    35   6 C    3.967 --    36 C    1.721    34 C    1.119    58 H    0.974
    36   6 C    3.966 --    35 C    1.721    37 C    1.118    59 H    0.976
    37   6 C    3.930 --     1 C    1.366    38 N    1.300    36 C    1.118
    38   7 N    3.011 --    34 C    1.318    37 C    1.300
    39   1 H    1.002 --     1 C    0.971
    40   1 H    0.998 --     3 C    0.977
    41   1 H    1.005 --     4 C    0.974
    42   1 H    0.986 --     6 N    0.873
    43   1 H    1.005 --     9 C    0.972
    44   1 H    0.999 --    10 C    0.970
    45   1 H    0.887 --    12 O    0.865
    46   1 H    0.999 --    13 C    0.971
    47   1 H    1.005 --    14 C    0.973
    48   1 H    1.005 --    16 C    0.974
    49   1 H    1.003 --    17 C    0.974
    50   1 H    1.002 --    22 C    0.975
    51   1 H    1.005 --    23 C    0.974
    52   1 H    0.987 --    25 N    0.873
    53   1 H    1.005 --    28 C    0.973
    54   1 H    0.999 --    29 C    0.971
    55   1 H    0.887 --    31 O    0.865
    56   1 H    0.999 --    32 C    0.970
    57   1 H    1.005 --    33 C    0.972
    58   1 H    1.005 --    35 C    0.974
    59   1 H    0.998 --    36 C    0.976
    60   6 C    3.924 --    96 C    1.366    61 C    1.346    98 H    0.971
    61   6 C    3.903 --    60 C    1.346    62 C    1.230    65 N    1.170
    62   6 C    3.953 --    63 C    1.594    61 C    1.230    99 H    0.977
    63   6 C    3.959 --    62 C    1.594    64 C    1.236   100 H    0.974
    64   6 C    3.895 --    66 C    1.301    63 C    1.236    65 N    1.177
    65   7 N    3.470 --    64 C    1.177    61 C    1.170   101 H    0.873
    66   6 C    3.940 --    74 C    1.336    64 C    1.301    67 C    1.031
    67   6 C    3.989 --    68 C    1.391    73 C    1.383    66 C    1.031
    68   6 C    3.988 --    69 C    1.453    67 C    1.391   102 H    0.972
                            72 C    0.105
    69   6 C    3.988 --    68 C    1.453    70 C    1.371   103 H    0.970
                            73 C    0.102
    70   6 C    3.900 --    69 C    1.371    72 C    1.364    71 O    1.041
    71   8 O    2.043 --    70 C    1.041   104 H    0.865
    72   6 C    3.990 --    73 C    1.466    70 C    1.364   105 H    0.971
                            68 C    0.105
    73   6 C    3.987 --    72 C    1.466    67 C    1.383   106 H    0.973
                            69 C    0.102
    74   6 C    3.914 --    66 C    1.336    77 N    1.285    75 C    1.126
    75   6 C    3.966 --    76 C    1.708    74 C    1.126   107 H    0.974
    76   6 C    3.963 --    75 C    1.708    78 C    1.129   108 H    0.974
    77   7 N    3.022 --    78 C    1.346    74 C    1.285
    78   6 C    3.908 --    77 N    1.346    79 C    1.251    76 C    1.129
    79   6 C    3.936 --    78 C    1.251    80 C    1.250   126 C    1.194
    80   6 C    3.885 --    79 C    1.250    81 C    1.250    84 N    1.190
    81   6 C    3.959 --    82 C    1.582    80 C    1.250   109 H    0.975
    82   6 C    3.955 --    81 C    1.582    83 C    1.242   110 H    0.974
    83   6 C    3.898 --    85 C    1.310    82 C    1.242    84 N    1.164
    84   7 N    3.474 --    80 C    1.190    83 C    1.164   111 H    0.873
    85   6 C    3.925 --    93 C    1.320    83 C    1.310    86 C    1.032
    86   6 C    3.988 --    92 C    1.392    87 C    1.383    85 C    1.032
    87   6 C    3.986 --    88 C    1.467    86 C    1.383   112 H    0.973
                            91 C    0.102
    88   6 C    3.990 --    87 C    1.467    89 C    1.364   113 H    0.971
                            92 C    0.105
    89   6 C    3.900 --    91 C    1.371    88 C    1.364    90 O    1.040
    90   8 O    2.043 --    89 C    1.040   114 H    0.865
    91   6 C    3.988 --    92 C    1.453    89 C    1.371   115 H    0.970
                            87 C    0.102
    92   6 C    3.987 --    91 C    1.453    86 C    1.392   116 H    0.972
                            88 C    0.105
    93   6 C    3.928 --    85 C    1.320    97 N    1.318    94 C    1.119
    94   6 C    3.967 --    95 C    1.721    93 C    1.119   117 H    0.974
    95   6 C    3.966 --    94 C    1.721    96 C    1.118   118 H    0.976
    96   6 C    3.930 --    60 C    1.366    97 N    1.300    95 C    1.118
    97   7 N    3.011 --    93 C    1.318    96 C    1.300
    98   1 H    1.002 --    60 C    0.971
    99   1 H    0.998 --    62 C    0.977
   100   1 H    1.005 --    63 C    0.974
   101   1 H    0.986 --    65 N    0.873
   102   1 H    1.005 --    68 C    0.972
   103   1 H    0.999 --    69 C    0.970
   104   1 H    0.887 --    71 O    0.865
   105   1 H    0.999 --    72 C    0.971
   106   1 H    1.005 --    73 C    0.973
   107   1 H    1.005 --    75 C    0.974
   108   1 H    1.003 --    76 C    0.974
   109   1 H    1.002 --    81 C    0.975
   110   1 H    1.005 --    82 C    0.974
   111   1 H    0.987 --    84 N    0.873
   112   1 H    1.005 --    87 C    0.973
   113   1 H    0.999 --    88 C    0.971
   114   1 H    0.887 --    90 O    0.865
   115   1 H    0.999 --    91 C    0.970
   116   1 H    1.005 --    92 C    0.972
   117   1 H    1.005 --    94 C    0.974
   118   1 H    0.998 --    95 C    0.976
   119   6 C    3.877 --   120 C    2.435    20 C    1.194   122 C    0.186
   120   6 C    3.932 --   119 C    2.435   121 C    1.346
   121   6 C    3.892 --   122 C    2.333   120 C    1.346   124 C    0.182
   122   6 C    3.924 --   121 C    2.333   123 C    1.371   119 C    0.186
   123   6 C    3.924 --   124 C    2.333   122 C    1.371   126 C    0.186
   124   6 C    3.892 --   123 C    2.333   125 C    1.346   121 C    0.182
   125   6 C    3.932 --   126 C    2.435   124 C    1.346
   126   6 C    3.877 --   125 C    2.435    79 C    1.194   123 C    0.186
 ---------------------------------------------------------------------------

           -------------------------------------------------
          | TOTAL ENERGY             -218.911597871499 Eh   |
          | GRADIENT NORM               0.000722016498 Eh/α |
          | HOMO-LUMO GAP               1.009150148876 eV   |
           -------------------------------------------------

 * finished run on 2022/07/29 at 01:12:26.801
