   * xtb version 6.5.1 (b24c23e) compiled by 'conda@728c89f4b128' on 2022-07-12
          program call               : xtb PhOH_C8_3.xyz --gfn 1 --opt -T 48

   ID    Z sym.   atoms
    1    6 C      1-5, 7-11, 13-17, 19-24, 26-30, 32-37, 60-64, 66-70, 72-76,
                  78-83, 85-89, 91-96, 119-139, 141-145, 147-151, 153-158,
                  160-164, 166-171
    2    7 N      6, 18, 25, 38, 65, 77, 84, 97, 140, 152, 159, 172
    3    8 O      12, 31, 71, 90, 146, 165
    4    1 H      39-59, 98-118, 173-192

          :  Hamiltonian                  GFN1-xTB          :
 * total energy  :  -335.1341518 Eh     change       -0.6255846E-08 Eh
 * total energy  :  -335.4869540 Eh     change       -0.3528023E+00 Eh
 * total energy  :  -335.6258249 Eh     change       -0.1388708E+00 Eh
 * total energy  :  -335.6750120 Eh     change       -0.4918714E-01 Eh
 * total energy  :  -335.6961461 Eh     change       -0.2113407E-01 Eh
 * total energy  :  -335.7091740 Eh     change       -0.1302793E-01 Eh
 * total energy  :  -335.7170599 Eh     change       -0.7885875E-02 Eh
 * total energy  :  -335.7215145 Eh     change       -0.4454595E-02 Eh
 * total energy  :  -335.7251317 Eh     change       -0.3617250E-02 Eh
 * total energy  :  -335.7287873 Eh     change       -0.3655600E-02 Eh
 * total energy  :  -336.1848866 Eh     change       -0.4129932E-04 Eh
 * total energy  :  -336.1848164 Eh     change        0.7018934E-04 Eh
 * total energy  :  -336.1849076 Eh     change       -0.9126243E-04 Eh
 * total energy  :  -336.1845557 Eh     change        0.3519815E-03 Eh
 * total energy  :  -336.1848900 Eh     change       -0.3343148E-03 Eh
 * total energy  :  -336.1849145 Eh     change       -0.2452551E-04 Eh
 * total energy  :  -336.1848607 Eh     change        0.5383588E-04 Eh
 * total energy  :  -336.1849451 Eh     change       -0.8440277E-04 Eh
 * total energy  :  -336.1849464 Eh     change       -0.1299025E-05 Eh
   *** GEOMETRY OPTIMIZATION CONVERGED AFTER 104 ITERATIONS ***

 final structure:
================
192
 xtb: 6.5.1 (b24c23e)
C           22.14436079448860        0.14309649191831        0.11456453086686
C           22.76047455901078        1.26639363782957       -0.42182860787375
C           22.11628125917591        2.41192118020625       -0.96707613135905
C           23.08492127566708        3.28200020243909       -1.38210871092250
C           24.35259564088233        2.70202473726960       -1.09071034543965
N           24.10562004865975        1.48399343598613       -0.52366547561555
C           25.61993729537091        3.24444019082172       -1.33482104073658
C           25.65909505366094        4.59724190351596       -1.94164073581117
C           26.27665133556576        4.79916406820036       -3.17671775030172
C           26.30502421807508        6.05717778957968       -3.75790563664086
C           25.71699415494894        7.13562360474691       -3.10085244907557
O           25.72104580142534        8.38434347695007       -3.63411105602116
C           25.10185587935962        6.94920894700170       -1.86418888427713
C           25.07279614095730        5.68825885199449       -1.29509330733859
C           26.83115052553251        2.60844896150852       -1.05072482210298
C           28.13193291619183        3.22675675508184       -1.23465085981579
C           29.04794752691561        2.31198160041949       -0.85441723732001
N           26.97933348356291        1.35049507954272       -0.55073338539512
C           28.30598023170429        1.13930494506052       -0.43429184617963
C           28.93660469770212       -0.04178513877982        0.00833562974080
C           28.29108673524276       -1.21086322456491        0.45510011748536
C           28.92348046065838       -2.41919904253717        0.85040832687771
C           27.94903724725985       -3.30254535720109        1.22489130355996
C           26.69058423908630       -2.65510512980314        1.08165737954125
N           26.94918672192391       -1.39745284563389        0.60255099656111
C           25.42574573105225       -3.18479012563560        1.35827582432892
C           25.37801642503585       -4.56361151364977        1.90140270733078
C           26.00491290758686       -4.87910957625826        3.10951762262969
C           25.95286976634591       -6.16376753075588        3.62087382614197
C           25.27429619649180       -7.15976563372652        2.92091915910025
O           25.24533194391592       -8.41004382624110        3.44970573165938
C           24.64845759455483       -6.86144446989103        1.71263569926398
C           24.69939498779775       -5.56984969503042        1.21235829490883
C           24.21565881845324       -2.51014981329437        1.16041866149520
C           22.91277507732183       -3.04617341411821        1.52292030873507
C           22.00446705320257       -2.11268651087763        1.17417539355899
C           22.75167241848439       -1.00397953420845        0.60798045703079
N           24.08043361089583       -1.27332106148406        0.62682607116708
H           21.05970477405483        0.17160164399245        0.14203083836405
H           21.04747291376687        2.53806037552060       -1.03510731029693
H           22.93876402571949        4.23866189264051       -1.85677290563173
H           24.82593984537043        0.83398139317073       -0.22731530011596
H           26.72238314606743        3.95791800552200       -3.69571782421022
H           26.77929683758524        6.20583880698177       -4.72198505356923
H           26.17318989303740        8.40125955196200       -4.48821487265521
H           24.65390344406423        7.79765705259093       -1.36171968605244
H           24.60740414558287        5.54780785826369       -0.32576691503470
H           28.29949603395546        4.23093008442950       -1.58908743259819
H           30.12260208714596        2.39981317868647       -0.84408756242020
H           29.98870505260517       -2.58480786673685        0.83842678257528
H           28.08643158347182       -4.31705296678908        1.56183179272154
H           26.23442282941447       -0.71088776752679        0.38494649505049
H           26.51942109057538       -4.10156776999133        3.66313669144912
H           26.43032713193386       -6.40871266479090        4.56161047688800
H           24.74450686083014       -9.01809079146425        2.88949918392656
H           24.12501261366144       -7.64054933214609        1.16886166570092
H           24.22211923407455       -5.34167562111908        0.26579370579990
H           22.74199469210932       -4.00060963771924        1.99443548257262
H           20.93159797580815       -2.13958433769035        1.28422617866618
C           66.09263256269710        0.03581875626523        0.16189091045443
C           65.47625476929935       -1.02067324996694        0.81982881554226
C           66.11998174191507       -2.09867180187136        1.48923376318651
C           65.15095151006456       -2.91572824276983        2.00001341942155
C           63.88358545514708       -2.35606092962434        1.67004271155090
N           64.13100246180194       -1.22162927982545        0.95044506421493
C           62.61648369951347       -2.85580294358619        1.99315896421889
C           62.57953981084785       -4.09554443291819        2.80692187936922
C           61.97443570301825       -5.25069533137030        2.31034148153030
C           61.94920951843911       -6.41599105243512        3.06063743398168
C           62.52752822355230       -6.43508229992312        4.32778295351578
O           62.52583578375153       -7.55466988203913        5.09609882042047
C           63.13048494467085       -5.28680520435588        4.83804266640693
C           63.15680484379678       -4.13033950272191        4.07877225664902
C           61.40491306867681       -2.27547177203382        1.60968575333254
C           60.10411726291496       -2.77228426614173        2.02112297208215
C           59.18771237795104       -1.95596574180616        1.46067388600628
N           61.25628198679002       -1.16903645850579        0.82984248059571
C           59.92947900984633       -0.95844850562023        0.71419041127492
C           59.29835175436663        0.06547842201660       -0.02177063267524
C           59.94276260114988        1.08710268935917       -0.74526674904041
C           59.30908924819004        2.08991640319028       -1.52587559708709
C           60.28329668367964        2.88587014073270       -2.06187213200480
C           61.54319654283201        2.40011533964829       -1.61432126939079
N           61.28524358758084        1.30662592249033       -0.82957479066457
C           62.80850875518055        2.91329221373155       -1.91831211330762
C           62.85588544840492        4.12562249438615       -2.77082828631561
C           62.24585284658396        5.31344294113276       -2.35984730365231
C           62.29914407453579        6.44804060839167       -3.15005037697435
C           62.96204420415159        6.40694065695467       -4.37530659994933
O           62.99335241085095        7.53755448121350       -5.12661263451165
C           63.57045131629196        5.22827460837532       -4.80094674493899
C           63.51833153228798        4.09902675056103       -3.99892312247770
C           64.01984728052530        2.36855894869217       -1.47721483294467
C           65.32407342407028        2.95594553428174       -1.74248139809192
C           66.23307291166678        2.14873246704343       -1.15928920243954
C           65.48511784479389        1.07485253317106       -0.53044608085240
N           64.15539868515818        1.24536462039289       -0.73373936675349
H           67.17750030091563        0.03973970437016        0.19493130545277
H           67.18872014858452       -2.22544309066774        1.55717962197799
H           65.29628998404368       -3.83135095443400        2.54993839705765
H           63.41109547728575       -0.61979213506932        0.56480064740340
H           61.53595168366707       -5.24107024146182        1.31870098270156
H           61.48466188908373       -7.31310949024977        2.66580981894767
H           62.07888509260044       -8.28686587545063        4.65074965501246
H           63.57144619859203       -5.31424342760854        5.82686445580407
H           63.61359881938896       -3.23346410898414        4.48253717044258
H           59.93683728481239       -3.62002694518235        2.66564625408049
H           58.11291151667067       -1.99867121656315        1.53601195905806
H           58.24310004754694        2.17783491208205       -1.66086153128982
H           60.14486020524498        3.72973344436542       -2.71789700024297
H           62.00066756586671        0.74065344590053       -0.38523031851622
H           61.74395666269719        5.35139236837392       -1.39941327624518
H           61.83499683388531        7.37253897777597       -2.82943181821675
H           63.48306220629678        7.40089905251546       -5.94873350789215
H           64.08156177832385        5.19929637812398       -5.75730538727299
H           63.98214344614418        3.17892232641728       -4.33674512660599
H           65.49555096274021        3.87019715979521       -2.28761258731848
H           67.30695036929330        2.24856577262769       -1.13275473296869
C           30.34221147272392       -0.06979391830444        0.00644332529983
C           31.56692895326440       -0.09350377805023        0.01237928171376
C           32.90976285185635       -0.11240915656510        0.02005300259910
C           34.14067519927309       -0.12520566380135        0.02934539035172
C           35.47881484695021       -0.13379862455575        0.03967275013289
C           36.70987184655827       -0.13711030608878        0.04762651717289
C           38.05263435980183       -0.13314610001240        0.05590467425061
C           39.27765012426566       -0.12112625779670        0.06249031263628
C           48.95624149908338        0.07651583058598       -0.06329966718140
C           50.18116908185736        0.08892532296883       -0.06400518434163
C           51.52419247118281        0.09742848048658       -0.06735146498335
C           52.75508370794175        0.09881596259675       -0.07480138840427
C           54.09357657288007        0.10070865756884       -0.07296092997897
C           55.32449822078619        0.09924323603566       -0.06842005726835
C           56.66770178272859        0.09417173970658       -0.05746910783527
C           57.89234923310649        0.07745111605553       -0.04509452899530
C           40.68256966974164       -0.10543297111949        0.06417451765510
C           41.32363751391478       -1.20030875186727       -0.54731701669447
C           40.68865881199275       -2.29835801468546       -1.18282810163346
C           41.66461602950908       -3.11957453751091       -1.67776410853831
C           42.92539208161110       -2.55032011371794       -1.35018290246559
N           42.66782434715409       -1.39070980944193       -0.66840887911189
C           44.19065297181783       -3.04789078696026       -1.68529443258762
C           44.21875586279480       -4.33401458137654       -2.42606243116204
C           44.75945726008698       -4.39624393245178       -3.71079704754396
C           44.78167207348822       -5.59118182629121       -4.41290684892649
C           44.26664899972241       -6.74591483481889       -3.82827877947397
O           44.27052832387385       -7.93761557647011       -4.47886533876005
C           43.72819417471990       -6.69841830721994       -2.54364545101822
C           43.70253895424617       -5.49912418762897       -1.85395506274591
C           45.40937652312168       -2.43578604155505       -1.38658800949612
C           46.70224963498654       -3.02086001601963       -1.69456706005796
C           47.63226588748991       -2.15504640510095       -1.24115728886017
N           45.57602400856788       -1.24455672582283       -0.74870639978203
C           46.90670534840702       -1.04758535313317       -0.65153649179385
C           47.55111651493317        0.05487435086600       -0.05475961460075
C           46.91019132579752        1.14368179261250        0.56734345117508
C           47.54528919340282        2.23651354492054        1.21169548965218
C           46.56932863482526        3.05830638015817        1.70562349313450
C           45.30846308544047        2.49502815352346        1.36805905943289
N           45.56596821271571        1.33647065916896        0.68453137559350
C           44.04284566368748        2.99992492700990        1.69120674188211
C           44.01450344063682        4.29306716770488        2.41914138986741
C           44.55013001267940        5.44698416642260        1.84180206748729
C           44.52169618143532        6.65520747340191        2.51539855299863
C           43.96022511566056        6.72355774182309        3.78922068888121
O           43.95271930613873        7.92387695243508        4.42345710797126
C           43.42673588583384        5.58012246159397        4.37954081668132
C           43.45237475594598        4.37591668957086        3.69352510932179
C           42.82385489345977        2.39120762198827        1.38620684226259
C           41.53080118538833        2.98369659571892        1.67883497946909
C           40.60108931861624        2.11669732310959        1.22702622368287
C           41.32704438291422        1.00130392477798        0.65323763283095
N           42.65760376530125        1.19475397643055        0.75779766959479
H           39.62121740874645       -2.43054848387628       -1.25546591618313
H           41.52483326292539       -4.03313274560109       -2.23218985395878
H           43.38006977307287       -0.75838650409603       -0.31886707373400
H           45.15015177388903       -3.49552745320668       -4.17099133803212
H           45.19610811100005       -5.63170970738402       -5.41453001100551
H           44.66915400782531       -7.85911763566288       -5.35599928783999
H           43.33629222698953       -7.60505687416416       -2.09946101523476
H           43.29505262582169       -5.46566185477673       -0.84965840074239
H           46.85601786474456       -3.97327911130843       -2.17542029751092
H           48.70655129042642       -2.23827263046017       -1.28155784303955
H           48.61275573656970        2.36491320151178        1.29055758377665
H           46.70912272242553        3.96835296258285        2.26579222486965
H           44.85361526107410        0.70807299286091        0.32821491400114
H           44.97467013969575        5.39758686785253        0.84524388783972
H           44.92853875090932        7.55296915445049        2.06663668771151
H           43.53509558953832        7.86090329981366        5.29297211805994
H           42.99481485965185        5.63682720953215        5.37295165281526
H           43.04725639655597        3.48420229503516        4.15874395809713
H           41.37647497437876        3.94139949953327        2.14887139103359
H           39.52683030199196        2.20399365099069        1.25874916785904

          :  Hamiltonian                  GFN1-xTB          :
         :: total energy            -336.184946357257 Eh    ::
         :: gradient norm              0.000842901571 Eh/a0 ::
         :: HOMO-LUMO gap              0.946449187766 eV    ::
         :: SCC energy              -341.787242219342 Eh    ::
         :: repulsion energy           5.761883482595 Eh    ::

    * Orbital Energies and Occupations

         #    Occupation            Energy/Eh            Energy/eV
      -------------------------------------------------------------
         1        2.0000           -0.8061386             -21.9361
       ...           ...                  ...                  ...
       291        2.0000           -0.4155879             -11.3087
       292        2.0000           -0.4145555             -11.2806
       293        2.0000           -0.4145397             -11.2802
       294        2.0000           -0.4130297             -11.2391
       295        2.0000           -0.4098645             -11.1530
       296        2.0000           -0.4087785             -11.1234
       297        2.0000           -0.4063728             -11.0580
       298        2.0000           -0.3991147             -10.8605
       299        2.0000           -0.3979963             -10.8300
       300        2.0000           -0.3979161             -10.8278
       301        2.0000           -0.3829717             -10.4212
       302        2.0000           -0.3807342             -10.3603
       303        2.0000           -0.3772913             -10.2666 (HOMO)
       304                         -0.3425099              -9.3202 (LUMO)
       305                         -0.3363367              -9.1522
       306                         -0.3344964              -9.1021
       307                         -0.3305446              -8.9946
       308                         -0.3299393              -8.9781
       309                         -0.3298464              -8.9756
       310                         -0.3098225              -8.4307
       311                         -0.3017016              -8.2097
       312                         -0.3015648              -8.2060
       313                         -0.2925022              -7.9594
       314                         -0.2873107              -7.8181
       ...                                ...                  ...
       644                          1.6043864              43.6576
      -------------------------------------------------------------
                  HL-Gap            0.0347814 Eh            0.9464 eV

Wiberg/Mayer (AO) data.
largest (>0.10) Wiberg bond orders for each atom

     #   Z sym  total        # sym  WBO       # sym  WBO       # sym  WBO
 ---------------------------------------------------------------------------
     1   6 C    3.925 --    37 C    1.366     2 C    1.346    39 H    0.971
     2   6 C    3.903 --     1 C    1.346     3 C    1.231     6 N    1.169
     3   6 C    3.953 --     4 C    1.594     2 C    1.231    40 H    0.977
     4   6 C    3.959 --     3 C    1.594     5 C    1.235    41 H    0.974
     5   6 C    3.896 --     7 C    1.301     4 C    1.235     6 N    1.177
     6   7 N    3.470 --     5 C    1.177     2 C    1.169    42 H    0.873
     7   6 C    3.940 --    15 C    1.335     5 C    1.301     8 C    1.031
     8   6 C    3.989 --     9 C    1.392    14 C    1.383     7 C    1.031
     9   6 C    3.988 --    10 C    1.453     8 C    1.392    43 H    0.972
                            13 C    0.105
    10   6 C    3.988 --     9 C    1.453    11 C    1.371    44 H    0.970
                            14 C    0.102
    11   6 C    3.900 --    10 C    1.371    13 C    1.364    12 O    1.041
    12   8 O    2.044 --    11 C    1.041    45 H    0.865
    13   6 C    3.990 --    14 C    1.466    11 C    1.364    46 H    0.971
                             9 C    0.105
    14   6 C    3.987 --    13 C    1.466     8 C    1.383    47 H    0.973
                            10 C    0.102
    15   6 C    3.915 --     7 C    1.335    18 N    1.286    16 C    1.125
    16   6 C    3.966 --    17 C    1.709    15 C    1.125    48 H    0.974
    17   6 C    3.964 --    16 C    1.709    19 C    1.129    49 H    0.974
    18   7 N    3.022 --    19 C    1.344    15 C    1.286
    19   6 C    3.909 --    18 N    1.344    20 C    1.253    17 C    1.129
    20   6 C    3.937 --    19 C    1.253    21 C    1.251   119 C    1.191
    21   6 C    3.885 --    20 C    1.251    22 C    1.249    25 N    1.190
    22   6 C    3.959 --    23 C    1.583    21 C    1.249    50 H    0.975
    23   6 C    3.955 --    22 C    1.583    24 C    1.241    51 H    0.974
    24   6 C    3.898 --    26 C    1.310    23 C    1.241    25 N    1.164
    25   7 N    3.474 --    21 C    1.190    24 C    1.164    52 H    0.873
    26   6 C    3.926 --    34 C    1.319    24 C    1.310    27 C    1.032
    27   6 C    3.988 --    33 C    1.391    28 C    1.383    26 C    1.032
    28   6 C    3.986 --    29 C    1.467    27 C    1.383    53 H    0.973
                            32 C    0.102
    29   6 C    3.990 --    28 C    1.467    30 C    1.364    54 H    0.971
                            33 C    0.105
    30   6 C    3.900 --    32 C    1.371    29 C    1.364    31 O    1.041
    31   8 O    2.044 --    30 C    1.041    55 H    0.865
    32   6 C    3.988 --    33 C    1.454    30 C    1.371    56 H    0.970
                            28 C    0.102
    33   6 C    3.987 --    32 C    1.454    27 C    1.391    57 H    0.972
                            29 C    0.105
    34   6 C    3.928 --    38 N    1.319    26 C    1.319    35 C    1.119
    35   6 C    3.967 --    36 C    1.721    34 C    1.119    58 H    0.974
    36   6 C    3.966 --    35 C    1.721    37 C    1.118    59 H    0.976
    37   6 C    3.930 --     1 C    1.366    38 N    1.299    36 C    1.118
    38   7 N    3.012 --    34 C    1.319    37 C    1.299
    39   1 H    1.002 --     1 C    0.971
    40   1 H    0.998 --     3 C    0.977
    41   1 H    1.005 --     4 C    0.974
    42   1 H    0.986 --     6 N    0.873
    43   1 H    1.005 --     9 C    0.972
    44   1 H    0.999 --    10 C    0.970
    45   1 H    0.887 --    12 O    0.865
    46   1 H    0.999 --    13 C    0.971
    47   1 H    1.005 --    14 C    0.973
    48   1 H    1.005 --    16 C    0.974
    49   1 H    1.003 --    17 C    0.974
    50   1 H    1.002 --    22 C    0.975
    51   1 H    1.005 --    23 C    0.974
    52   1 H    0.987 --    25 N    0.873
    53   1 H    1.005 --    28 C    0.973
    54   1 H    0.999 --    29 C    0.971
    55   1 H    0.887 --    31 O    0.865
    56   1 H    0.999 --    32 C    0.970
    57   1 H    1.005 --    33 C    0.972
    58   1 H    1.005 --    35 C    0.974
    59   1 H    0.998 --    36 C    0.976
    60   6 C    3.925 --    96 C    1.366    61 C    1.346    98 H    0.971
    61   6 C    3.903 --    60 C    1.346    62 C    1.230    65 N    1.169
    62   6 C    3.954 --    63 C    1.594    61 C    1.230    99 H    0.977
    63   6 C    3.959 --    62 C    1.594    64 C    1.235   100 H    0.974
    64   6 C    3.896 --    66 C    1.302    63 C    1.235    65 N    1.177
    65   7 N    3.470 --    64 C    1.177    61 C    1.169   101 H    0.873
    66   6 C    3.940 --    74 C    1.336    64 C    1.302    67 C    1.030
    67   6 C    3.989 --    68 C    1.392    73 C    1.383    66 C    1.030
    68   6 C    3.988 --    69 C    1.453    67 C    1.392   102 H    0.972
                            72 C    0.105
    69   6 C    3.988 --    68 C    1.453    70 C    1.371   103 H    0.970
                            73 C    0.102
    70   6 C    3.900 --    69 C    1.371    72 C    1.364    71 O    1.041
    71   8 O    2.043 --    70 C    1.041   104 H    0.865
    72   6 C    3.990 --    73 C    1.466    70 C    1.364   105 H    0.971
                            68 C    0.105
    73   6 C    3.987 --    72 C    1.466    67 C    1.383   106 H    0.973
                            69 C    0.102
    74   6 C    3.915 --    66 C    1.336    77 N    1.286    75 C    1.125
    75   6 C    3.966 --    76 C    1.709    74 C    1.125   107 H    0.974
    76   6 C    3.964 --    75 C    1.709    78 C    1.129   108 H    0.974
    77   7 N    3.022 --    78 C    1.344    74 C    1.286
    78   6 C    3.909 --    77 N    1.344    79 C    1.253    76 C    1.129
    79   6 C    3.937 --    78 C    1.253    80 C    1.252   134 C    1.190
    80   6 C    3.885 --    79 C    1.252    81 C    1.249    84 N    1.190
    81   6 C    3.959 --    82 C    1.583    80 C    1.249   109 H    0.975
    82   6 C    3.956 --    81 C    1.583    83 C    1.241   110 H    0.974
    83   6 C    3.898 --    85 C    1.311    82 C    1.241    84 N    1.164
    84   7 N    3.474 --    80 C    1.190    83 C    1.164   111 H    0.873
    85   6 C    3.926 --    93 C    1.319    83 C    1.311    86 C    1.032
    86   6 C    3.988 --    92 C    1.391    87 C    1.383    85 C    1.032
    87   6 C    3.986 --    88 C    1.466    86 C    1.383   112 H    0.973
                            91 C    0.102
    88   6 C    3.990 --    87 C    1.466    89 C    1.364   113 H    0.971
                            92 C    0.105
    89   6 C    3.900 --    91 C    1.371    88 C    1.364    90 O    1.041
    90   8 O    2.044 --    89 C    1.041   114 H    0.865
    91   6 C    3.988 --    92 C    1.454    89 C    1.371   115 H    0.970
                            87 C    0.102
    92   6 C    3.987 --    91 C    1.454    86 C    1.391   116 H    0.972
                            88 C    0.105
    93   6 C    3.928 --    97 N    1.319    85 C    1.319    94 C    1.118
    94   6 C    3.967 --    95 C    1.721    93 C    1.118   117 H    0.974
    95   6 C    3.966 --    94 C    1.721    96 C    1.118   118 H    0.976
    96   6 C    3.930 --    60 C    1.366    97 N    1.299    95 C    1.118
    97   7 N    3.013 --    93 C    1.319    96 C    1.299
    98   1 H    1.002 --    60 C    0.971
    99   1 H    0.998 --    62 C    0.977
   100   1 H    1.005 --    63 C    0.974
   101   1 H    0.986 --    65 N    0.873
   102   1 H    1.005 --    68 C    0.972
   103   1 H    0.999 --    69 C    0.970
   104   1 H    0.887 --    71 O    0.865
   105   1 H    0.999 --    72 C    0.971
   106   1 H    1.005 --    73 C    0.973
   107   1 H    1.005 --    75 C    0.974
   108   1 H    1.003 --    76 C    0.974
   109   1 H    1.002 --    81 C    0.975
   110   1 H    1.005 --    82 C    0.974
   111   1 H    0.987 --    84 N    0.873
   112   1 H    1.005 --    87 C    0.973
   113   1 H    0.999 --    88 C    0.971
   114   1 H    0.887 --    90 O    0.865
   115   1 H    0.999 --    91 C    0.970
   116   1 H    1.005 --    92 C    0.972
   117   1 H    1.005 --    94 C    0.974
   118   1 H    0.998 --    95 C    0.976
   119   6 C    3.876 --   120 C    2.438    20 C    1.191   122 C    0.186
   120   6 C    3.932 --   119 C    2.438   121 C    1.344
   121   6 C    3.891 --   122 C    2.335   120 C    1.344   124 C    0.181
   122   6 C    3.923 --   121 C    2.335   123 C    1.369   119 C    0.186
   123   6 C    3.922 --   124 C    2.334   122 C    1.369   126 C    0.186
   124   6 C    3.891 --   123 C    2.334   125 C    1.345   121 C    0.181
   125   6 C    3.929 --   126 C    2.435   124 C    1.345
   126   6 C    3.877 --   125 C    2.435   135 C    1.194   123 C    0.186
   127   6 C    3.877 --   128 C    2.437   154 C    1.193   130 C    0.185
   128   6 C    3.929 --   127 C    2.437   129 C    1.344
   129   6 C    3.891 --   130 C    2.336   128 C    1.344   132 C    0.181
   130   6 C    3.922 --   129 C    2.336   131 C    1.368   127 C    0.185
   131   6 C    3.923 --   132 C    2.337   130 C    1.368   134 C    0.186
   132   6 C    3.891 --   131 C    2.337   133 C    1.343   129 C    0.181
   133   6 C    3.932 --   134 C    2.439   132 C    1.343
   134   6 C    3.876 --   133 C    2.439    79 C    1.190   131 C    0.186
   135   6 C    3.925 --   171 C    1.253   136 C    1.247   126 C    1.194
   136   6 C    3.886 --   137 C    1.253   135 C    1.247   140 N    1.189
   137   6 C    3.956 --   138 C    1.577   136 C    1.253   173 H    0.975
   138   6 C    3.956 --   137 C    1.577   139 C    1.246   174 H    0.974
   139   6 C    3.893 --   141 C    1.300   138 C    1.246   140 N    1.166
   140   7 N    3.471 --   136 C    1.189   139 C    1.166   175 H    0.874
   141   6 C    3.928 --   149 C    1.338   139 C    1.300   142 C    1.028
   142   6 C    3.988 --   143 C    1.393   148 C    1.384   141 C    1.028
   143   6 C    3.988 --   144 C    1.453   142 C    1.393   176 H    0.972
                           147 C    0.105
   144   6 C    3.988 --   143 C    1.453   145 C    1.371   177 H    0.970
                           148 C    0.102
   145   6 C    3.901 --   144 C    1.371   147 C    1.364   146 O    1.041
   146   8 O    2.044 --   145 C    1.041   178 H    0.865
   147   6 C    3.990 --   148 C    1.466   145 C    1.364   179 H    0.971
                           143 C    0.105
   148   6 C    3.987 --   147 C    1.466   142 C    1.384   180 H    0.973
                           144 C    0.102
   149   6 C    3.916 --   141 C    1.338   152 N    1.285   150 C    1.125
   150   6 C    3.966 --   151 C    1.709   149 C    1.125   181 H    0.974
   151   6 C    3.964 --   150 C    1.709   153 C    1.130   182 H    0.974
   152   7 N    3.010 --   153 C    1.343   149 C    1.285
   153   6 C    3.909 --   152 N    1.343   154 C    1.254   151 C    1.130
   154   6 C    3.925 --   153 C    1.254   155 C    1.247   127 C    1.193
   155   6 C    3.886 --   156 C    1.253   154 C    1.247   159 N    1.189
   156   6 C    3.956 --   157 C    1.577   155 C    1.253   183 H    0.975
   157   6 C    3.956 --   156 C    1.577   158 C    1.246   184 H    0.974
   158   6 C    3.893 --   160 C    1.300   157 C    1.246   159 N    1.166
   159   7 N    3.471 --   155 C    1.189   158 C    1.166   185 H    0.874
   160   6 C    3.928 --   168 C    1.337   158 C    1.300   161 C    1.029
   161   6 C    3.988 --   167 C    1.392   162 C    1.384   160 C    1.029
   162   6 C    3.987 --   163 C    1.466   161 C    1.384   186 H    0.973
                           166 C    0.102
   163   6 C    3.990 --   162 C    1.466   164 C    1.364   187 H    0.971
                           167 C    0.105
   164   6 C    3.901 --   166 C    1.371   163 C    1.364   165 O    1.041
   165   8 O    2.044 --   164 C    1.041   188 H    0.864
   166   6 C    3.988 --   167 C    1.453   164 C    1.371   189 H    0.970
                           162 C    0.102
   167   6 C    3.988 --   166 C    1.453   161 C    1.392   190 H    0.972
                           163 C    0.105
   168   6 C    3.916 --   160 C    1.337   172 N    1.285   169 C    1.125
   169   6 C    3.966 --   170 C    1.709   168 C    1.125   191 H    0.974
   170   6 C    3.964 --   169 C    1.709   171 C    1.130   192 H    0.974
   171   6 C    3.909 --   172 N    1.344   135 C    1.253   170 C    1.130
   172   7 N    3.010 --   171 C    1.344   168 C    1.285
   173   1 H    1.002 --   137 C    0.975
   174   1 H    1.005 --   138 C    0.974
   175   1 H    0.987 --   140 N    0.874
   176   1 H    1.005 --   143 C    0.972
   177   1 H    0.999 --   144 C    0.970
   178   1 H    0.886 --   146 O    0.865
   179   1 H    0.999 --   147 C    0.971
   180   1 H    1.005 --   148 C    0.973
   181   1 H    1.005 --   150 C    0.974
   182   1 H    1.003 --   151 C    0.974
   183   1 H    1.002 --   156 C    0.975
   184   1 H    1.005 --   157 C    0.974
   185   1 H    0.987 --   159 N    0.874
   186   1 H    1.005 --   162 C    0.973
   187   1 H    0.999 --   163 C    0.971
   188   1 H    0.886 --   165 O    0.864
   189   1 H    0.999 --   166 C    0.970
   190   1 H    1.005 --   167 C    0.972
   191   1 H    1.005 --   169 C    0.974
   192   1 H    1.003 --   170 C    0.974
 ---------------------------------------------------------------------------

           -------------------------------------------------
          | TOTAL ENERGY             -336.184946357257 Eh   |
          | GRADIENT NORM               0.000842901571 Eh/α |
          | HOMO-LUMO GAP               0.946449187766 eV   |
           -------------------------------------------------

 * finished run on 2022/07/29 at 01:15:55.976
