   * xtb version 6.5.1 (b24c23e) compiled by 'conda@728c89f4b128' on 2022-07-12
          program call               : xtb Ni_PhNH2_C2_2.xyz --gfn 1 --opt -T 48

   ID    Z sym.   atoms
    1   28 Ni     1, 61
    2    6 C      2-6, 8-12, 14-18, 20-25, 27-31, 33-38, 62-66, 68-72, 74-78,
                  80-85, 87-91, 93-98, 121, 122
    3    7 N      7, 13, 19, 26, 32, 39, 67, 73, 79, 86, 92, 99
    4    1 H      40-60, 100-120
########################################################################
[WARNING] Please study the warnings concerning your input carefully
-1- prog_main_parseArguments: Unknown option '-T' provided
########################################################################

          :  Hamiltonian                  GFN1-xTB          :
 * total energy  :  -208.4443645 Eh     change       -0.4260698E-09 Eh
 * total energy  :  -208.6686115 Eh     change       -0.2242470E+00 Eh
 * total energy  :  -208.7445207 Eh     change       -0.7590922E-01 Eh
 * total energy  :  -208.7721892 Eh     change       -0.2766852E-01 Eh
 * total energy  :  -208.7832955 Eh     change       -0.1110627E-01 Eh
 * total energy  :  -208.7901122 Eh     change       -0.6816722E-02 Eh
 * total energy  :  -208.7939882 Eh     change       -0.3875980E-02 Eh
 * total energy  :  -208.7962939 Eh     change       -0.2305660E-02 Eh
 * total energy  :  -208.7980363 Eh     change       -0.1742383E-02 Eh
 * total energy  :  -208.7992375 Eh     change       -0.1201286E-02 Eh
 * total energy  :  -208.8071481 Eh     change       -0.2714512E-04 Eh
 * total energy  :  -208.8071874 Eh     change       -0.3922589E-04 Eh
 * total energy  :  -208.8072153 Eh     change       -0.2789195E-04 Eh
 * total energy  :  -208.8072340 Eh     change       -0.1872033E-04 Eh
 * total energy  :  -208.8072464 Eh     change       -0.1241551E-04 Eh
 * total energy  :  -208.8072539 Eh     change       -0.7513968E-05 Eh
 * total energy  :  -208.8072533 Eh     change        0.5794595E-06 Eh
 * total energy  :  -208.8072594 Eh     change       -0.6032258E-05 Eh
 * total energy  :  -208.8072637 Eh     change       -0.4358270E-05 Eh
   *** GEOMETRY OPTIMIZATION CONVERGED AFTER 40 ITERATIONS ***

 final structure:
================
122
 xtb: 6.5.1 (b24c23e)
Ni          16.68070165703494        0.06414769081778       -0.04080540375273
C           13.29234148162831        0.15528548273157        0.05626028193420
C           13.95066474514516        1.17382237398584       -0.60160213674374
C           13.28402021192148        2.24343402362342       -1.27830990194484
C           14.24736109627797        3.09846053334145       -1.69641553264541
C           15.50143857436069        2.55655540997500       -1.26271778524691
N           15.31150343861312        1.35312963674764       -0.63054171901855
C           16.72134662964286        3.20591186350782       -1.41148314225313
C           16.73716952986415        4.57009236333007       -1.98753373864590
C           17.45250866611655        4.84586857966310       -3.15521936498678
C           17.46443832586517        6.11974085576757       -3.69535207956716
C           16.76011530927542        7.15273890251241       -3.07141707545004
N           16.80939114267840        8.43886997257910       -3.58106251422239
C           16.05402877267485        6.88824253837818       -1.89509549640665
C           16.03855187009016        5.60929689450828       -1.36778241852525
C           17.92458967947685        2.62634527141186       -1.02823125225027
C           19.18952954110583        3.29177771654920       -1.10355146097911
C           20.13086616457150        2.38649171930943       -0.74207469603143
N           18.08772957192843        1.33542559432670       -0.57860302541035
C           19.43985475601923        1.17413431912916       -0.43959680088081
C           20.08804317577321       -0.01994550333724       -0.11652489326179
C           19.39583826815826       -1.18397227389326        0.22522179745265
C           20.03823078266644       -2.43116796671071        0.48998169822220
C           19.07010231276584       -3.29038060090745        0.89143582236684
C           17.83897072421674       -2.56064236862138        0.88152906546841
N           18.04524856270031       -1.27848630211691        0.42496088185727
C           16.63069436014342       -3.07552043917959        1.33536385138982
C           16.61409364973317       -4.43138569656317        1.93022537878959
C           17.38630589980344       -4.72194957816301        3.05769782474817
C           17.37444021309679       -5.98634436262946        3.61897711005141
C           16.59724534029177       -6.99855866896910        3.04999883204690
N           16.55381315041953       -8.25445869190147        3.63044185497976
C           15.81895862825936       -6.71497832810167        1.92476174760331
C           15.82836481622879       -5.44479451419344        1.37614450056819
C           15.44035833820742       -2.36295201872051        1.25272144325386
C           14.18579172789090       -2.83622283708052        1.75924580096687
C           13.24763199561618       -1.93071880710592        1.39363048747301
C           13.93120656963666       -0.89852562619947        0.67672595216578
N           15.27964899614214       -1.15135483431436        0.62770380387612
H           12.20936280662740        0.18503435297618        0.08799902110704
H           12.21554248727146        2.31337367727523       -1.40764243281377
H           14.13199293697462        4.01416173039130       -2.25342874799269
H           17.98782295437826        4.04569929511426       -3.65453810102683
H           18.01723414925008        6.32029687862435       -4.60666316252487
H           17.03527052612781        8.50000594183311       -4.56110358933309
H           16.04814979690845        9.03676445065835       -3.30102382155846
H           15.51819968209094        7.68948996801130       -1.39787298688605
H           15.49525628121026        5.41342187040462       -0.44978992747761
H           19.32934090897311        4.32176887862410       -1.38841732495757
H           21.19919458853421        2.51598355135063       -0.67823234936021
H           21.09407495518419       -2.61457056724682        0.37292611448329
H           19.17059688844397       -4.32831386782770        1.16389261776522
H           17.98637178269640       -3.93938165360486        3.50908892830599
H           17.96929933715173       -6.19677406948694        4.50108592969133
H           17.35168658140921       -8.48820944587989        4.19944579939015
H           16.26020477783450       -8.99727085644901        3.01642849527028
H           15.21122607960974       -7.49594081242814        1.48084296700642
H           15.23566260463186       -5.23725394857416        0.49189235934240
H           14.05323668763129       -3.74415080814209        2.32500231994509
H           12.18611522531329       -1.94279145343055        1.58405020879980
Ni          27.52864408246585       -0.06888425220801        0.03175468056932
C           30.91705092631963       -0.03890230083352        0.16049045961660
C           30.25871985634149       -1.15000737226721        0.64591991213188
C           30.92536651624393       -2.30501382019062        1.16356321425564
C           29.96202903007889       -3.12593463215561        1.64520159965073
C           28.70794621192369       -2.46505467096292        1.43312954625968
N           28.89787705268743       -1.27316721304297        0.77943915584343
C           27.48804679501032       -2.94783882781788        1.89219694838508
C           27.47223759508789       -4.18171098786867        2.71096841799871
C           26.75689765773721       -5.30734632168625        2.29565480577228
C           26.74496727184449       -6.46138899412198        3.05898712029616
C           27.44928938760430       -6.51209625034985        4.26472762347821
N           27.40001177740692       -7.64750252177828        5.05512135138313
C           28.15537724855510       -5.38549487882311        4.69421654539824
C           28.17085431567988       -4.23933252773845        3.91957181073645
C           26.28479221722102       -2.30820230562905        1.62087684270534
C           25.01985781896304       -2.73863718782615        2.13391917291655
C           24.07851803312125       -1.93715272853596        1.57909607543265
N           26.12164891944623       -1.22012778963725        0.79339690167725
C           24.76952540154605       -1.01519719511551        0.73570774516625
C           24.12134964966128       -0.08613684821015       -0.08103272616602
C           24.81356847775265        0.84183915755436       -0.86243740835424
C           24.17116952674536        1.75163906412922       -1.75566444287375
C           25.13929482750036        2.56098592572287       -2.25000508792483
C           26.37043491664717        2.14951751602474       -1.64726804074278
N           26.16415244461630        1.06059116167098       -0.83079741840349
C           27.57869719816462        2.81230099938400       -1.82564634415303
C           27.59528312048634        4.05727600195670       -2.62706065997072
C           26.82306498788190        5.15756009444071       -2.24628557762576
C           26.83493048924553        6.32399792678742       -2.99002819626604
C           27.61213325803773        6.40903873032434       -4.14807374788356
N           27.65556590630758        7.58675421404783       -4.87414915865234
C           28.39042622272433        5.31447775641354       -4.53343148067736
C           28.38101997407302        4.15539671126539       -3.77786814018517
C           28.76904405035711        2.34971286468336       -1.27740657803628
C           30.02360200230397        3.03341486654542       -1.39197968269744
C           30.96176447020383        2.22837103174336       -0.83924614930275
C           30.27819605803984        1.06050222696271       -0.37505900512480
N           28.92975071584140        1.15937042816001       -0.61281677299456
H           32.00002796089549       -0.02887317050104        0.20285786951964
H           31.99384555652608       -2.45143345659421        1.15043503363394
H           30.07740372638012       -4.09613323054151        2.10069942701819
H           26.22157856800409       -5.28141179175020        1.35283226700928
H           26.19217129779518       -7.33177545801218        2.72262696825731
H           27.17413020226945       -8.49814201343908        4.56458091246213
H           28.16125350604152       -7.74444426231126        5.70819196146976
H           28.69120515531706       -5.41376961875280        5.63678177937761
H           28.71414406238727       -3.36596012843594        4.26352603099591
H           24.88005388615020       -3.54514938953348        2.83503894519797
H           23.01019268808490       -1.95546628542242        1.72232907734796
H           23.11531915679108        1.75542642792258       -1.97318132955197
H           25.03879058045446        3.36157873371592       -2.96456000181488
H           26.22299585046869        5.10140009820188       -1.34461584361060
H           26.24006500646980        7.17549668742000       -2.67803597885931
H           26.85768900142886        8.19016576048563       -4.75459511504258
H           27.94918126857458        7.48540198068431       -5.83253652837726
H           28.99816458802431        5.37597985462875       -5.42963247474317
H           28.97373333146590        3.30371108898026       -4.09345119868894
H           30.15614609103130        4.00664145244553       -1.83610768379361
H           32.02327567277167        2.39377823968266       -0.74405734673713
C           21.49703952321196       -0.04917507201517       -0.12165372090861
C           22.71235219415324       -0.07422093296516       -0.10820537744930

          :  Hamiltonian                  GFN1-xTB          :
         :: total energy            -208.807263716001 Eh    ::
         :: gradient norm              0.000642106260 Eh/a0 ::
         :: HOMO-LUMO gap              1.176282262531 eV    ::
         :: SCC energy              -212.025398604776 Eh    ::
         :: repulsion energy           3.328451124670 Eh    ::

    * Orbital Energies and Occupations

         #    Occupation            Energy/Eh            Energy/eV
      -------------------------------------------------------------
         1        2.0000           -0.7784436             -21.1825
       ...           ...                  ...                  ...
       181        2.0000           -0.3959546             -10.7745
       182        2.0000           -0.3887434             -10.5782
       183        2.0000           -0.3886595             -10.5760
       184        2.0000           -0.3885553             -10.5731
       185        2.0000           -0.3885332             -10.5725
       186        2.0000           -0.3874730             -10.5437
       187        2.0000           -0.3874709             -10.5436
       188        2.0000           -0.3864075             -10.5147
       189        2.0000           -0.3864032             -10.5146
       190        2.0000           -0.3863600             -10.5134
       191        2.0000           -0.3863596             -10.5134
       192        2.0000           -0.3839415             -10.4476
       193        2.0000           -0.3732612             -10.1570 (HOMO)
       194                         -0.3300337              -8.9807 (LUMO)
       195                         -0.3192249              -8.6866
       196                         -0.3192180              -8.6864
       197                         -0.3181002              -8.6559
       198                         -0.3180548              -8.6547
       199                         -0.3144506              -8.5566
       200                         -0.2878118              -7.8318
       201                         -0.2794720              -7.6048
       202                         -0.2565157              -6.9801
       203                         -0.2565146              -6.9801
       204                         -0.2561296              -6.9696
       ...                                ...                  ...
       414                          1.3548431              36.8672
      -------------------------------------------------------------
                  HL-Gap            0.0432276 Eh            1.1763 eV

Wiberg/Mayer (AO) data.
largest (>0.10) Wiberg bond orders for each atom

     #   Z sym  total        # sym  WBO       # sym  WBO       # sym  WBO
 ---------------------------------------------------------------------------
     1  28 Ni   3.020 --     7 N    0.665    39 N    0.665    26 N    0.663
                            19 N    0.663
     2   6 C    3.933 --    38 C    1.363     3 C    1.363    40 H    0.970
     3   6 C    3.925 --     2 C    1.363     7 N    1.212     4 C    1.178
     4   6 C    3.959 --     5 C    1.645     3 C    1.178    41 H    0.975
     5   6 C    3.963 --     4 C    1.645     6 C    1.180    42 H    0.973
     6   6 C    3.919 --     8 C    1.320     7 N    1.221     5 C    1.180
     7   7 N    3.400 --     6 C    1.221     3 C    1.212     1 Ni   0.665
     8   6 C    3.939 --    16 C    1.325     6 C    1.320     9 C    1.032
     9   6 C    3.988 --    10 C    1.381    15 C    1.380     8 C    1.032
    10   6 C    3.988 --    11 C    1.468     9 C    1.381    43 H    0.973
    11   6 C    3.990 --    10 C    1.468    12 C    1.354    44 H    0.972
    12   6 C    3.952 --    11 C    1.354    14 C    1.354    13 N    1.115
    13   7 N    3.134 --    12 C    1.115    45 H    0.934    46 H    0.934
    14   6 C    3.990 --    15 C    1.469    12 C    1.354    47 H    0.972
    15   6 C    3.988 --    14 C    1.469     9 C    1.380    48 H    0.973
    16   6 C    3.915 --     8 C    1.325    19 N    1.207    17 C    1.186
    17   6 C    3.960 --    18 C    1.633    16 C    1.186    49 H    0.973
    18   6 C    3.962 --    17 C    1.633    20 C    1.193    50 H    0.971
    19   7 N    3.405 --    20 C    1.235    16 C    1.207     1 Ni   0.663
    20   6 C    3.911 --    21 C    1.270    19 N    1.235    18 C    1.193
    21   6 C    3.943 --    20 C    1.270    22 C    1.268   121 C    1.168
    22   6 C    3.911 --    21 C    1.268    26 N    1.235    23 C    1.194
    23   6 C    3.962 --    24 C    1.632    22 C    1.194    51 H    0.971
    24   6 C    3.960 --    23 C    1.632    25 C    1.186    52 H    0.973
    25   6 C    3.915 --    27 C    1.324    26 N    1.207    24 C    1.186
    26   7 N    3.405 --    22 C    1.235    25 C    1.207     1 Ni   0.663
    27   6 C    3.939 --    25 C    1.324    35 C    1.320    28 C    1.033
    28   6 C    3.988 --    34 C    1.381    29 C    1.380    27 C    1.033
    29   6 C    3.988 --    30 C    1.469    28 C    1.380    53 H    0.973
    30   6 C    3.990 --    29 C    1.469    31 C    1.354    54 H    0.972
    31   6 C    3.952 --    33 C    1.354    30 C    1.354    32 N    1.115
    32   7 N    3.134 --    31 C    1.115    56 H    0.934    55 H    0.933
    33   6 C    3.989 --    34 C    1.468    31 C    1.354    57 H    0.972
    34   6 C    3.988 --    33 C    1.468    28 C    1.381    58 H    0.973
    35   6 C    3.919 --    27 C    1.320    39 N    1.221    36 C    1.179
    36   6 C    3.963 --    37 C    1.645    35 C    1.179    59 H    0.973
    37   6 C    3.959 --    36 C    1.645    38 C    1.177    60 H    0.975
    38   6 C    3.925 --     2 C    1.363    39 N    1.212    37 C    1.177
    39   7 N    3.400 --    35 C    1.221    38 C    1.212     1 Ni   0.665
    40   1 H    1.001 --     2 C    0.970
    41   1 H    0.998 --     4 C    0.975
    42   1 H    1.005 --     5 C    0.973
    43   1 H    1.005 --    10 C    0.973
    44   1 H    0.999 --    11 C    0.972
    45   1 H    0.961 --    13 N    0.934
    46   1 H    0.961 --    13 N    0.934
    47   1 H    0.999 --    14 C    0.972
    48   1 H    1.005 --    15 C    0.973
    49   1 H    1.005 --    17 C    0.973
    50   1 H    1.004 --    18 C    0.971
    51   1 H    1.004 --    23 C    0.971
    52   1 H    1.005 --    24 C    0.973
    53   1 H    1.005 --    29 C    0.973
    54   1 H    0.999 --    30 C    0.972
    55   1 H    0.961 --    32 N    0.933
    56   1 H    0.961 --    32 N    0.934
    57   1 H    0.999 --    33 C    0.972
    58   1 H    1.005 --    34 C    0.973
    59   1 H    1.005 --    36 C    0.973
    60   1 H    0.998 --    37 C    0.975
    61  28 Ni   3.020 --    67 N    0.665    99 N    0.665    86 N    0.663
                            79 N    0.663
    62   6 C    3.933 --    98 C    1.363    63 C    1.363   100 H    0.970
    63   6 C    3.925 --    62 C    1.363    67 N    1.212    64 C    1.178
    64   6 C    3.959 --    65 C    1.645    63 C    1.178   101 H    0.975
    65   6 C    3.963 --    64 C    1.645    66 C    1.180   102 H    0.973
    66   6 C    3.919 --    68 C    1.320    67 N    1.221    65 C    1.180
    67   7 N    3.400 --    66 C    1.221    63 C    1.212    61 Ni   0.665
    68   6 C    3.939 --    76 C    1.325    66 C    1.320    69 C    1.032
    69   6 C    3.988 --    70 C    1.381    75 C    1.380    68 C    1.032
    70   6 C    3.988 --    71 C    1.468    69 C    1.381   103 H    0.973
    71   6 C    3.990 --    70 C    1.468    72 C    1.354   104 H    0.972
    72   6 C    3.952 --    71 C    1.354    74 C    1.354    73 N    1.115
    73   7 N    3.134 --    72 C    1.115   105 H    0.934   106 H    0.934
    74   6 C    3.990 --    75 C    1.469    72 C    1.354   107 H    0.972
    75   6 C    3.988 --    74 C    1.469    69 C    1.380   108 H    0.973
    76   6 C    3.915 --    68 C    1.325    79 N    1.207    77 C    1.186
    77   6 C    3.960 --    78 C    1.633    76 C    1.186   109 H    0.973
    78   6 C    3.962 --    77 C    1.633    80 C    1.193   110 H    0.971
    79   7 N    3.405 --    80 C    1.235    76 C    1.207    61 Ni   0.663
    80   6 C    3.911 --    81 C    1.270    79 N    1.235    78 C    1.193
    81   6 C    3.943 --    80 C    1.270    82 C    1.268   122 C    1.168
    82   6 C    3.911 --    81 C    1.268    86 N    1.235    83 C    1.194
    83   6 C    3.962 --    84 C    1.632    82 C    1.194   111 H    0.971
    84   6 C    3.960 --    83 C    1.632    85 C    1.186   112 H    0.973
    85   6 C    3.915 --    87 C    1.324    86 N    1.207    84 C    1.186
    86   7 N    3.405 --    82 C    1.235    85 C    1.207    61 Ni   0.663
    87   6 C    3.939 --    85 C    1.324    95 C    1.320    88 C    1.033
    88   6 C    3.988 --    94 C    1.381    89 C    1.380    87 C    1.033
    89   6 C    3.988 --    90 C    1.469    88 C    1.380   113 H    0.973
    90   6 C    3.990 --    89 C    1.469    91 C    1.354   114 H    0.972
    91   6 C    3.952 --    93 C    1.354    90 C    1.354    92 N    1.115
    92   7 N    3.134 --    91 C    1.115   116 H    0.934   115 H    0.933
    93   6 C    3.989 --    94 C    1.468    91 C    1.354   117 H    0.972
    94   6 C    3.988 --    93 C    1.468    88 C    1.381   118 H    0.973
    95   6 C    3.919 --    87 C    1.320    99 N    1.221    96 C    1.179
    96   6 C    3.963 --    97 C    1.645    95 C    1.179   119 H    0.973
    97   6 C    3.959 --    96 C    1.645    98 C    1.177   120 H    0.975
    98   6 C    3.925 --    62 C    1.363    99 N    1.212    97 C    1.177
    99   7 N    3.400 --    95 C    1.221    98 C    1.212    61 Ni   0.665
   100   1 H    1.001 --    62 C    0.970
   101   1 H    0.998 --    64 C    0.975
   102   1 H    1.005 --    65 C    0.973
   103   1 H    1.005 --    70 C    0.973
   104   1 H    0.999 --    71 C    0.972
   105   1 H    0.961 --    73 N    0.934
   106   1 H    0.961 --    73 N    0.934
   107   1 H    0.999 --    74 C    0.972
   108   1 H    1.005 --    75 C    0.973
   109   1 H    1.005 --    77 C    0.973
   110   1 H    1.004 --    78 C    0.971
   111   1 H    1.004 --    83 C    0.971
   112   1 H    1.005 --    84 C    0.973
   113   1 H    1.005 --    89 C    0.973
   114   1 H    0.999 --    90 C    0.972
   115   1 H    0.961 --    92 N    0.933
   116   1 H    0.961 --    92 N    0.934
   117   1 H    0.999 --    93 C    0.972
   118   1 H    1.005 --    94 C    0.973
   119   1 H    1.005 --    96 C    0.973
   120   1 H    0.998 --    97 C    0.975
   121   6 C    3.936 --   122 C    2.588    21 C    1.168
   122   6 C    3.936 --   121 C    2.588    81 C    1.168
 ---------------------------------------------------------------------------

           -------------------------------------------------
          | TOTAL ENERGY             -208.807263716001 Eh   |
          | GRADIENT NORM               0.000642106260 Eh/α |
          | HOMO-LUMO GAP               1.176282262531 eV   |
           -------------------------------------------------

 * finished run on 2022/07/30 at 04:01:04.728
