   * xtb version 6.5.1 (b24c23e) compiled by 'conda@728c89f4b128' on 2022-07-12
          program call               : xtb Co_PhCHO_C2_3.xyz --gfn 1 --opt -T 48

   ID    Z sym.   atoms
    1   27 Co     1, 61, 125
    2    6 C      2-6, 8-13, 15-19, 21-26, 28-33, 35-40, 62-66, 68-73, 75-79,
                  81-86, 88-93, 95-100, 121-124, 126-130, 132-137, 139-143,
                  145-150, 152-157, 159-164
    3    7 N      7, 20, 27, 41, 67, 80, 87, 101, 131, 144, 151, 165
    4    8 O      14, 34, 74, 94, 138, 158
    5    1 H      42-60, 102-120, 166-183
########################################################################
[WARNING] Please study the warnings concerning your input carefully
-1- prog_main_parseArguments: Unknown option '-T' provided
########################################################################

          :  Hamiltonian                  GFN1-xTB          :
 * total energy  :  -330.5255701 Eh     change       -0.1288640E-08 Eh
 * total energy  :  -330.8443955 Eh     change       -0.3188255E+00 Eh
 * total energy  :  -330.9726255 Eh     change       -0.1282300E+00 Eh
 * total energy  :  -331.0260261 Eh     change       -0.5340065E-01 Eh
 * total energy  :  -331.0473653 Eh     change       -0.2133920E-01 Eh
 * total energy  :  -331.0614492 Eh     change       -0.1408384E-01 Eh
 * total energy  :  -331.0699393 Eh     change       -0.8490104E-02 Eh
 * total energy  :  -331.0759238 Eh     change       -0.5984563E-02 Eh
 * total energy  :  -331.0795328 Eh     change       -0.3608985E-02 Eh
 * total energy  :  -331.0818168 Eh     change       -0.2283948E-02 Eh
 * total energy  :  -331.0945356 Eh     change       -0.4683862E-05 Eh
 * total energy  :  -331.0945469 Eh     change       -0.1135105E-04 Eh
 * total energy  :  -331.0945575 Eh     change       -0.1058817E-04 Eh
 * total energy  :  -331.0945667 Eh     change       -0.9213528E-05 Eh
 * total energy  :  -331.0945717 Eh     change       -0.4977833E-05 Eh
 * total energy  :  -331.0945753 Eh     change       -0.3611699E-05 Eh
 * total energy  :  -331.0945807 Eh     change       -0.5414320E-05 Eh
 * total energy  :  -331.0945864 Eh     change       -0.5687042E-05 Eh
 * total energy  :  -331.0945914 Eh     change       -0.4964650E-05 Eh
   *** GEOMETRY OPTIMIZATION CONVERGED AFTER 165 ITERATIONS ***

 final structure:
================
183
 xtb: 6.5.1 (b24c23e)
Co          34.73227770573109        0.02272874713731       -0.44052190099341
C           31.67489062864565        0.22251501873138       -1.77253822258060
C           32.27121306744890        1.39024108324839       -1.34234066137537
C           31.61918158615018        2.66472811603187       -1.35640708208760
C           32.40097396552893        3.50899207048831       -0.64205673785529
C           33.56759892907051        2.76977761516010       -0.25728020086135
N           33.46671685334130        1.46922043835024       -0.67532712551229
C           34.67449891865612        3.31368513165779        0.38533150820233
C           34.64158332989076        4.71908245442776        0.84938498313785
C           34.79757198515561        5.00409905618347        2.20898369339890
C           34.77651746309069        6.31185202603844        2.65389421773974
C           34.60800703353389        7.36436395551112        1.74814213854858
C           34.59656758426706        8.75230599078563        2.24640682112275
O           34.73238743911900        9.04764095137102        3.40582012882294
C           34.46198794849771        7.08058109169827        0.38836422469732
C           34.47821055263712        5.77035813594427       -0.05630190870235
C           35.86625405162560        2.61119887353474        0.49841721848652
C           37.11758823774557        3.21903920119674        0.83881671877086
C           38.08059582200697        2.29997171031842        0.58341750911529
N           36.06389227324840        1.30986017425487        0.10150735585282
C           37.41320255926058        1.11513880887345        0.14525258975279
C           38.06557046015828       -0.10470004356258       -0.07585352153919
C           37.35144028679829       -1.30650757608542       -0.13938893517543
C           37.95819412813447       -2.59423228637801       -0.02153512223962
C           36.94943930661315       -3.49310453528425        0.08615425975665
C           35.72671736903518       -2.75704453868895       -0.03065027499628
N           35.99046212660593       -1.41551702641102       -0.16084959177622
C           34.47772556917518       -3.35059954984747       -0.16026215652918
C           34.36768605869956       -4.80797567211918        0.07273100248383
C           34.03394726176735       -5.68102404063057       -0.96587427765494
C           33.94570213152800       -7.04244307136503       -0.73414238922234
C           34.18767448382781       -7.55671767630476        0.54165060287616
C           34.09823655206808       -9.00348085289178        0.81445997868749
O           34.29837656109429       -9.49309474474950        1.89606299631203
C           34.52795276741088       -6.68312172742829        1.57976697079179
C           34.62214286722978       -5.32478225225430        1.34673009554939
C           33.37670868177951       -2.63396537314006       -0.61464251059062
C           32.13136399734751       -3.22095916862053       -1.01620668364979
C           31.39870991076443       -2.23465053781587       -1.58585521616047
C           32.16267778763623       -1.03053252792297       -1.46071269071355
N           33.36695374317944       -1.28507799167466       -0.85790723923552
H           30.71260832962622        0.28986208824041       -2.26650541780999
H           30.66503119514092        2.85875476939657       -1.81977173541704
H           32.21738762577502        4.54364582049778       -0.40228141331255
H           34.92360022926122        4.18874780726621        2.91223301158136
H           34.89085675412782        6.54215175973911        3.70766520331089
H           34.45397419061955        9.51927841488630        1.45555565541846
H           34.34032527106956        7.89182584433276       -0.32199479230536
H           34.38654880136016        5.55567838163542       -1.11492441923867
H           37.23574796969617        4.23196274728148        1.18778017172440
H           39.14694224266024        2.39307666552947        0.70994288919891
H           39.02090556686139       -2.77118646533894        0.00696540803576
H           37.01606831182879       -4.56332686259101        0.19543157384504
H           33.86652619729567       -5.28859743977875       -1.96235744898586
H           33.69137692205059       -7.71445860376731       -1.54739465914289
H           33.82824808701399       -9.61835394894044       -0.07048017922281
H           34.71672072362389       -7.09201979517401        2.56657884506682
H           34.88167320011900       -4.64791038605809        2.15290207582506
H           31.86682549605529       -4.25796582452152       -0.88875744765929
H           30.41296139393747       -2.29145876557612       -2.01922589435861
Co          56.19232761904165        0.04953433528020       -0.51425011394908
C           59.16878852288097        0.21113839192554       -2.00440181337107
C           58.63174176718864       -1.03957024128691       -1.77142373373479
C           59.31969578833841       -2.26568065488659       -2.04106519538501
C           58.57665182004951       -3.25745138137708       -1.49382732549740
C           57.39355138765251       -2.64553935535023       -0.96293150485113
N           57.45820163962026       -1.28429901260640       -1.10760912784734
C           56.28711947330709       -3.33832661524211       -0.48371623291598
C           56.33628171233818       -4.81039105475365       -0.34113585728892
C           56.13401962089473       -5.38713847304242        0.91638488892483
C           56.17199872532863       -6.75957269983885        1.06850767691815
C           56.40291307078729       -7.58707209219845       -0.03540738005777
C           56.43304674395311       -9.04962371045952        0.15130722644374
O           56.26182990226074       -9.59169253556250        1.21279890188746
C           56.59264590809001       -7.01206973149709       -1.29408756862014
C           56.56019400720905       -5.63692713369335       -1.44510808471173
C           55.07851563295447       -2.69560072088718       -0.24725873602178
C           53.82487179167847       -3.37499525605763       -0.11615278128951
C           52.85990412057516       -2.42257072071402       -0.13255967630142
N           54.87863968040979       -1.33768825363886       -0.28767832863561
C           53.52795074454836       -1.16148080554556       -0.20698995876045
C           52.88284669743081        0.06884331111414       -0.02679552151428
C           53.60789516573164        1.22732664053027        0.27867994926290
C           53.02617016110610        2.40804503140068        0.83350820657634
C           54.05076409475969        3.24035883268381        1.14264656563898
C           55.25327598239367        2.59285513641687        0.71082317862260
N           54.96480521496117        1.34750473889098        0.20706066308582
C           56.48303893949095        3.23077004954565        0.61837337255791
C           56.62661158484498        4.57110098741050        1.23000139333612
C           56.82161257360969        5.70796579729718        0.44189661214562
C           56.94791310671305        6.95376877040822        1.03117312745206
C           56.88402076063162        7.08547563472473        2.42013680046206
C           57.02045969283864        8.40117534427655        3.07277458806227
O           56.97273703722846        8.56370397814872        4.26485265283885
C           56.68138881406518        5.94771553340417        3.20819852604088
C           56.54855163191103        4.70517880772187        2.61932471262987
C           57.52478702610504        2.69252219945346       -0.13000540882490
C           58.71265290172435        3.40018278444373       -0.50941228496292
C           59.39806934869852        2.59301285896713       -1.35403673100483
C           58.67078925848539        1.36183174927879       -1.42701040229827
N           57.52273493244711        1.43882600895276       -0.68128741684076
H           60.10103253084576        0.27488176062074       -2.55342482986805
H           60.26944345187449       -2.33609086737794       -2.54689790711223
H           58.79475536958960       -4.31250951837445       -1.46267242547075
H           55.95945217263034       -4.74622436814295        1.77316671060984
H           56.02323187439558       -7.21525755211485        2.04153821862202
H           56.62551195503181       -9.62423739310664       -0.77967913560800
H           56.76147205125330       -7.64752790157164       -2.15735799006991
H           56.68545940714912       -5.19624490847432       -2.42758304928556
H           53.70726165285529       -4.44501533693434       -0.06025062124566
H           51.79179450454688       -2.54873501876302       -0.06017451726015
H           51.97001679384479        2.55582063881585        0.99039775454545
H           54.00484311207601        4.22360294781556        1.58189807026477
H           56.85136366276893        5.61309938087090       -0.63760030692501
H           57.09408631149257        7.83295415538514        0.41211452006376
H           57.17354045466585        9.24615390133202        2.36822736186598
H           56.63006432190867        6.06029677888513        4.28582242648739
H           56.39591649237138        3.82303564737446        3.23074728337279
H           58.97351359565255        4.39237266388273       -0.17906325993440
H           60.33442612053669        2.78109077937746       -1.85467990387090
C           39.46827491633834       -0.12687848310076       -0.10291753028763
C           40.68563113277644       -0.12237773035987       -0.15241830369700
C           50.26320915490194        0.11768191325780       -0.06553669410996
C           51.48072082050921        0.10459433705812       -0.02444777328849
Co          45.47537334930077        0.01994917148329       -0.22712602662829
C           42.08766425708345       -0.08910867264493       -0.19479343593043
C           42.73077829299605        1.14895916571686       -0.31365978031463
C           42.05106891604767        2.39193208125814       -0.49218259527441
C           42.98072956892259        3.36877518314152       -0.34726486173101
C           44.22234199169335        2.71529905573588       -0.06419950679946
N           44.06817830498804        1.35012130694118       -0.12749341669418
C           45.37202675049099        3.35838207988817        0.37615349001812
C           45.33033609801380        4.81348347125119        0.63112750536131
C           46.21968818560206        5.67199955240607       -0.02308875038006
C           46.17744448744598        7.03223550937717        0.21369046353376
C           45.25065254884147        7.56545782156620        1.11554564791060
C           45.22788057888393        9.02133186715669        1.35146106797849
O           45.96647468910203        9.79812196812596        0.80285924871776
C           44.36542722251584        6.70865726790113        1.77384905431368
C           44.40321453206334        5.34722480918302        1.53113603289586
C           46.55788110717121        2.66924659321044        0.59870388610208
C           47.74764979765591        3.25073376660595        1.14199362243770
C           48.72925073007674        2.32470782020272        1.00931862312614
N           46.79448257357181        1.37292444999673        0.20831668014483
C           48.13545187498160        1.18320294666689        0.39000997114521
C           48.86152972817586        0.10299232677236       -0.12101445474059
C           48.22279910335702       -0.99507632252308       -0.70941062833275
C           48.90911266946451       -2.07515598655738       -1.34348673168815
C           47.97993033909441       -3.02843525019832       -1.60250039495617
C           46.73222371310255       -2.53095278893526       -1.10780751988596
N           46.88367138184676       -1.24838960076715       -0.63424843235233
C           45.57764419030885       -3.28977163556344       -0.96875685687693
C           45.61411852031871       -4.72857878666077       -1.30463508990898
C           46.52434410376409       -5.58086727379001       -0.67278790508332
C           46.55327361987476       -6.92897109580944       -0.98225665771475
C           45.67683370015132       -7.45091129646992       -1.93650268810614
C           45.69011013537845       -8.88312093520957       -2.28868060492686
O           44.96079343033961       -9.37545353356276       -3.11068377600956
C           44.76793362031522       -6.59793154625236       -2.57132735662144
C           44.73380000927001       -5.25347949361682       -2.25626003219689
C           44.38894438224553       -2.73761400845253       -0.50701192273577
C           43.19562520427439       -3.48196262990054       -0.24179286751923
C           42.21507475966731       -2.57500244786832       -0.00867905107115
C           42.81208409566079       -1.28364941951959       -0.13166078094832
N           44.15469878462284       -1.39119685195851       -0.36354646075672
H           40.99878876014188        2.49178753713020       -0.70298037959142
H           42.84612776680061        4.43557152191069       -0.42126755536323
H           46.93050658749669        5.26331346139380       -0.73234957646344
H           46.85901134734435        7.70564683539969       -0.29484008303319
H           44.46321686093996        9.35259102504987        2.08575261316416
H           43.64674717614726        7.11321056699578        2.47906227189261
H           43.72450484913976        4.68320356759262        2.05447015752839
H           47.81349644184630        4.23846947394759        1.56818763587156
H           49.76683571377182        2.39896526674744        1.29168748837169
H           49.96525798469203       -2.08975444207295       -1.55857613303059
H           48.11841145825358       -3.98420110765707       -2.08105281130817
H           47.19617201946027       -5.18165875633637        0.07868530171935
H           47.25805784474468       -7.58451600761810       -0.48123101419525
H           46.43593727118579       -9.48434258963658       -1.72646840811823
H           44.09343193993315       -7.01161054834481       -3.31330222486981
H           44.03613588322060       -4.59279034125492       -2.75834633905478
H           43.12700604461576       -4.55752003803013       -0.23513332036195
H           41.17585474136579       -2.75126902935781        0.21582572158726

          :  Hamiltonian                  GFN1-xTB          :
         :: total energy            -331.094591374236 Eh    ::
         :: gradient norm              0.000781786396 Eh/a0 ::
         :: HOMO-LUMO gap              0.020885056094 eV    ::
         :: SCC energy              -336.098207256860 Eh    ::
         :: repulsion energy           5.174075480270 Eh    ::

    * Orbital Energies and Occupations

         #    Occupation            Energy/Eh            Energy/eV
      -------------------------------------------------------------
         1        2.0000           -0.7954412             -21.6451
       ...           ...                  ...                  ...
       290        2.0000           -0.4117652             -11.2047
       291        2.0000           -0.4072388             -11.0815
       292        2.0000           -0.4065378             -11.0625
       293        1.9999           -0.4048932             -11.0177
       294        1.9999           -0.4047453             -11.0137
       295        1.9999           -0.4046533             -11.0112
       296        1.9999           -0.4045434             -11.0082
       297        1.9999           -0.4040567             -10.9949
       298        1.9999           -0.4039155             -10.9911
       299        1.9989           -0.4019748             -10.9383
       300        1.7838           -0.3968532             -10.7989
       301        1.2070           -0.3951421             -10.7524
       302        1.1865           -0.3950975             -10.7512 (HOMO)
       303        0.8244           -0.3943300             -10.7303 (LUMO)
       304                         -0.3584207              -9.7531
       305                         -0.3474382              -9.4543
       306                         -0.3469615              -9.4413
       307                         -0.3464177              -9.4265
       308                         -0.3460477              -9.4164
       309                         -0.3348741              -9.1124
       310                         -0.3316885              -9.0257
       311                         -0.3302802              -8.9874
       312                         -0.3298138              -8.9747
       313                         -0.3256390              -8.8611
       ...                                ...                  ...
       635                          1.3232641              36.0078
      -------------------------------------------------------------
                  HL-Gap            0.0007675 Eh            0.0209 eV

Wiberg/Mayer (AO) data.
largest (>0.10) Wiberg bond orders for each atom

     #   Z sym  total        # sym  WBO       # sym  WBO       # sym  WBO
 ---------------------------------------------------------------------------
     1  27 Co   3.039 --    41 N    0.632     7 N    0.631    20 N    0.630
                            27 N    0.629
     2   6 C    3.922 --     3 C    1.363    40 C    1.360    42 H    0.970
     3   6 C    3.923 --     2 C    1.363     7 N    1.204     4 C    1.173
     4   6 C    3.959 --     5 C    1.648     3 C    1.173    43 H    0.975
     5   6 C    3.963 --     4 C    1.648     6 C    1.176    44 H    0.972
     6   6 C    3.921 --     8 C    1.312     7 N    1.219     5 C    1.176
     7   7 N    3.344 --     6 C    1.219     3 C    1.204     1 Co   0.631
     8   6 C    3.927 --    17 C    1.331     6 C    1.312     9 C    1.029
     9   6 C    3.986 --    16 C    1.385    10 C    1.382     8 C    1.029
    10   6 C    3.986 --    11 C    1.471     9 C    1.382    45 H    0.972
                            15 C    0.101
    11   6 C    3.988 --    10 C    1.471    12 C    1.370    46 H    0.968
                            16 C    0.101
    12   6 C    3.984 --    15 C    1.380    11 C    1.370    13 C    1.048
    13   6 C    3.864 --    14 O    1.810    12 C    1.048    47 H    0.942
    14   8 O    2.005 --    13 C    1.810
    15   6 C    3.993 --    16 C    1.464    12 C    1.380    48 H    0.971
                            10 C    0.101
    16   6 C    3.987 --    15 C    1.464     9 C    1.385    49 H    0.971
                            11 C    0.101
    17   6 C    3.916 --     8 C    1.331    20 N    1.194    18 C    1.180
    18   6 C    3.957 --    19 C    1.636    17 C    1.180    50 H    0.973
    19   6 C    3.962 --    18 C    1.636    21 C    1.190    51 H    0.971
    20   7 N    3.347 --    21 C    1.240    17 C    1.194     1 Co   0.630
    21   6 C    3.907 --    22 C    1.250    20 N    1.240    19 C    1.190
    22   6 C    3.928 --    23 C    1.256    21 C    1.250   121 C    1.195
    23   6 C    3.907 --    22 C    1.256    27 N    1.234    24 C    1.190
    24   6 C    3.961 --    25 C    1.636    23 C    1.190    52 H    0.969
    25   6 C    3.958 --    24 C    1.636    26 C    1.181    53 H    0.973
    26   6 C    3.916 --    28 C    1.325    27 N    1.200    25 C    1.181
    27   7 N    3.347 --    23 C    1.234    26 C    1.200     1 Co   0.629
    28   6 C    3.927 --    26 C    1.325    37 C    1.316    29 C    1.031
    29   6 C    3.986 --    30 C    1.384    36 C    1.381    28 C    1.031
    30   6 C    3.987 --    31 C    1.464    29 C    1.384    54 H    0.971
                            35 C    0.101
    31   6 C    3.993 --    30 C    1.464    32 C    1.380    55 H    0.971
                            36 C    0.101
    32   6 C    3.984 --    31 C    1.380    35 C    1.370    33 C    1.047
    33   6 C    3.864 --    34 O    1.810    32 C    1.047    56 H    0.942
    34   8 O    2.005 --    33 C    1.810
    35   6 C    3.988 --    36 C    1.471    32 C    1.370    57 H    0.968
                            30 C    0.101
    36   6 C    3.986 --    35 C    1.471    29 C    1.381    58 H    0.972
                            31 C    0.101
    37   6 C    3.921 --    28 C    1.316    41 N    1.216    38 C    1.175
    38   6 C    3.963 --    39 C    1.649    37 C    1.175    59 H    0.972
    39   6 C    3.959 --    38 C    1.649    40 C    1.174    60 H    0.975
    40   6 C    3.923 --     2 C    1.360    41 N    1.206    39 C    1.174
    41   7 N    3.344 --    37 C    1.216    40 C    1.206     1 Co   0.632
    42   1 H    1.000 --     2 C    0.970
    43   1 H    0.997 --     4 C    0.975
    44   1 H    1.003 --     5 C    0.972
    45   1 H    1.003 --    10 C    0.972
    46   1 H    1.005 --    11 C    0.968
    47   1 H    1.010 --    13 C    0.942
    48   1 H    1.000 --    15 C    0.971
    49   1 H    1.004 --    16 C    0.971
    50   1 H    1.003 --    18 C    0.973
    51   1 H    1.004 --    19 C    0.971
    52   1 H    1.004 --    24 C    0.969
    53   1 H    1.003 --    25 C    0.973
    54   1 H    1.004 --    30 C    0.971
    55   1 H    1.000 --    31 C    0.971
    56   1 H    1.010 --    33 C    0.942
    57   1 H    1.005 --    35 C    0.968
    58   1 H    1.003 --    36 C    0.972
    59   1 H    1.003 --    38 C    0.972
    60   1 H    0.997 --    39 C    0.975
    61  27 Co   3.055 --   101 N    0.633    67 N    0.633    80 N    0.631
                            87 N    0.631
    62   6 C    3.922 --   100 C    1.362    63 C    1.359   102 H    0.970
    63   6 C    3.923 --    62 C    1.359    67 N    1.206    64 C    1.174
    64   6 C    3.959 --    65 C    1.648    63 C    1.174   103 H    0.975
    65   6 C    3.963 --    64 C    1.648    66 C    1.176   104 H    0.972
    66   6 C    3.921 --    68 C    1.315    67 N    1.216    65 C    1.176
    67   7 N    3.345 --    66 C    1.216    63 C    1.206    61 Co   0.633
    68   6 C    3.927 --    77 C    1.325    66 C    1.315    69 C    1.031
    69   6 C    3.986 --    76 C    1.384    70 C    1.381    68 C    1.031
    70   6 C    3.986 --    71 C    1.471    69 C    1.381   105 H    0.972
                            75 C    0.101
    71   6 C    3.988 --    70 C    1.471    72 C    1.370   106 H    0.968
                            76 C    0.101
    72   6 C    3.984 --    75 C    1.380    71 C    1.370    73 C    1.048
    73   6 C    3.864 --    74 O    1.810    72 C    1.048   107 H    0.942
    74   8 O    2.005 --    73 C    1.810
    75   6 C    3.993 --    76 C    1.464    72 C    1.380   108 H    0.971
                            70 C    0.101
    76   6 C    3.987 --    75 C    1.464    69 C    1.384   109 H    0.971
                            71 C    0.101
    77   6 C    3.916 --    68 C    1.325    80 N    1.198    78 C    1.181
    78   6 C    3.958 --    79 C    1.635    77 C    1.181   110 H    0.974
    79   6 C    3.962 --    78 C    1.635    81 C    1.190   111 H    0.971
    80   7 N    3.348 --    81 C    1.236    77 C    1.198    61 Co   0.631
    81   6 C    3.907 --    82 C    1.252    80 N    1.236    79 C    1.190
    82   6 C    3.927 --    81 C    1.252    83 C    1.252   124 C    1.196
    83   6 C    3.908 --    82 C    1.252    87 N    1.238    84 C    1.190
    84   6 C    3.962 --    85 C    1.636    83 C    1.190   112 H    0.970
    85   6 C    3.958 --    84 C    1.636    86 C    1.180   113 H    0.973
    86   6 C    3.916 --    88 C    1.330    87 N    1.195    85 C    1.180
    87   7 N    3.347 --    83 C    1.238    86 C    1.195    61 Co   0.631
    88   6 C    3.927 --    86 C    1.330    97 C    1.312    89 C    1.030
    89   6 C    3.986 --    90 C    1.385    96 C    1.382    88 C    1.030
    90   6 C    3.987 --    91 C    1.463    89 C    1.385   114 H    0.971
                            95 C    0.101
    91   6 C    3.993 --    90 C    1.463    92 C    1.380   115 H    0.971
                            96 C    0.101
    92   6 C    3.984 --    91 C    1.380    95 C    1.370    93 C    1.047
    93   6 C    3.864 --    94 O    1.810    92 C    1.047   116 H    0.942
    94   8 O    2.006 --    93 C    1.810
    95   6 C    3.988 --    96 C    1.471    92 C    1.370   117 H    0.967
                            90 C    0.101
    96   6 C    3.986 --    95 C    1.471    89 C    1.382   118 H    0.972
                            91 C    0.101
    97   6 C    3.921 --    88 C    1.312   101 N    1.219    98 C    1.176
    98   6 C    3.963 --    99 C    1.648    97 C    1.176   119 H    0.972
    99   6 C    3.959 --    98 C    1.648   100 C    1.173   120 H    0.975
   100   6 C    3.923 --    62 C    1.362   101 N    1.203    99 C    1.173
   101   7 N    3.345 --    97 C    1.219   100 C    1.203    61 Co   0.633
   102   1 H    1.000 --    62 C    0.970
   103   1 H    0.997 --    64 C    0.975
   104   1 H    1.003 --    65 C    0.972
   105   1 H    1.003 --    70 C    0.972
   106   1 H    1.005 --    71 C    0.968
   107   1 H    1.010 --    73 C    0.942
   108   1 H    1.000 --    75 C    0.971
   109   1 H    1.004 --    76 C    0.971
   110   1 H    1.003 --    78 C    0.974
   111   1 H    1.004 --    79 C    0.971
   112   1 H    1.004 --    84 C    0.970
   113   1 H    1.002 --    85 C    0.973
   114   1 H    1.004 --    90 C    0.971
   115   1 H    1.000 --    91 C    0.971
   116   1 H    1.010 --    93 C    0.942
   117   1 H    1.004 --    95 C    0.967
   118   1 H    1.003 --    96 C    0.972
   119   1 H    1.003 --    98 C    0.972
   120   1 H    0.997 --    99 C    0.975
   121   6 C    3.927 --   122 C    2.554    22 C    1.195
   122   6 C    3.926 --   121 C    2.554   126 C    1.194
   123   6 C    3.925 --   124 C    2.553   146 C    1.194
   124   6 C    3.928 --   123 C    2.553    82 C    1.196
   125  27 Co   3.007 --   165 N    0.625   144 N    0.624   151 N    0.624
                           131 N    0.624
   126   6 C    3.916 --   164 C    1.258   127 C    1.250   122 C    1.194
   127   6 C    3.907 --   126 C    1.250   131 N    1.236   128 C    1.194
   128   6 C    3.959 --   129 C    1.630   127 C    1.194   166 H    0.971
   129   6 C    3.958 --   128 C    1.630   130 C    1.185   167 H    0.973
   130   6 C    3.915 --   132 C    1.321   131 N    1.196   129 C    1.185
   131   7 N    3.334 --   127 C    1.236   130 C    1.196   125 Co   0.624
   132   6 C    3.920 --   130 C    1.321   141 C    1.318   133 C    1.039
   133   6 C    3.986 --   140 C    1.381   134 C    1.378   132 C    1.039
   134   6 C    3.985 --   135 C    1.471   133 C    1.378   168 H    0.971
   135   6 C    3.988 --   134 C    1.471   136 C    1.370   169 H    0.968
                           140 C    0.100
   136   6 C    3.982 --   139 C    1.379   135 C    1.370   137 C    1.047
   137   6 C    3.863 --   138 O    1.810   136 C    1.047   170 H    0.942
   138   8 O    2.005 --   137 C    1.810
   139   6 C    3.993 --   140 C    1.465   136 C    1.379   171 H    0.971
   140   6 C    3.985 --   139 C    1.465   133 C    1.381   172 H    0.971
                           135 C    0.100
   141   6 C    3.915 --   132 C    1.318   144 N    1.200   142 C    1.185
   142   6 C    3.959 --   143 C    1.632   141 C    1.185   173 H    0.973
   143   6 C    3.959 --   142 C    1.632   145 C    1.192   174 H    0.970
   144   7 N    3.334 --   145 C    1.231   141 C    1.200   125 Co   0.624
   145   6 C    3.908 --   146 C    1.258   144 N    1.231   143 C    1.192
   146   6 C    3.915 --   145 C    1.258   147 C    1.250   123 C    1.194
   147   6 C    3.907 --   146 C    1.250   151 N    1.237   148 C    1.193
   148   6 C    3.959 --   149 C    1.631   147 C    1.193   175 H    0.971
   149   6 C    3.958 --   148 C    1.631   150 C    1.184   176 H    0.973
   150   6 C    3.915 --   152 C    1.323   151 N    1.195   149 C    1.184
   151   7 N    3.334 --   147 C    1.237   150 C    1.195   125 Co   0.624
   152   6 C    3.920 --   150 C    1.323   161 C    1.317   153 C    1.038
   153   6 C    3.986 --   154 C    1.381   160 C    1.378   152 C    1.038
   154   6 C    3.985 --   155 C    1.465   153 C    1.381   177 H    0.971
                           159 C    0.100
   155   6 C    3.993 --   154 C    1.465   156 C    1.379   178 H    0.971
   156   6 C    3.982 --   155 C    1.379   159 C    1.370   157 C    1.047
   157   6 C    3.863 --   158 O    1.810   156 C    1.047   179 H    0.942
   158   8 O    2.005 --   157 C    1.810
   159   6 C    3.988 --   160 C    1.471   156 C    1.370   180 H    0.968
                           154 C    0.100
   160   6 C    3.985 --   159 C    1.471   153 C    1.378   181 H    0.971
   161   6 C    3.915 --   152 C    1.317   165 N    1.200   162 C    1.185
   162   6 C    3.959 --   163 C    1.632   161 C    1.185   182 H    0.973
   163   6 C    3.959 --   162 C    1.632   164 C    1.192   183 H    0.969
   164   6 C    3.908 --   126 C    1.258   165 N    1.230   163 C    1.192
   165   7 N    3.334 --   164 C    1.230   161 C    1.200   125 Co   0.625
   166   1 H    1.004 --   128 C    0.971
   167   1 H    1.003 --   129 C    0.973
   168   1 H    1.004 --   134 C    0.971
   169   1 H    1.005 --   135 C    0.968
   170   1 H    1.010 --   137 C    0.942
   171   1 H    1.000 --   139 C    0.971
   172   1 H    1.004 --   140 C    0.971
   173   1 H    1.003 --   142 C    0.973
   174   1 H    1.004 --   143 C    0.970
   175   1 H    1.003 --   148 C    0.971
   176   1 H    1.003 --   149 C    0.973
   177   1 H    1.004 --   154 C    0.971
   178   1 H    1.000 --   155 C    0.971
   179   1 H    1.010 --   157 C    0.942
   180   1 H    1.005 --   159 C    0.968
   181   1 H    1.004 --   160 C    0.971
   182   1 H    1.003 --   162 C    0.973
   183   1 H    1.004 --   163 C    0.969
 ---------------------------------------------------------------------------

           -------------------------------------------------
          | TOTAL ENERGY             -331.094591374236 Eh   |
          | GRADIENT NORM               0.000781786396 Eh/α |
          | HOMO-LUMO GAP               0.020885056094 eV   |
           -------------------------------------------------

 * finished run on 2022/07/29 at 22:11:57.330
