   * xtb version 6.5.1 (b24c23e) compiled by 'conda@728c89f4b128' on 2022-07-12
          program call               : xtb Zn_PhNO2_C6_2.xyz --gfn 1 --opt -T 48

   ID    Z sym.   atoms
    1   30 Zn     1, 61
    2    6 C      2-6, 8-12, 16-20, 22-27, 29-33, 37-42, 62-66, 68-72, 76-80,
                  82-87, 89-93, 97-102, 121-126
    3    7 N      7, 13, 21, 28, 34, 43, 67, 73, 81, 88, 94, 103
    4    8 O      14, 15, 35, 36, 74, 75, 95, 96
    5    1 H      44-60, 104-120
########################################################################
[WARNING] Please study the warnings concerning your input carefully
-1- prog_main_parseArguments: Unknown option '-T' provided
########################################################################

          :  Hamiltonian                  GFN1-xTB          :
 * total energy  :  -242.9040264 Eh     change       -0.3140030E-09 Eh
 * total energy  :  -243.0602728 Eh     change       -0.1562464E+00 Eh
 * total energy  :  -243.1320712 Eh     change       -0.7179838E-01 Eh
 * total energy  :  -243.1485053 Eh     change       -0.1643414E-01 Eh
 * total energy  :  -243.1576180 Eh     change       -0.9112695E-02 Eh
 * total energy  :  -243.1614799 Eh     change       -0.3861918E-02 Eh
 * total energy  :  -243.1660954 Eh     change       -0.4615484E-02 Eh
 * total energy  :  -243.1685969 Eh     change       -0.2501430E-02 Eh
 * total energy  :  -243.1703146 Eh     change       -0.1717791E-02 Eh
 * total energy  :  -243.1718123 Eh     change       -0.1497609E-02 Eh
 * total energy  :  -243.1760972 Eh     change       -0.1685856E-04 Eh
 * total energy  :  -243.1761085 Eh     change       -0.1128328E-04 Eh
 * total energy  :  -243.1761197 Eh     change       -0.1116090E-04 Eh
 * total energy  :  -243.1761209 Eh     change       -0.1250623E-05 Eh
 * total energy  :  -243.1761302 Eh     change       -0.9316284E-05 Eh
 * total energy  :  -243.1761354 Eh     change       -0.5205307E-05 Eh
 * total energy  :  -243.1761408 Eh     change       -0.5331289E-05 Eh
 * total energy  :  -243.1761434 Eh     change       -0.2625157E-05 Eh
 * total energy  :  -243.1761454 Eh     change       -0.2015820E-05 Eh
   *** GEOMETRY OPTIMIZATION CONVERGED AFTER 39 ITERATIONS ***

 final structure:
================
126
 xtb: 6.5.1 (b24c23e)
Zn          14.64251584569850       -0.03064869417687       -0.01300175783751
C           11.23699853469722       -0.04540255080795       -0.14930699081808
C           11.86789484532221       -1.27024429030985       -0.32855563063258
C           11.19443892142444       -2.52264735083175       -0.53141436764119
C           12.15354496163577       -3.47212286056637       -0.66318649788156
C           13.42637866560927       -2.80813197714132       -0.55451688975284
N           13.21759304568413       -1.47774503615164       -0.34143085461816
C           14.67930579542372       -3.43085593274060       -0.62417762319560
C           14.69621834120249       -4.88882069195973       -0.88771552023432
C           15.26321063778301       -5.76878978131831        0.03992203085363
C           15.28257193039262       -7.13013866476885       -0.20137764656890
C           14.73360699452782       -7.61805573076708       -1.38415580337725
N           14.75376745790496       -9.04565439429729       -1.64420872913813
O           14.26161558147687       -9.43263163570604       -2.67352185001315
O           15.26327155458017       -9.75683704132325       -0.81597321113450
C           14.16564154595123       -6.75969477766939       -2.32163328567766
C           14.14742324909473       -5.40050259656908       -2.06802129023145
C           15.91814946917094       -2.79669456380164       -0.47005395144441
C           17.20000458972490       -3.43277717137641       -0.60409416578057
C           18.14292555541347       -2.47792922705014       -0.40154280510126
N           16.10684650286252       -1.46746398601816       -0.20482765960503
C           17.44831414965595       -1.24890961225903       -0.15271501707012
C           18.07650176736286       -0.01392309231780        0.10559654511372
C           17.42056358313305        1.21356377891871        0.32659439991618
C           18.08357683935196        2.44846895891052        0.62624246074024
C           17.11899217444940        3.39313702159302        0.76582002187173
C           15.85605791090422        2.74482082342367        0.54135903888988
N           16.07628612962027        1.41803243076445        0.28788919368480
C           14.60305501573979        3.36659358370762        0.60458237832711
C           14.58295605159602        4.82381129889074        0.87297404505425
C           13.94112397204646        5.32291779957701        2.01110630572704
C           13.91817022149834        6.68136144169101        2.26801032758767
C           14.53822435815306        7.55181938575022        1.37568882193199
N           14.51372814479210        8.97893908190852        1.63813834487760
O           13.94785252144136        9.35381405542445        2.63357685028275
O           15.06122243808286        9.70197928130658        0.84525813611875
C           15.18048458826510        7.07645028723086        0.23556540521762
C           15.20210587971984        5.71555917797518       -0.00874078924042
C           13.36477379843304        2.73321120929633        0.43636939887401
C           12.08186170627345        3.38660962794272        0.44537850894159
C           11.14418626331439        2.43028545975286        0.23331360173300
C           11.84175716692079        1.18397911310179        0.08145461087859
N           13.18445574280204        1.40205754518664        0.20312611376232
H           10.15237778517952       -0.04955150663989       -0.19344155624622
H           10.12356662376176       -2.64856761692707       -0.55857870197509
H           12.01520528801402       -4.53156382624674       -0.80792897423761
H           15.67567735059236       -5.37817396054746        0.96292854337133
H           15.71475837588007       -7.81906659560833        0.51437304855783
H           13.74911389748553       -7.16366028772365       -3.23652085171387
H           13.72088735410268       -4.72117171830735       -2.79687126389259
H           17.35854372419689       -4.47299061412940       -0.83847002387849
H           19.21533527173484       -2.58742821656629       -0.42476704609743
H           19.15075962114619        2.56803608507945        0.72402712734379
H           17.24979571660767        4.43442801469220        1.01234925732333
H           13.47282365841420        4.63446991210315        2.70493396718873
H           13.42866999217583        7.07573347560270        3.15039984237094
H           15.65173951923995        7.77468521472038       -0.44568338410069
H           15.68722973728882        5.33480233716228       -0.89999959727741
H           11.92355738567079        4.44422780620947        0.58273090850761
H           10.07363003401367        2.54797184752106        0.17459743616907
Zn          30.68540359498917        0.03287590409384       -0.00117944357075
C           34.09099512723017        0.09688362072491       -0.11927018724235
C           33.46017052086335        1.29953575931179        0.17409645989964
C           34.13368020348994        2.53629911303994        0.45690946841899
C           33.17458450710028        3.46621004493575        0.68963583568967
C           31.90171860506834        2.81039157503169        0.53959402129167
N           32.11044632610757        1.49716248854658        0.23832669608681
C           30.64875888545621        3.41421214394945        0.70690616304679
C           30.63193945018000        4.86455754766249        1.00945434275888
C           30.06282446804134        5.33247835100529        2.19836814121232
C           30.04347376061851        6.68492164181898        2.48537428385399
C           30.59453141291482        7.58073178784864        1.57309284062711
N           30.57374556292747        9.00165779313398        1.86727995747175
O           31.06768819226892        9.74635973201310        1.05926675210590
O           30.06473462331285        9.35015392495522        2.90207273333288
C           31.16481456189446        7.13652342785435        0.38325706086400
C           31.18296441963852        5.78145960802095        0.10844931700669
C           29.40982553618160        2.76884487629141        0.61075292669841
C           28.12799590661141        3.40907925215427        0.72356644267128
C           27.18502559347727        2.44797950404187        0.55333096558392
N           29.22104920131020        1.43699906615416        0.35906100519977
C           27.87955566918727        1.21487958294811        0.32558784407942
C           27.25141887588805       -0.02725403452814        0.10404875390869
C           27.90738659638188       -1.24808656099423       -0.15108209130533
C           27.24430496616059       -2.50536569878432       -0.33563567362176
C           28.20882768399964       -3.43348172137316       -0.56050718179530
C           29.47168429293937       -2.74803743535451       -0.52736855034884
N           29.25154533922537       -1.42290184788129       -0.26533404025020
C           30.72460877544271       -3.34800846525874       -0.70309514460298
C           30.74465398135790       -4.79955032323509       -1.00043017984414
C           31.38892870483412       -5.68841639370655       -0.13368314562963
C           31.41193319278093       -7.04414870954102       -0.40448304230958
C           30.78920625150034       -7.51724969413612       -1.55631004973118
N           30.81335582423974       -8.93885753862209       -1.84737672060628
O           31.38275292108839       -9.65879127600169       -1.06716895476795
O           30.26395548814873       -9.31234351091370       -2.85242505807881
C           30.14440798015347       -6.64968182682518       -2.43378714266619
C           30.12294119673922       -5.29636939469014       -2.15050995808119
C           31.96288737270956       -2.69764468154568       -0.62218378800722
C           33.24572117735327       -3.30652147756827       -0.85983544655232
C           34.18351572973278       -2.34081438839183       -0.69637596928228
C           33.48607029100162       -1.12885866891815       -0.36826524138494
N           32.14332887712435       -1.37647111366221       -0.33783956719051
H           35.17566237767572        0.11695498389864       -0.15747857150866
H           35.20456024067481        2.66288658759782        0.48043592210892
H           33.31300565123748        4.50252949360028        0.95303849018479
H           29.64866033854415        4.62428284757995        2.90658639891839
H           29.60955468954005        7.05518617485632        3.40642136638086
H           31.58307749694363        7.85402844949400       -0.31240791124066
H           31.61113543867516        5.42502044342580       -0.82121368669492
H           27.96951279789966        4.46144373720337        0.89540595728707
H           26.11262150231896        2.55837785851568        0.57206703295432
H           26.17719193973461       -2.65299990280818       -0.28854663308766
H           28.07800993570609       -4.49141157257510       -0.72121335537058
H           31.85906140402469       -5.30981131895586        0.76648640590989
H           31.90332500441994       -7.74014851346892        0.26476768200375
H           29.67116616542929       -7.04210141368392       -3.32585374029625
H           29.63588702249579       -4.60970333764360       -2.83310898831553
H           33.40390130117321       -4.33804276551759       -1.13081763756941
H           35.25406618373793       -2.42787204061457       -0.79500231471845
C           23.27804452143137       -0.03906922827236        0.16518145520012
C           22.04985913491493       -0.02537136566952        0.16719451468407
C           20.70548908103168       -0.01538242429501        0.15849810496107
C           19.48167681772218       -0.00992343546546        0.14164236741986
C           24.62243672433102       -0.04462535146228        0.15297904106707
C           25.84616679793469       -0.04453794209794        0.13270472995574

          :  Hamiltonian                  GFN1-xTB          :
         :: total energy            -243.176145420960 Eh    ::
         :: gradient norm              0.000783317512 Eh/a0 ::
         :: HOMO-LUMO gap              1.133534399485 eV    ::
         :: SCC energy              -246.622064074992 Eh    ::
         :: repulsion energy           3.557583480277 Eh    ::

    * Orbital Energies and Occupations

         #    Occupation            Energy/Eh            Energy/eV
      -------------------------------------------------------------
         1        2.0000           -0.9207410             -25.0546
       ...           ...                  ...                  ...
       201        2.0000           -0.4442607             -12.0889
       202        2.0000           -0.4442576             -12.0889
       203        2.0000           -0.4440503             -12.0832
       204        2.0000           -0.4439622             -12.0808
       205        2.0000           -0.4435425             -12.0694
       206        2.0000           -0.4435414             -12.0694
       207        2.0000           -0.4433639             -12.0645
       208        2.0000           -0.4376234             -11.9083
       209        2.0000           -0.4308547             -11.7242
       210        2.0000           -0.4162391             -11.3264
       211        2.0000           -0.4162388             -11.3264
       212        2.0000           -0.4110872             -11.1863
       213        2.0000           -0.4002953             -10.8926 (HOMO)
       214                         -0.3586387              -9.7591 (LUMO)
       215                         -0.3559719              -9.6865
       216                         -0.3559587              -9.6861
       217                         -0.3474638              -9.4550
       218                         -0.3474401              -9.4543
       219                         -0.3466427              -9.4326
       220                         -0.3405193              -9.2660
       221                         -0.3404961              -9.2654
       222                         -0.3181769              -8.6580
       223                         -0.3109156              -8.4604
       224                         -0.3022273              -8.2240
       ...                                ...                  ...
       436                          1.5622374              42.5106
      -------------------------------------------------------------
                  HL-Gap            0.0416566 Eh            1.1335 eV

Wiberg/Mayer (AO) data.
largest (>0.10) Wiberg bond orders for each atom

     #   Z sym  total        # sym  WBO       # sym  WBO       # sym  WBO
 ---------------------------------------------------------------------------
     1  30 Zn   1.990 --    43 N    0.459     7 N    0.458    28 N    0.454
                            21 N    0.454
     2   6 C    3.929 --    42 C    1.358     3 C    1.358    44 H    0.971
     3   6 C    3.919 --     2 C    1.358     7 N    1.232     4 C    1.169
     4   6 C    3.960 --     5 C    1.661     3 C    1.169    45 H    0.975
     5   6 C    3.963 --     4 C    1.661     6 C    1.170    46 H    0.973
     6   6 C    3.919 --     8 C    1.311     7 N    1.247     5 C    1.170
     7   7 N    3.293 --     6 C    1.247     3 C    1.232     1 Zn   0.458
     8   6 C    3.930 --    18 C    1.318     6 C    1.311     9 C    1.036
     9   6 C    3.983 --    17 C    1.382    10 C    1.382     8 C    1.036
    10   6 C    3.986 --    11 C    1.465     9 C    1.382    47 H    0.971
                            16 C    0.101
    11   6 C    3.987 --    10 C    1.465    12 C    1.385    48 H    0.965
                            17 C    0.101
    12   6 C    3.939 --    16 C    1.386    11 C    1.385    13 N    0.923
    13   7 N    3.865 --    15 O    1.453    14 O    1.453    12 C    0.923
    14   8 O    1.827 --    13 N    1.453    15 O    0.251
    15   8 O    1.827 --    13 N    1.453    14 O    0.251
    16   6 C    3.987 --    17 C    1.465    12 C    1.386    49 H    0.965
                            10 C    0.101
    17   6 C    3.986 --    16 C    1.465     9 C    1.382    50 H    0.971
                            11 C    0.101
    18   6 C    3.912 --     8 C    1.318    21 N    1.229    19 C    1.177
    19   6 C    3.959 --    20 C    1.647    18 C    1.177    51 H    0.973
    20   6 C    3.961 --    19 C    1.647    22 C    1.185    52 H    0.974
    21   7 N    3.296 --    22 C    1.261    18 C    1.229     1 Zn   0.454
    22   6 C    3.899 --    21 N    1.261    23 C    1.254    20 C    1.185
    23   6 C    3.940 --    24 C    1.255    22 C    1.254   124 C    1.191
    24   6 C    3.899 --    28 N    1.261    23 C    1.255    25 C    1.185
    25   6 C    3.961 --    26 C    1.647    24 C    1.185    53 H    0.974
    26   6 C    3.959 --    25 C    1.647    27 C    1.177    54 H    0.973
    27   6 C    3.912 --    29 C    1.318    28 N    1.229    26 C    1.177
    28   7 N    3.296 --    24 C    1.261    27 C    1.229     1 Zn   0.454
    29   6 C    3.930 --    27 C    1.318    39 C    1.311    30 C    1.036
    30   6 C    3.983 --    38 C    1.382    31 C    1.382    29 C    1.036
    31   6 C    3.986 --    32 C    1.465    30 C    1.382    55 H    0.971
                            37 C    0.101
    32   6 C    3.987 --    31 C    1.465    33 C    1.385    56 H    0.965
                            38 C    0.101
    33   6 C    3.940 --    37 C    1.386    32 C    1.385    34 N    0.923
    34   7 N    3.865 --    36 O    1.453    35 O    1.453    33 C    0.923
    35   8 O    1.827 --    34 N    1.453    36 O    0.251
    36   8 O    1.827 --    34 N    1.453    35 O    0.251
    37   6 C    3.987 --    38 C    1.465    33 C    1.386    57 H    0.965
                            31 C    0.101
    38   6 C    3.986 --    37 C    1.465    30 C    1.382    58 H    0.971
                            32 C    0.101
    39   6 C    3.919 --    29 C    1.311    43 N    1.247    40 C    1.170
    40   6 C    3.963 --    41 C    1.661    39 C    1.170    59 H    0.973
    41   6 C    3.960 --    40 C    1.661    42 C    1.169    60 H    0.975
    42   6 C    3.919 --     2 C    1.358    43 N    1.231    41 C    1.169
    43   7 N    3.293 --    39 C    1.247    42 C    1.231     1 Zn   0.459
    44   1 H    1.001 --     2 C    0.971
    45   1 H    0.997 --     4 C    0.975
    46   1 H    1.003 --     5 C    0.973
    47   1 H    1.004 --    10 C    0.971
    48   1 H    1.006 --    11 C    0.965
    49   1 H    1.006 --    16 C    0.965
    50   1 H    1.004 --    17 C    0.971
    51   1 H    1.003 --    19 C    0.973
    52   1 H    1.002 --    20 C    0.974
    53   1 H    1.002 --    25 C    0.974
    54   1 H    1.003 --    26 C    0.973
    55   1 H    1.004 --    31 C    0.971
    56   1 H    1.006 --    32 C    0.965
    57   1 H    1.006 --    37 C    0.965
    58   1 H    1.004 --    38 C    0.971
    59   1 H    1.003 --    40 C    0.973
    60   1 H    0.997 --    41 C    0.975
    61  30 Zn   1.990 --   103 N    0.459    67 N    0.458    88 N    0.454
                            81 N    0.454
    62   6 C    3.929 --   102 C    1.358    63 C    1.358   104 H    0.971
    63   6 C    3.919 --    62 C    1.358    67 N    1.232    64 C    1.169
    64   6 C    3.960 --    65 C    1.661    63 C    1.169   105 H    0.975
    65   6 C    3.963 --    64 C    1.661    66 C    1.170   106 H    0.973
    66   6 C    3.919 --    68 C    1.311    67 N    1.248    65 C    1.170
    67   7 N    3.293 --    66 C    1.248    63 C    1.232    61 Zn   0.458
    68   6 C    3.930 --    78 C    1.318    66 C    1.311    69 C    1.036
    69   6 C    3.983 --    77 C    1.382    70 C    1.381    68 C    1.036
    70   6 C    3.986 --    71 C    1.465    69 C    1.381   107 H    0.971
                            76 C    0.101
    71   6 C    3.987 --    70 C    1.465    72 C    1.385   108 H    0.965
                            77 C    0.101
    72   6 C    3.939 --    76 C    1.386    71 C    1.385    73 N    0.923
    73   7 N    3.865 --    75 O    1.453    74 O    1.453    72 C    0.923
    74   8 O    1.827 --    73 N    1.453    75 O    0.251
    75   8 O    1.827 --    73 N    1.453    74 O    0.251
    76   6 C    3.987 --    77 C    1.465    72 C    1.386   109 H    0.965
                            70 C    0.101
    77   6 C    3.986 --    76 C    1.465    69 C    1.382   110 H    0.971
                            71 C    0.101
    78   6 C    3.912 --    68 C    1.318    81 N    1.229    79 C    1.177
    79   6 C    3.959 --    80 C    1.647    78 C    1.177   111 H    0.973
    80   6 C    3.961 --    79 C    1.647    82 C    1.185   112 H    0.974
    81   7 N    3.296 --    82 C    1.261    78 C    1.229    61 Zn   0.454
    82   6 C    3.899 --    81 N    1.261    83 C    1.254    80 C    1.185
    83   6 C    3.940 --    84 C    1.255    82 C    1.254   126 C    1.191
    84   6 C    3.899 --    88 N    1.261    83 C    1.255    85 C    1.185
    85   6 C    3.961 --    86 C    1.647    84 C    1.185   113 H    0.974
    86   6 C    3.959 --    85 C    1.647    87 C    1.177   114 H    0.973
    87   6 C    3.912 --    89 C    1.318    88 N    1.229    86 C    1.177
    88   7 N    3.296 --    84 C    1.261    87 C    1.229    61 Zn   0.454
    89   6 C    3.930 --    87 C    1.318    99 C    1.311    90 C    1.036
    90   6 C    3.983 --    98 C    1.382    91 C    1.382    89 C    1.036
    91   6 C    3.986 --    92 C    1.465    90 C    1.382   115 H    0.971
                            97 C    0.101
    92   6 C    3.987 --    91 C    1.465    93 C    1.385   116 H    0.965
                            98 C    0.101
    93   6 C    3.940 --    97 C    1.386    92 C    1.385    94 N    0.922
    94   7 N    3.865 --    95 O    1.453    96 O    1.453    93 C    0.922
    95   8 O    1.827 --    94 N    1.453    96 O    0.251
    96   8 O    1.827 --    94 N    1.453    95 O    0.251
    97   6 C    3.987 --    98 C    1.465    93 C    1.386   117 H    0.965
                            91 C    0.101
    98   6 C    3.986 --    97 C    1.465    90 C    1.382   118 H    0.971
                            92 C    0.101
    99   6 C    3.919 --    89 C    1.311   103 N    1.247   100 C    1.170
   100   6 C    3.963 --   101 C    1.661    99 C    1.170   119 H    0.973
   101   6 C    3.960 --   100 C    1.661   102 C    1.169   120 H    0.975
   102   6 C    3.919 --    62 C    1.358   103 N    1.231   101 C    1.169
   103   7 N    3.293 --    99 C    1.247   102 C    1.231    61 Zn   0.459
   104   1 H    1.001 --    62 C    0.971
   105   1 H    0.997 --    64 C    0.975
   106   1 H    1.003 --    65 C    0.973
   107   1 H    1.004 --    70 C    0.971
   108   1 H    1.006 --    71 C    0.965
   109   1 H    1.006 --    76 C    0.965
   110   1 H    1.004 --    77 C    0.971
   111   1 H    1.003 --    79 C    0.973
   112   1 H    1.002 --    80 C    0.974
   113   1 H    1.002 --    85 C    0.974
   114   1 H    1.003 --    86 C    0.973
   115   1 H    1.004 --    91 C    0.971
   116   1 H    1.006 --    92 C    0.965
   117   1 H    1.006 --    97 C    0.965
   118   1 H    1.004 --    98 C    0.971
   119   1 H    1.003 --   100 C    0.973
   120   1 H    0.997 --   101 C    0.975
   121   6 C    3.926 --   122 C    2.369   125 C    1.334   124 C    0.190
   122   6 C    3.926 --   121 C    2.369   123 C    1.334   126 C    0.190
   123   6 C    3.934 --   124 C    2.450   122 C    1.334
   124   6 C    3.891 --   123 C    2.450    23 C    1.191   121 C    0.190
   125   6 C    3.934 --   126 C    2.450   121 C    1.334
   126   6 C    3.891 --   125 C    2.450    83 C    1.191   122 C    0.190
 ---------------------------------------------------------------------------

           -------------------------------------------------
          | TOTAL ENERGY             -243.176145420960 Eh   |
          | GRADIENT NORM               0.000783317512 Eh/α |
          | HOMO-LUMO GAP               1.133534399485 eV   |
           -------------------------------------------------

 * finished run on 2022/07/30 at 10:12:22.007
