   * xtb version 6.5.1 (b24c23e) compiled by 'conda@728c89f4b128' on 2022-07-12
          program call               : xtb Ni_Ph3Me_C6_2.xyz --gfn 1 --opt -T 48

   ID    Z sym.   atoms
    1   28 Ni     1, 75
    2    6 C      2-6, 8-20, 22-27, 29-42, 76-80, 82-94, 96-101, 103-116,
                  149-154
    3    7 N      7, 21, 28, 43, 81, 95, 102, 117
    4    1 H      44-74, 118-148
########################################################################
[WARNING] Please study the warnings concerning your input carefully
-1- prog_main_parseArguments: Unknown option '-T' provided
########################################################################

          :  Hamiltonian                  GFN1-xTB          :
 * total energy  :  -240.4295837 Eh     change       -0.1171031E-08 Eh
 * total energy  :  -240.5159378 Eh     change       -0.8635415E-01 Eh
 * total energy  :  -240.5583240 Eh     change       -0.4238621E-01 Eh
 * total energy  :  -240.5684328 Eh     change       -0.1010875E-01 Eh
 * total energy  :  -240.5742630 Eh     change       -0.5830249E-02 Eh
 * total energy  :  -240.5772294 Eh     change       -0.2966331E-02 Eh
 * total energy  :  -240.5792396 Eh     change       -0.2010215E-02 Eh
 * total energy  :  -240.5802197 Eh     change       -0.9801614E-03 Eh
 * total energy  :  -240.5810756 Eh     change       -0.8559201E-03 Eh
 * total energy  :  -240.5814198 Eh     change       -0.3441852E-03 Eh
 * total energy  :  -240.5826479 Eh     change       -0.1203331E-04 Eh
 * total energy  :  -240.5826583 Eh     change       -0.1045843E-04 Eh
 * total energy  :  -240.5826691 Eh     change       -0.1073583E-04 Eh
 * total energy  :  -240.5826810 Eh     change       -0.1189982E-04 Eh
 * total energy  :  -240.5826918 Eh     change       -0.1081365E-04 Eh
 * total energy  :  -240.5827003 Eh     change       -0.8509160E-05 Eh
 * total energy  :  -240.5827077 Eh     change       -0.7427448E-05 Eh
 * total energy  :  -240.5827142 Eh     change       -0.6505876E-05 Eh
 * total energy  :  -240.5827192 Eh     change       -0.4968278E-05 Eh
   *** GEOMETRY OPTIMIZATION CONVERGED AFTER 38 ITERATIONS ***

 final structure:
================
154
 xtb: 6.5.1 (b24c23e)
Ni          14.50249914721291        0.04641372558303        0.01604975093310
C           11.10171084086254        0.12183718817973       -0.04046374003479
C           11.76474363505846        1.20207662462063        0.50394489629356
C           11.09822938065324        2.34571954403085        1.04940819795320
C           12.06490160388110        3.21026325265565        1.43749375281698
C           13.32055072308313        2.59340623806115        1.12608394451564
N           13.12724142237949        1.35433690294043        0.56823131859798
C           14.54656117753477        3.20717363817584        1.33163885330902
C           14.57043419686285        4.58798083594654        1.89198464377063
C           14.46605796292961        5.68692098092485        1.03431113246949
C           14.32713736882845        5.47204638127464       -0.44929615254203
C           14.49496469413777        6.97158304920258        1.56396846774021
C           14.62532777915684        7.17719023880951        2.93355195140831
C           14.67802291278390        8.57328972963972        3.49277199520674
C           14.72932167441968        6.07602066625863        3.77729171886857
C           14.70339924544531        4.78227601809889        3.26977867991253
C           14.82022026836659        3.59549578673605        4.18871132009838
C           15.75378549124020        2.59815285695731        1.02891280533983
C           17.02338631410920        3.22847282359350        1.22698709884187
C           17.96695878662874        2.32439571652217        0.87044886063445
N           15.91748682419944        1.32144186163525        0.54022758456924
C           17.27113501603467        1.14732793930838        0.45563175207860
C           17.92336282436070       -0.02309012163247        0.05762363925296
C           17.23479703513998       -1.16824585201015       -0.35148980700025
C           17.89203685133095       -2.37466810371111       -0.74398885474318
C           16.92117980001306       -3.24247581314984       -1.11755795728954
C           15.67377088166738       -2.55985801055766       -0.95435738830255
N           15.87743950481132       -1.28838910562433       -0.46692924393502
C           14.45069897866478       -3.11772749575203       -1.29061273168028
C           14.42886545289035       -4.49871640731043       -1.85071252603620
C           14.60674991216421       -4.69954655374741       -3.22313337729099
C           14.82331066276142       -3.52040094029579       -4.13381233041497
C           14.58527932386687       -5.99218711272727       -3.73166547033045
C           14.39103322856765       -7.08737875761309       -2.89451168639905
C           14.36216061834956       -8.47810122715253       -3.46885620727242
C           14.21615390646755       -6.87558789444511       -1.53183424473201
C           14.23329174650431       -5.59049754936920       -1.00076494763036
C           14.04657217757502       -5.36914556132763        0.47663969513088
C           13.24684853327050       -2.44985561850050       -1.12581500022555
C           11.97615823593689       -3.01085663298105       -1.47949027149231
C           11.03649126860985       -2.10227088058336       -1.12749912601957
C           11.73437919661831       -0.98792748500366       -0.56101270574848
N           13.09012141990927       -1.20143230569769       -0.57754707450979
H           10.01835644260685        0.14611038293033       -0.05959077513953
H           10.02726404291727        2.45452930392381        1.11484549805414
H           11.95761739203315        4.18175292704698        1.89262692997300
H           13.40962931109395        4.92244144104911       -0.66828989640329
H           15.16578505547765        4.88453136524136       -0.82745290930559
H           14.29862393276190        6.42347139902853       -0.97950107126947
H           14.41440379601292        7.82468672024573        0.89823388975984
H           14.26765084307510        8.60337144914265        4.50241073284001
H           15.71436307203275        8.91639412103840        3.53735033788171
H           14.11865651415055        9.26561629189093        2.86315002991551
H           14.83166898868647        6.22729129729504        4.84693833747676
H           15.72707316495092        3.03100371042081        3.96283223198487
H           14.85784958658092        3.91210056205978        5.23060753420379
H           13.96882537778208        2.92571066137787        4.05536958053096
H           17.15834747576104        4.23313581474761        1.59356863393242
H           19.03990171580808        2.42818874050391        0.88408785449633
H           18.96005852587858       -2.52122260548832       -0.73132337133891
H           17.02367166924790       -4.25439146211058       -1.47471310527254
H           14.01604034709224       -2.79534944436211       -4.01660761338335
H           14.86376127139685       -3.83570858212712       -5.17599289786504
H           15.76072758031583       -3.01886354234170       -3.88499535185590
H           14.72305768555581       -6.14977905516304       -4.79644219603924
H           15.22244292046466       -8.64117403871702       -4.11983215050653
H           14.37367328524215       -9.22810989967794       -2.67811933073043
H           13.45806257487971       -8.61891453485244       -4.06504517703955
H           14.06565028156113       -7.72283993608285       -0.87080241468554
H           13.14270675778690       -4.78506789629683        0.66055003766516
H           14.89165814286596       -4.81331187478711        0.88686173282550
H           13.96146200140348       -6.31823665296573        1.00495129576213
H           11.84108740916294       -3.97791108354432       -1.93666542188064
H            9.96465726297196       -2.16294618585072       -1.23039019246287
Ni          30.51684005398948       -0.04469433823728       -0.02143265925821
C           33.91763285787441       -0.06019771254340       -0.11360949553938
C           33.25460636085243       -1.21657736310823       -0.46872083249930
C           33.92115178237161       -2.41948128910643       -0.86675601205316
C           32.95450682066483       -3.31198773987853       -1.18539355544855
C           31.69883873698348       -2.65126085325486       -0.98319534201527
N           31.89211184755852       -1.37093181128913       -0.52790852144554
C           30.47285895270029       -3.23644314378231       -1.25994853201102
C           30.44904006885828       -4.62086105359513       -1.81132794439018
C           30.55338750167557       -4.82039205008353       -3.19098908432279
C           30.69229028476366       -3.63843652979736       -4.11307739080694
C           30.52448654089565       -6.11420906472649       -3.69788109306346
C           30.39417216886236       -7.21056301132646       -2.85168201386641
C           30.34147245205614       -8.60527459795946       -3.41435464011359
C           30.29024465538717       -6.99978033057195       -1.48053021816339
C           30.31615679642307       -5.71473944104969       -0.95137250035826
C           30.19941700020992       -5.49420793535085        0.53330602307986
C           29.26561430132222       -2.58735516023322       -1.05698681573790
C           27.99603447152835       -3.17929789066159       -1.35058749121621
C           27.05244142366426       -2.28001720254246       -0.98216101872913
N           29.10187703664482       -1.32771615286964       -0.52585093683524
C           27.74822355593087       -1.14353189584586       -0.46639954010594
C           27.09595917650661       -0.02344439092138        0.05668997057353
C           27.78447334347767        1.08612990418929        0.55435921837596
C           27.12718255196392        2.22845952594876        1.10621331026991
C           28.09802623228111        3.11320979598924        1.43769538891850
C           29.34546244199828        2.50764842197389        1.08297137378642
N           29.14182475168979        1.25279905468606        0.55424959118408
C           30.56853454466290        3.14294357790949        1.22682163836608
C           30.59033503702346        4.52711030976445        1.77901114818186
C           30.41222205766980        5.62238340152112        0.92803008865526
C           30.19539251192088        5.40236174144013       -0.54546606822311
C           30.43370936498382        6.90707912792948        1.45632024095478
C           30.62818745372488        7.11744661561883        2.81864296746750
C           30.65711568026449        8.51846424733930        3.36739486887687
C           30.80324894070555        6.02100816146078        3.65500898645668
C           30.78609953420959        4.72615781038294        3.14821092133477
C           30.97299188113126        3.54337205722382        4.06072146228433
C           31.77241675346851        2.54692140124265        0.88346729356137
C           33.04309307175633        3.19659431896171        1.01676375577090
C           33.98279939247188        2.29728017795701        0.64180573864203
C           33.28494683877823        1.10099560281063        0.27901434219425
N           31.92918964282375        1.26651671096097        0.41474028663398
H           35.00099189100473       -0.06452887180975       -0.14400889449978
H           34.99212187697411       -2.54329978889740       -0.89474262094321
H           33.06181767599715       -4.32809777137533       -1.52956428225267
H           31.60995732440115       -3.09036184232397       -3.89093306783656
H           29.85380599089730       -2.95249678768503       -3.97915917360511
H           30.72050438343240       -3.95814129320697       -5.15429460676696
H           30.60501166644611       -6.26915537086793       -4.76885592647268
H           30.75163056988597       -9.32582512773841       -2.70635939606810
H           29.30514969730748       -8.88367631191245       -3.61987088428532
H           30.90102884716545       -8.66924872515180       -4.34786178864139
H           30.18796032229906       -7.84931724579746       -0.81320287189208
H           29.29242986606612       -4.93068257726727        0.76105284511595
H           30.16209318429032       -6.44386099166949        1.06619146954244
H           31.05068501271882       -4.91825193195322        0.90056751999168
H           27.86109751283660       -4.15807672606729       -1.78157169464168
H           25.97950274252270       -2.36432733090888       -1.04431089877821
H           26.05915294360524        2.32547596593973        1.21671062172418
H           27.99551374275816        4.09061203747620        1.88063507437514
H           31.00268427099589        4.79827846656379       -0.96318021619157
H           30.15466954615473        6.35154345010085       -1.07893799557839
H           29.25803512112255        4.86807884973936       -0.71310222975989
H           30.29575628021819        7.75811953794359        0.79733093150838
H           29.79688527048656        9.08697473678725        3.01068071322128
H           30.64556559256627        8.51192370451164        4.45722754030658
H           31.56126313967133        9.03285725538360        3.03485521097903
H           30.95390951343549        6.17447158746568        4.71858827704136
H           31.87672036688054        2.99454589395770        3.78868016515309
H           30.12780793801304        2.85839061226442        3.97200952385823
H           31.05842999398561        3.86222275848194        5.09906866538261
H           33.17813791870358        4.21093351417328        1.35636055362654
H           35.05463282698691        2.41231885444059        0.60964216691555
C           23.12349165716945       -0.02949543331951        0.09182482708071
C           21.89583242296492       -0.04185151103780        0.08676572854537
C           20.55112484653608       -0.04449922446950        0.07954641161681
C           19.32784156196783       -0.04445513624578        0.06947779948761
C           24.46819685393680       -0.02237162581580        0.08786516445943
C           25.69148230007903       -0.01615956983233        0.08003643059551

          :  Hamiltonian                  GFN1-xTB          :
         :: total energy            -240.582719178823 Eh    ::
         :: gradient norm              0.000300770291 Eh/a0 ::
         :: HOMO-LUMO gap              1.200232815937 eV    ::
         :: SCC energy              -244.449183278343 Eh    ::
         :: repulsion energy           4.004607207417 Eh    ::

    * Orbital Energies and Occupations

         #    Occupation            Energy/Eh            Energy/eV
      -------------------------------------------------------------
         1        2.0000           -0.7794170             -21.2090
       ...           ...                  ...                  ...
       213        2.0000           -0.4126828             -11.2297
       214        2.0000           -0.3971817             -10.8079
       215        2.0000           -0.3971778             -10.8078
       216        2.0000           -0.3967530             -10.7962
       217        2.0000           -0.3967530             -10.7962
       218        2.0000           -0.3960311             -10.7766
       219        2.0000           -0.3960310             -10.7766
       220        2.0000           -0.3949706             -10.7477
       221        2.0000           -0.3949704             -10.7477
       222        2.0000           -0.3949435             -10.7470
       223        2.0000           -0.3949403             -10.7469
       224        2.0000           -0.3932306             -10.7003
       225        2.0000           -0.3825804             -10.4105 (HOMO)
       226                         -0.3384727              -9.2103 (LUMO)
       227                         -0.3276256              -8.9151
       228                         -0.3276103              -8.9147
       229                         -0.3269587              -8.8970
       230                         -0.3262943              -8.8789
       231                         -0.3262940              -8.8789
       232                         -0.2975573              -8.0969
       233                         -0.2890779              -7.8662
       234                         -0.2841899              -7.7332
       235                         -0.2604186              -7.0864
       236                         -0.2561777              -6.9710
       ...                                ...                  ...
       502                          1.5826170              43.0652
      -------------------------------------------------------------
                  HL-Gap            0.0441077 Eh            1.2002 eV

Wiberg/Mayer (AO) data.
largest (>0.10) Wiberg bond orders for each atom

     #   Z sym  total        # sym  WBO       # sym  WBO       # sym  WBO
 ---------------------------------------------------------------------------
     1  28 Ni   3.013 --    43 N    0.665     7 N    0.665    21 N    0.662
                            28 N    0.662
     2   6 C    3.933 --    42 C    1.363     3 C    1.363    44 H    0.970
     3   6 C    3.925 --     2 C    1.363     7 N    1.215     4 C    1.175
     4   6 C    3.959 --     5 C    1.649     3 C    1.175    45 H    0.975
     5   6 C    3.963 --     4 C    1.649     6 C    1.176    46 H    0.974
     6   6 C    3.919 --     8 C    1.327     7 N    1.218     5 C    1.176
     7   7 N    3.402 --     6 C    1.218     3 C    1.215     1 Ni   0.665
     8   6 C    3.939 --    18 C    1.335     6 C    1.327     9 C    1.004
     9   6 C    3.987 --    16 C    1.381    10 C    1.380     8 C    1.004
                            13 C    0.104
    10   6 C    3.985 --    12 C    1.421     9 C    1.380    11 C    1.020
                            15 C    0.103
    11   6 C    3.996 --    10 C    1.020    49 H    0.986    48 H    0.974
                            47 H    0.973
    12   6 C    3.993 --    10 C    1.421    13 C    1.414    50 H    0.970
                            16 C    0.103
    13   6 C    3.988 --    12 C    1.414    15 C    1.414    14 C    1.020
                             9 C    0.104
    14   6 C    3.996 --    13 C    1.020    53 H    0.983    51 H    0.983
                            52 H    0.971
    15   6 C    3.993 --    16 C    1.421    13 C    1.414    54 H    0.970
                            10 C    0.103
    16   6 C    3.985 --    15 C    1.421     9 C    1.381    17 C    1.020
                            12 C    0.103
    17   6 C    3.996 --    16 C    1.020    56 H    0.986    57 H    0.975
                            55 H    0.973
    18   6 C    3.915 --     8 C    1.335    21 N    1.202    19 C    1.182
    19   6 C    3.959 --    20 C    1.636    18 C    1.182    58 H    0.974
    20   6 C    3.961 --    19 C    1.636    22 C    1.191    59 H    0.973
    21   7 N    3.407 --    22 C    1.241    18 C    1.202     1 Ni   0.662
    22   6 C    3.905 --    23 C    1.262    21 N    1.241    20 C    1.191
    23   6 C    3.944 --    24 C    1.263    22 C    1.262   152 C    1.185
    24   6 C    3.905 --    23 C    1.263    28 N    1.241    25 C    1.191
    25   6 C    3.961 --    26 C    1.636    24 C    1.191    60 H    0.973
    26   6 C    3.959 --    25 C    1.636    27 C    1.182    61 H    0.974
    27   6 C    3.915 --    29 C    1.335    28 N    1.202    26 C    1.182
    28   7 N    3.407 --    24 C    1.241    27 C    1.202     1 Ni   0.662
    29   6 C    3.939 --    27 C    1.335    39 C    1.327    30 C    1.004
    30   6 C    3.987 --    37 C    1.384    31 C    1.377    29 C    1.004
                            34 C    0.104
    31   6 C    3.985 --    33 C    1.425    30 C    1.377    32 C    1.020
                            36 C    0.102
    32   6 C    3.996 --    31 C    1.020    63 H    0.986    62 H    0.975
                            64 H    0.973
    33   6 C    3.993 --    31 C    1.425    34 C    1.409    65 H    0.971
                            37 C    0.103
    34   6 C    3.988 --    36 C    1.418    33 C    1.409    35 C    1.020
                            30 C    0.104
    35   6 C    3.996 --    34 C    1.020    67 H    0.986    66 H    0.978
                            68 H    0.973
    36   6 C    3.993 --    34 C    1.418    37 C    1.416    69 H    0.970
                            31 C    0.102
    37   6 C    3.985 --    36 C    1.416    30 C    1.384    38 C    1.021
                            33 C    0.103
    38   6 C    3.996 --    37 C    1.021    72 H    0.986    71 H    0.975
                            70 H    0.973
    39   6 C    3.919 --    29 C    1.327    43 N    1.218    40 C    1.176
    40   6 C    3.963 --    41 C    1.649    39 C    1.176    73 H    0.974
    41   6 C    3.959 --    40 C    1.649    42 C    1.175    74 H    0.975
    42   6 C    3.925 --     2 C    1.363    43 N    1.215    41 C    1.175
    43   7 N    3.402 --    39 C    1.218    42 C    1.215     1 Ni   0.665
    44   1 H    1.000 --     2 C    0.970
    45   1 H    0.998 --     4 C    0.975
    46   1 H    1.002 --     5 C    0.974
    47   1 H    1.008 --    11 C    0.973
    48   1 H    1.007 --    11 C    0.974
    49   1 H    1.004 --    11 C    0.986
    50   1 H    1.000 --    12 C    0.970
    51   1 H    1.004 --    14 C    0.983
    52   1 H    1.006 --    14 C    0.971
    53   1 H    1.004 --    14 C    0.983
    54   1 H    1.000 --    15 C    0.970
    55   1 H    1.008 --    17 C    0.973
    56   1 H    1.004 --    17 C    0.986
    57   1 H    1.007 --    17 C    0.975
    58   1 H    1.002 --    19 C    0.974
    59   1 H    1.002 --    20 C    0.973
    60   1 H    1.002 --    25 C    0.973
    61   1 H    1.002 --    26 C    0.974
    62   1 H    1.007 --    32 C    0.975
    63   1 H    1.004 --    32 C    0.986
    64   1 H    1.008 --    32 C    0.973
    65   1 H    0.999 --    33 C    0.971
    66   1 H    1.005 --    35 C    0.978
    67   1 H    1.004 --    35 C    0.986
    68   1 H    1.006 --    35 C    0.973
    69   1 H    1.000 --    36 C    0.970
    70   1 H    1.008 --    38 C    0.973
    71   1 H    1.007 --    38 C    0.975
    72   1 H    1.004 --    38 C    0.986
    73   1 H    1.002 --    40 C    0.974
    74   1 H    0.998 --    41 C    0.975
    75  28 Ni   3.013 --   117 N    0.665    81 N    0.665    95 N    0.662
                           102 N    0.662
    76   6 C    3.933 --   116 C    1.363    77 C    1.363   118 H    0.970
    77   6 C    3.925 --    76 C    1.363    81 N    1.215    78 C    1.175
    78   6 C    3.959 --    79 C    1.649    77 C    1.175   119 H    0.975
    79   6 C    3.963 --    78 C    1.649    80 C    1.176   120 H    0.974
    80   6 C    3.919 --    82 C    1.327    81 N    1.218    79 C    1.176
    81   7 N    3.402 --    80 C    1.218    77 C    1.215    75 Ni   0.665
    82   6 C    3.939 --    92 C    1.335    80 C    1.327    83 C    1.004
    83   6 C    3.987 --    90 C    1.381    84 C    1.380    82 C    1.004
                            87 C    0.104
    84   6 C    3.985 --    86 C    1.421    83 C    1.380    85 C    1.020
                            89 C    0.103
    85   6 C    3.996 --    84 C    1.020   123 H    0.986   122 H    0.974
                           121 H    0.973
    86   6 C    3.993 --    84 C    1.421    87 C    1.414   124 H    0.970
                            90 C    0.103
    87   6 C    3.988 --    86 C    1.414    89 C    1.414    88 C    1.020
                            83 C    0.104
    88   6 C    3.996 --    87 C    1.020   127 H    0.983   125 H    0.983
                           126 H    0.971
    89   6 C    3.993 --    90 C    1.421    87 C    1.414   128 H    0.970
                            84 C    0.103
    90   6 C    3.985 --    89 C    1.421    83 C    1.381    91 C    1.020
                            86 C    0.103
    91   6 C    3.996 --    90 C    1.020   130 H    0.986   131 H    0.975
                           129 H    0.973
    92   6 C    3.915 --    82 C    1.335    95 N    1.202    93 C    1.182
    93   6 C    3.959 --    94 C    1.636    92 C    1.182   132 H    0.974
    94   6 C    3.961 --    93 C    1.636    96 C    1.191   133 H    0.973
    95   7 N    3.407 --    96 C    1.241    92 C    1.202    75 Ni   0.662
    96   6 C    3.905 --    97 C    1.262    95 N    1.241    94 C    1.191
    97   6 C    3.944 --    98 C    1.263    96 C    1.262   154 C    1.185
    98   6 C    3.905 --    97 C    1.263   102 N    1.241    99 C    1.191
    99   6 C    3.961 --   100 C    1.636    98 C    1.191   134 H    0.973
   100   6 C    3.959 --    99 C    1.636   101 C    1.182   135 H    0.974
   101   6 C    3.915 --   103 C    1.335   102 N    1.202   100 C    1.182
   102   7 N    3.407 --    98 C    1.241   101 C    1.202    75 Ni   0.662
   103   6 C    3.939 --   101 C    1.335   113 C    1.327   104 C    1.004
   104   6 C    3.987 --   111 C    1.383   105 C    1.377   103 C    1.004
                           108 C    0.104
   105   6 C    3.985 --   107 C    1.425   104 C    1.377   106 C    1.020
                           110 C    0.102
   106   6 C    3.996 --   105 C    1.020   137 H    0.986   136 H    0.975
                           138 H    0.973
   107   6 C    3.993 --   105 C    1.425   108 C    1.409   139 H    0.971
                           111 C    0.103
   108   6 C    3.988 --   110 C    1.418   107 C    1.409   109 C    1.020
                           104 C    0.104
   109   6 C    3.996 --   108 C    1.020   141 H    0.986   140 H    0.978
                           142 H    0.973
   110   6 C    3.993 --   108 C    1.418   111 C    1.416   143 H    0.970
                           105 C    0.102
   111   6 C    3.985 --   110 C    1.416   104 C    1.383   112 C    1.021
                           107 C    0.103
   112   6 C    3.996 --   111 C    1.021   146 H    0.986   145 H    0.975
                           144 H    0.973
   113   6 C    3.919 --   103 C    1.327   117 N    1.218   114 C    1.176
   114   6 C    3.963 --   115 C    1.649   113 C    1.176   147 H    0.974
   115   6 C    3.959 --   114 C    1.649   116 C    1.175   148 H    0.975
   116   6 C    3.925 --    76 C    1.363   117 N    1.215   115 C    1.175
   117   7 N    3.402 --   113 C    1.218   116 C    1.215    75 Ni   0.665
   118   1 H    1.000 --    76 C    0.970
   119   1 H    0.998 --    78 C    0.975
   120   1 H    1.002 --    79 C    0.974
   121   1 H    1.008 --    85 C    0.973
   122   1 H    1.007 --    85 C    0.974
   123   1 H    1.004 --    85 C    0.986
   124   1 H    1.000 --    86 C    0.970
   125   1 H    1.004 --    88 C    0.983
   126   1 H    1.006 --    88 C    0.971
   127   1 H    1.004 --    88 C    0.983
   128   1 H    1.000 --    89 C    0.970
   129   1 H    1.008 --    91 C    0.973
   130   1 H    1.004 --    91 C    0.986
   131   1 H    1.007 --    91 C    0.975
   132   1 H    1.002 --    93 C    0.974
   133   1 H    1.002 --    94 C    0.973
   134   1 H    1.002 --    99 C    0.973
   135   1 H    1.002 --   100 C    0.974
   136   1 H    1.007 --   106 C    0.975
   137   1 H    1.004 --   106 C    0.986
   138   1 H    1.008 --   106 C    0.973
   139   1 H    0.999 --   107 C    0.971
   140   1 H    1.005 --   109 C    0.978
   141   1 H    1.004 --   109 C    0.986
   142   1 H    1.006 --   109 C    0.973
   143   1 H    1.000 --   110 C    0.970
   144   1 H    1.008 --   112 C    0.973
   145   1 H    1.007 --   112 C    0.975
   146   1 H    1.004 --   112 C    0.986
   147   1 H    1.002 --   114 C    0.974
   148   1 H    0.998 --   115 C    0.975
   149   6 C    3.928 --   150 C    2.374   153 C    1.331   152 C    0.191
   150   6 C    3.928 --   149 C    2.374   151 C    1.331   154 C    0.191
   151   6 C    3.937 --   152 C    2.456   150 C    1.331
   152   6 C    3.892 --   151 C    2.456    23 C    1.185   149 C    0.191
   153   6 C    3.937 --   154 C    2.456   149 C    1.331
   154   6 C    3.892 --   153 C    2.456    97 C    1.185   150 C    0.191
 ---------------------------------------------------------------------------

           -------------------------------------------------
          | TOTAL ENERGY             -240.582719178823 Eh   |
          | GRADIENT NORM               0.000300770291 Eh/α |
          | HOMO-LUMO GAP               1.200232815937 eV   |
           -------------------------------------------------

 * finished run on 2022/07/30 at 05:44:05.051
