   * xtb version 6.5.1 (b24c23e) compiled by 'conda@728c89f4b128' on 2022-07-12
          program call               : xtb Cu_H_C6_2.xyz --gfn 1 --opt -T 48

   ID    Z sym.   atoms
    1   29 Cu     1, 37
    2    6 C      2-6, 8-11, 13-18, 20-24, 38-42, 44-47, 49-54, 56-60, 73-78
    3    7 N      7, 12, 19, 25, 43, 48, 55, 61
    4    1 H      26-36, 62-72
########################################################################
[WARNING] Please study the warnings concerning your input carefully
-1- prog_main_parseArguments: Unknown option '-T' provided
########################################################################

          :  Hamiltonian                  GFN1-xTB          :
 * total energy  :  -142.3936533 Eh     change       -0.7584049E-09 Eh
 * total energy  :  -143.2796131 Eh     change       -0.8859598E+00 Eh
 * total energy  :  -143.3970991 Eh     change       -0.1174860E+00 Eh
 * total energy  :  -143.4490982 Eh     change       -0.5199916E-01 Eh
 * total energy  :  -143.4692520 Eh     change       -0.2015380E-01 Eh
 * total energy  :  -143.4793801 Eh     change       -0.1012804E-01 Eh
 * total energy  :  -143.4860541 Eh     change       -0.6673984E-02 Eh
 * total energy  :  -143.4909589 Eh     change       -0.4904854E-02 Eh
 * total energy  :  -143.4943991 Eh     change       -0.3440134E-02 Eh
 * total energy  :  -143.4967519 Eh     change       -0.2352879E-02 Eh
 * total energy  :  -143.5007314 Eh     change       -0.4361168E-04 Eh
 * total energy  :  -143.5007643 Eh     change       -0.3296426E-04 Eh
 * total energy  :  -143.5007904 Eh     change       -0.2604898E-04 Eh
 * total energy  :  -143.5008043 Eh     change       -0.1392297E-04 Eh
 * total energy  :  -143.5008112 Eh     change       -0.6852699E-05 Eh
 * total energy  :  -143.5008172 Eh     change       -0.6002142E-05 Eh
 * total energy  :  -143.5008241 Eh     change       -0.6925560E-05 Eh
 * total energy  :  -143.5008295 Eh     change       -0.5382193E-05 Eh
 * total energy  :  -143.5008334 Eh     change       -0.3918708E-05 Eh
   *** GEOMETRY OPTIMIZATION CONVERGED AFTER 26 ITERATIONS ***

 final structure:
================
78
 xtb: 6.5.1 (b24c23e)
Cu           6.49863113402516       -0.01069706279405       -0.00766572535574
C            3.07502121468567       -0.05219047114313       -0.05121553367443
C            3.72532446613840       -0.91691059102783       -0.92027485201214
C            3.07365548811219       -1.81993047860227       -1.82933464227125
C            4.05020412939977       -2.48398287047775       -2.49624091994506
C            5.30620058867910       -1.99291868280761       -1.99942702057938
N            5.07802279925717       -1.04379563389019       -1.04630186000166
C            6.55538729543519       -2.42304004836948       -2.42385598506640
C            7.78238124222011       -1.97251893381670       -1.96055303221725
C            9.05724018739116       -2.44504095224156       -2.41989984902777
C           10.00449949893096       -1.76429168914171       -1.72610699363480
N            7.97173283387121       -1.01577641106910       -0.99999315938801
C            9.31396515773677       -0.87131583418008       -0.84052857866886
C            9.94406257741617        0.01864324274983        0.04804180108671
C            9.27227155941716        0.90211111123294        0.91113863940252
C            9.91817879158287        1.81174834318760        1.81312109550971
C            8.93729428076015        2.48133493856327        2.47024761008788
C            7.68615293596706        1.98338654975226        1.97372340977692
N            7.92303176889086        1.02500957922522        1.02556930927981
C            6.43682316507230        2.41065817469509        2.39831405041863
C            5.20952550644392        1.94958022836356        1.94343739682270
C            3.92974685548393        2.41118031406242        2.40700612412184
C            2.98670012459893        1.71924806930264        1.72052218529685
C            3.68261792670402        0.82965522420310        0.83129807086226
N            5.02835180966512        0.99103403728591        0.98952680515846
H            1.99007422339384       -0.06602971507478       -0.06387332629413
H            2.00445525580115       -1.92059091868830       -1.93200826748795
H            3.94636660462958       -3.24092576985915       -3.25792759689604
H            6.57500898769817       -3.18877398385182       -3.19261503498259
H            9.19566376752863       -3.20123722296662       -3.17653813762234
H           11.07705078251190       -1.84903664025988       -1.79935871008328
H           10.98644035210127        1.91492928974481        1.91983433194148
H            9.03766665369195        3.24492069809607        3.22554500722228
H            6.41764458199737        3.18066903660167        3.16286465653170
H            3.78812374560826        3.16858067774277        3.16213212106961
H            1.91309451191580        1.79281375822228        1.79706401373470
Cu          22.56729714155332        0.01309696248570        0.00016911618586
C           25.99094091363510        0.07120483719335        0.00006732004113
C           25.34130484092644        1.29596425716362       -0.06185417562478
C           25.99373432449461        2.57529832212622       -0.12619070003509
C           25.01775320484920        3.51580484445292       -0.17399145019505
C           23.76131314237987        2.81893438676021       -0.13824583814901
N           23.98870142900947        1.47536077053925       -0.07129912949731
C           22.51248429529474        3.42338522242224       -0.16450535477788
C           21.28502806059803        2.77907897088972       -0.12656194930714
C           20.01055750476564        3.43843475865306       -0.15026403895464
C           19.06263069614890        2.46854048391606       -0.09649888373813
N           21.09479494349467        1.42509920699002       -0.05996691256392
C           19.75236327270556        1.21169312695180       -0.04085619070635
C           19.12178179407695       -0.04423556755556        0.01707363073650
C           19.79314980610254       -1.27885542073290        0.06187262034263
C           19.14641824187876       -2.55830262124187        0.11583640531135
C           20.12668606004921       -3.49638452374423        0.15302797088830
C           21.37826454089061       -2.79465777394678        0.12256802698114
N           21.14225605312937       -1.44755339017442        0.06554693101805
C           22.62718114207387       -3.39717031315547        0.15096664613527
C           23.85485821846954       -2.75066734323086        0.12629703309502
C           25.13423131606413       -3.40474197356782        0.16016490057090
C           26.07786032100105       -2.43146387060988        0.11898283843130
C           25.38267555169319       -1.17467831197777        0.05891342241777
N           24.03682608327100       -1.39981814405019        0.06584985736520
H           27.07589805834329        0.08943010982173        0.00126779631209
H           27.06302698182861        2.71824073244868       -0.13324035958392
H           25.12228245145734        4.58820516191957       -0.22823364955310
H           22.49359492075236        4.50713952851727       -0.21802069593809
H           19.87286048001448        4.50705817247759       -0.20134703876672
H           17.99012447745618        2.58109109505272       -0.09516914728642
H           18.07805662839849       -2.70582168549595        0.12378420560134
H           20.02557890356590       -4.56939609760109        0.19794964593601
H           22.64564119473267       -4.48124369943263        0.19859080437584
H           25.27517006950573       -4.47321790775045        0.20930561691049
H           27.15139872056080       -2.53797306492064        0.12733406171411
C           15.14661891453842       -0.04103161976150        0.06464410408492
C           13.91924166759814       -0.01479524642340        0.07460528017516
C           12.57391854379369        0.00132943452892        0.07419480988391
C           11.35084247463158        0.02062171223047        0.07137062502707
C           16.49190334449114       -0.05408362075920        0.04881725279708
C           17.71498146501085       -0.06139826417649        0.03129718922403

          :  Hamiltonian                  GFN1-xTB          :
         :: total energy            -143.500833391904 Eh    ::
         :: gradient norm              0.000874316103 Eh/a0 ::
         :: HOMO-LUMO gap              0.000023810087 eV    ::
         :: SCC energy              -145.771447523680 Eh    ::
         :: repulsion energy           2.335830781725 Eh    ::

    * Orbital Energies and Occupations

         #    Occupation            Energy/Eh            Energy/eV
      -------------------------------------------------------------
         1        2.0000           -0.7637992             -20.7840
       ...           ...                  ...                  ...
       122        2.0000           -0.4107762             -11.1778
       123        2.0000           -0.4107733             -11.1777
       124        2.0000           -0.4076568             -11.0929
       125        2.0000           -0.4076549             -11.0929
       126        2.0000           -0.4076288             -11.0921
       127        2.0000           -0.4076271             -11.0921
       128        2.0000           -0.4074084             -11.0861
       129        2.0000           -0.4073662             -11.0850
       130        2.0000           -0.3951324             -10.7521
       131        2.0000           -0.3951319             -10.7521
       132        2.0000           -0.3909495             -10.6383
       133        2.0000           -0.3835222             -10.4362
       134        1.0002           -0.3546447              -9.6504 (HOMO)
       135        0.9998           -0.3546439              -9.6504 (LUMO)
       136                         -0.3361590              -9.1474
       137                         -0.3282385              -8.9318
       138                         -0.3271391              -8.9019
       139                         -0.3271380              -8.9019
       140                         -0.2970694              -8.0837
       141                         -0.2931925              -7.9782
       142                         -0.2765097              -7.5242
       143                         -0.2615733              -7.1178
       144                         -0.2259232              -6.1477
       145                         -0.2259231              -6.1477
       ...                                ...                  ...
       278                          1.5816404              43.0386
      -------------------------------------------------------------
                  HL-Gap            0.0000009 Eh            0.0000 eV

Wiberg/Mayer (AO) data.
largest (>0.10) Wiberg bond orders for each atom

     #   Z sym  total        # sym  WBO       # sym  WBO       # sym  WBO
 ---------------------------------------------------------------------------
     1  29 Cu   2.188 --    25 N    0.506     7 N    0.505    12 N    0.503
                            19 N    0.502
     2   6 C    3.935 --    24 C    1.362     3 C    1.362    26 H    0.972
     3   6 C    3.917 --     2 C    1.362     7 N    1.234     4 C    1.166
     4   6 C    3.955 --     5 C    1.662     3 C    1.166    27 H    0.976
     5   6 C    3.957 --     4 C    1.662     6 C    1.166    28 H    0.976
     6   6 C    3.915 --     8 C    1.360     7 N    1.234     5 C    1.166
     7   7 N    3.247 --     3 C    1.234     6 C    1.234     1 Cu   0.505
     8   6 C    3.941 --     9 C    1.368     6 C    1.360    29 H    0.971
     9   6 C    3.909 --     8 C    1.368    12 N    1.217    10 C    1.173
    10   6 C    3.954 --    11 C    1.650     9 C    1.173    30 H    0.976
    11   6 C    3.957 --    10 C    1.650    13 C    1.181    31 H    0.974
    12   7 N    3.252 --    13 C    1.261     9 C    1.217     1 Cu   0.503
    13   6 C    3.898 --    12 N    1.261    14 C    1.261    11 C    1.181
    14   6 C    3.945 --    15 C    1.263    13 C    1.261    76 C    1.183
    15   6 C    3.898 --    14 C    1.263    19 N    1.261    16 C    1.181
    16   6 C    3.957 --    17 C    1.650    15 C    1.181    32 H    0.974
    17   6 C    3.954 --    16 C    1.650    18 C    1.173    33 H    0.976
    18   6 C    3.909 --    20 C    1.367    19 N    1.218    17 C    1.173
    19   7 N    3.251 --    15 C    1.261    18 C    1.218     1 Cu   0.502
    20   6 C    3.941 --    18 C    1.367    21 C    1.360    34 H    0.971
    21   6 C    3.915 --    20 C    1.360    25 N    1.234    22 C    1.166
    22   6 C    3.957 --    23 C    1.662    21 C    1.166    35 H    0.976
    23   6 C    3.955 --    22 C    1.662    24 C    1.166    36 H    0.976
    24   6 C    3.917 --     2 C    1.362    25 N    1.234    23 C    1.166
    25   7 N    3.248 --    24 C    1.234    21 C    1.234     1 Cu   0.506
    26   1 H    1.001 --     2 C    0.972
    27   1 H    0.998 --     4 C    0.976
    28   1 H    0.998 --     5 C    0.976
    29   1 H    1.001 --     8 C    0.971
    30   1 H    0.998 --    10 C    0.976
    31   1 H    1.002 --    11 C    0.974
    32   1 H    1.002 --    16 C    0.974
    33   1 H    0.998 --    17 C    0.976
    34   1 H    1.002 --    20 C    0.971
    35   1 H    0.998 --    22 C    0.976
    36   1 H    0.998 --    23 C    0.976
    37  29 Cu   2.188 --    61 N    0.506    43 N    0.506    48 N    0.503
                            55 N    0.502
    38   6 C    3.935 --    60 C    1.362    39 C    1.362    62 H    0.972
    39   6 C    3.917 --    38 C    1.362    43 N    1.234    40 C    1.166
    40   6 C    3.955 --    41 C    1.662    39 C    1.166    63 H    0.976
    41   6 C    3.957 --    40 C    1.662    42 C    1.166    64 H    0.976
    42   6 C    3.915 --    44 C    1.360    43 N    1.234    41 C    1.166
    43   7 N    3.247 --    39 C    1.234    42 C    1.234    37 Cu   0.506
    44   6 C    3.941 --    45 C    1.368    42 C    1.360    65 H    0.971
    45   6 C    3.909 --    44 C    1.368    48 N    1.217    46 C    1.173
    46   6 C    3.954 --    47 C    1.650    45 C    1.173    66 H    0.976
    47   6 C    3.957 --    46 C    1.650    49 C    1.181    67 H    0.974
    48   7 N    3.252 --    49 C    1.261    45 C    1.217    37 Cu   0.503
    49   6 C    3.898 --    50 C    1.261    48 N    1.261    47 C    1.181
    50   6 C    3.945 --    51 C    1.263    49 C    1.261    78 C    1.183
    51   6 C    3.898 --    50 C    1.263    55 N    1.261    52 C    1.181
    52   6 C    3.957 --    53 C    1.650    51 C    1.181    68 H    0.974
    53   6 C    3.954 --    52 C    1.650    54 C    1.173    69 H    0.976
    54   6 C    3.909 --    56 C    1.367    55 N    1.218    53 C    1.173
    55   7 N    3.251 --    51 C    1.261    54 C    1.218    37 Cu   0.502
    56   6 C    3.941 --    54 C    1.367    57 C    1.360    70 H    0.971
    57   6 C    3.915 --    56 C    1.360    61 N    1.234    58 C    1.166
    58   6 C    3.957 --    59 C    1.662    57 C    1.166    71 H    0.976
    59   6 C    3.955 --    58 C    1.662    60 C    1.166    72 H    0.976
    60   6 C    3.917 --    38 C    1.362    61 N    1.234    59 C    1.166
    61   7 N    3.248 --    60 C    1.234    57 C    1.234    37 Cu   0.506
    62   1 H    1.001 --    38 C    0.972
    63   1 H    0.998 --    40 C    0.976
    64   1 H    0.998 --    41 C    0.976
    65   1 H    1.001 --    44 C    0.971
    66   1 H    0.998 --    46 C    0.976
    67   1 H    1.002 --    47 C    0.974
    68   1 H    1.002 --    52 C    0.974
    69   1 H    0.998 --    53 C    0.976
    70   1 H    1.002 --    56 C    0.971
    71   1 H    0.998 --    58 C    0.976
    72   1 H    0.998 --    59 C    0.976
    73   6 C    3.926 --    74 C    2.377    77 C    1.328    76 C    0.191
    74   6 C    3.926 --    73 C    2.377    75 C    1.328    78 C    0.191
    75   6 C    3.937 --    76 C    2.459    74 C    1.328
    76   6 C    3.891 --    75 C    2.459    14 C    1.183    73 C    0.191
    77   6 C    3.937 --    78 C    2.459    73 C    1.328
    78   6 C    3.891 --    77 C    2.459    50 C    1.183    74 C    0.191
 ---------------------------------------------------------------------------

           -------------------------------------------------
          | TOTAL ENERGY             -143.500833391904 Eh   |
          | GRADIENT NORM               0.000874316103 Eh/α |
          | HOMO-LUMO GAP               0.000023810087 eV   |
           -------------------------------------------------

 * finished run on 2022/07/30 at 04:18:33.111
