   * xtb version 6.5.1 (b24c23e) compiled by 'conda@728c89f4b128' on 2022-07-12
          program call               : xtb Cu_Ph_C4_2.xyz --gfn 1 --opt -T 48

   ID    Z sym.   atoms
    1   29 Cu     1, 57
    2    6 C      2-6, 8-11, 13-29, 32-37, 58-62, 64-67, 69-85, 88-93, 113-116
    3    7 N      7, 12, 30, 31, 63, 68, 86, 87
    4    1 H      38-56, 94-112
########################################################################
[WARNING] Please study the warnings concerning your input carefully
-1- prog_main_parseArguments: Unknown option '-T' provided
########################################################################

          :  Hamiltonian                  GFN1-xTB          :
 * total energy  :  -198.4271496 Eh     change       -0.6355378E-09 Eh
 * total energy  :  -198.5848127 Eh     change       -0.1576631E+00 Eh
 * total energy  :  -198.6294512 Eh     change       -0.4463848E-01 Eh
 * total energy  :  -198.6512349 Eh     change       -0.2178369E-01 Eh
 * total energy  :  -198.6580081 Eh     change       -0.6773220E-02 Eh
 * total energy  :  -198.6630038 Eh     change       -0.4995684E-02 Eh
 * total energy  :  -198.6647967 Eh     change       -0.1792966E-02 Eh
 * total energy  :  -198.6659062 Eh     change       -0.1109459E-02 Eh
 * total energy  :  -198.6666115 Eh     change       -0.7053240E-03 Eh
 * total energy  :  -198.6675576 Eh     change       -0.9461217E-03 Eh
 * total energy  :  -198.6715787 Eh     change       -0.2227944E-04 Eh
 * total energy  :  -198.6716258 Eh     change       -0.4711672E-04 Eh
 * total energy  :  -198.6716573 Eh     change       -0.3146929E-04 Eh
 * total energy  :  -198.6716900 Eh     change       -0.3273104E-04 Eh
 * total energy  :  -198.6717028 Eh     change       -0.1276331E-04 Eh
 * total energy  :  -198.6717113 Eh     change       -0.8519721E-05 Eh
 * total energy  :  -198.6717182 Eh     change       -0.6964078E-05 Eh
 * total energy  :  -198.6717214 Eh     change       -0.3139445E-05 Eh
 * total energy  :  -198.6717251 Eh     change       -0.3732570E-05 Eh
   *** GEOMETRY OPTIMIZATION CONVERGED AFTER 41 ITERATIONS ***

 final structure:
================
116
 xtb: 6.5.1 (b24c23e)
Cu          14.03534462450498       -0.05540471262035       -0.00387919703477
C           10.62879677991230       -0.07289045037566       -0.02789934124851
C           11.25995108696091       -1.30598711297965       -0.09595371122859
C           10.58063438209296       -2.56909822373960       -0.14066388432170
C           11.53632800514499       -3.53034087024197       -0.18252229627353
C           12.80933034809350       -2.86211866258915       -0.17243458127004
N           12.60995155883824       -1.51272448656545       -0.11306004833052
C           14.05164424607568       -3.50051619990394       -0.18914493378580
C           15.28707786743444       -2.85250196911727       -0.13718862580791
C           16.56242454462415       -3.50879634708423       -0.19842750766918
C           17.51204456485524       -2.54106568933601       -0.13574405566945
N           15.48069936776210       -1.49901728994717       -0.05074292247689
C           16.82503181451268       -1.28784802971975       -0.04425011830466
C           17.46424552808748       -0.03753669403193        0.02340521397544
C           16.81007689838599        1.20553780058237        0.08244763080821
C           17.48299281270192        2.46933897552692        0.11922962805562
C           16.52266024107412        3.42740125070151        0.16113934724293
C           15.25490485262078        2.75381220610312        0.15843429342393
C           14.01254501023824        3.38986601081607        0.18301178441175
C           14.00343294769159        4.87279123707432        0.26332465556292
C           13.46949251816398        5.63323739641929       -0.77747397654290
C           13.46392903515748        7.01813280820682       -0.70264680291982
C           13.98551194570632        7.65910172866022        0.41278744084647
C           14.51645489640202        6.90914418568043        1.45349151592680
C           14.52862332543380        5.52430056908735        1.37983082701385
C           12.77726411462537        2.73948411427037        0.13759735708971
C           11.49717299243028        3.39051099457788        0.20692443514076
C           10.55214103376848        2.41982137699704        0.14472712774824
C           11.24531417149247        1.16725008147327        0.04528616362856
N           12.59288000568665        1.38985117262644        0.04793074426494
N           15.46356374186217        1.40094572095289        0.10174107367368
C           14.05795784110353       -4.98359369512584       -0.26638499853001
C           13.53306678601241       -5.63590417498379       -1.38264062115684
C           13.53995095067031       -7.02098146565680       -1.45287168972194
C           14.06574109690368       -7.77042219099097       -0.40915236826207
C           14.58827962128483       -7.12867987500852        0.70535587208321
C           14.58738344029191       -5.74367027424269        0.77707101148029
H            9.54362301435292       -0.07979920261475       -0.02140834291135
H            9.50878907680927       -2.69050160795493       -0.13322695169863
H           11.39912747456226       -4.59947255326002       -0.20603513472281
H           16.70843713111450       -4.57290400866488       -0.29067556636034
H           18.58413377990431       -2.65543360178253       -0.15588993507744
H           18.55364385872462        2.59737476924989        0.10758738398666
H           16.65659915496776        4.49689667638684        0.17981806315265
H           13.07216771785790        5.13422830851535       -1.65441007390052
H           13.05134780808863        7.59936739157182       -1.51988062805190
H           13.97847559740118        8.74167512443299        0.47088401503418
H           14.92272182665692        7.40498219122187        2.32819498123540
H           14.93363962239207        4.93953381638465        2.19833794854212
H           11.34835817136296        4.45404794992205        0.30328700587067
H            9.47910390385301        2.52762048131248        0.16975783486019
H           13.13273686060648       -5.05171803694760       -2.20390320996325
H           13.13350479507033       -7.51745304948135       -2.32711529706187
H           14.06837667965083       -8.85314398854490       -0.46440383405128
H           14.99807635669604       -7.70953975452470        1.52428093375458
H           14.98519665358596       -5.24408315893359        1.65339392790040
Cu          27.49950346962741        0.05626367587230        0.00077386880126
C           30.90612071755100        0.07464783993421       -0.02194169027957
C           30.27494559547124        1.30956587368322       -0.03275093074843
C           30.95422651251866        2.57339016999258       -0.01817085356479
C           29.99853980086083        3.53556622011626       -0.01850519583965
C           28.72558442156838        2.86760907920224       -0.04192548730378
N           28.92495441344233        1.51692524341776       -0.04293671628237
C           27.48321063386732        3.50617150478794       -0.03444278181806
C           26.24775784045779        2.85642775832878       -0.01324382069433
C           24.97239768569159        3.51454519989857       -0.04958574399832
C           24.02283745076290        2.54497519573208       -0.02860603982674
N           26.05421169537087        1.50050045174562        0.01626770116383
C           24.70986115932963        1.28907769810411        0.01198842769674
C           24.07062870629568        0.03708024299917        0.02783275802180
C           24.72467634935692       -1.20744022777180        0.03510741425394
C           24.05185363709059       -2.47171973754215        0.02098520640677
C           25.01226670123719       -3.43062108771447        0.02062954891056
C           26.27997687438882       -2.75732765015523        0.04252780964957
C           27.52229560439132       -3.39374169597602        0.03528794340097
C           27.53121187252012       -4.87889161096921        0.05043136567182
C           28.05500943767945       -5.59317590568070       -1.02745425390677
C           28.05970516775954       -6.98003398253014       -1.01348855069206
C           27.54769727412085       -7.66891428396964        0.07752567709210
C           27.02711587703258       -6.96500791422357        1.15495163052875
C           27.01552294889045       -5.57826225377056        1.14207584983462
C           28.75752205282006       -2.74216851651572        0.01492249059386
C           30.03758245590018       -3.39593779466124        0.05035762535454
C           30.98270471409601       -2.42352181514793        0.03183565677278
C           30.28960115311060       -1.16755946984849       -0.00712195574527
N           28.94200213768633       -1.38985292517805       -0.01248868486811
N           26.07120369370001       -1.40330374020631        0.04337425594435
C           27.47709885450655        4.99114476850390       -0.04932228717904
C           28.00787419146084        5.68917506061655       -1.13475832098394
C           28.00119875586616        7.07594423430769       -1.14749430665447
C           27.46981629954889        7.78156848622092       -0.07649856362476
C           26.94133797142776        7.09421718279848        1.00759974915486
C           26.94183628690830        5.70742004994222        1.02183137855349
H           31.99129744385502        0.08126477902997       -0.01490934180037
H           32.02603546970905        2.69433270160296       -0.00266310210118
H           30.13582194775442        4.60463016081451        0.00718818052234
H           24.82624786463322        4.58153269803065       -0.09800819046837
H           22.95077384728724        2.65993309046400       -0.04585815039285
H           22.98118627305701       -2.59928850374405        0.00672961307606
H           24.87862139609647       -4.50002920544129       -0.00445727036275
H           28.44500107778070       -5.05634619527333       -1.88511210290807
H           28.46404128048295       -7.52516364095579       -1.85920778333948
H           27.55406530744735       -8.75299103204728        0.08801534202605
H           26.62841831206002       -7.49846136963816        2.01080164412224
H           26.61827138172043       -5.02959480260119        1.98887157821308
H           30.18615801077025       -4.46290153773522        0.09577112398051
H           32.05577685093476       -2.53248067932250        0.04922251066877
H           28.41325180479997        5.13945393312890       -1.97726499981337
H           28.41340544037313        7.60819623011113       -1.99820260922057
H           27.46786339184031        8.86563838621674       -0.08685185280092
H           26.52769101233050        7.64069124943345        1.84774732781740
H           26.53991935243950        5.17218309107458        1.87463611981722
C           20.09236345234946       -0.00851167883104        0.02496019848716
C           18.87082495551978       -0.02671355882509        0.02233799183934
C           21.44250417301906        0.00765931056359        0.02607981185343
C           22.66403205717300        0.02671428780933        0.02598322463409

          :  Hamiltonian                  GFN1-xTB          :
         :: total energy            -198.671725123723 Eh    ::
         :: gradient norm              0.000738077813 Eh/a0 ::
         :: HOMO-LUMO gap              0.000058377757 eV    ::
         :: SCC energy              -201.866311764322 Eh    ::
         :: repulsion energy           3.298532126454 Eh    ::

    * Orbital Energies and Occupations

         #    Occupation            Energy/Eh            Energy/eV
      -------------------------------------------------------------
         1        2.0000           -0.7627976             -20.7568
       ...           ...                  ...                  ...
       174        2.0000           -0.4105773             -11.1724
       175        2.0000           -0.4105668             -11.1721
       176        2.0000           -0.4074282             -11.0867
       177        2.0000           -0.4074261             -11.0866
       178        2.0000           -0.4071749             -11.0798
       179        2.0000           -0.4071325             -11.0786
       180        2.0000           -0.4071287             -11.0785
       181        2.0000           -0.4070586             -11.0766
       182        2.0000           -0.3943089             -10.7297
       183        2.0000           -0.3943054             -10.7296
       184        2.0000           -0.3913716             -10.6498
       185        2.0000           -0.3790505             -10.3145
       186        1.0006           -0.3546386              -9.6502 (HOMO)
       187        0.9994           -0.3546364              -9.6501 (LUMO)
       188                         -0.3366434              -9.1605
       189                         -0.3263315              -8.8799
       190                         -0.3263274              -8.8798
       191                         -0.3227859              -8.7835
       192                         -0.2959096              -8.0521
       193                         -0.2884035              -7.8479
       194                         -0.2634459              -7.1687
       195                         -0.2634448              -7.1687
       196                         -0.2634403              -7.1686
       197                         -0.2634323              -7.1684
       ...                                ...                  ...
       398                          1.5208393              41.3841
      -------------------------------------------------------------
                  HL-Gap            0.0000021 Eh            0.0001 eV

Wiberg/Mayer (AO) data.
largest (>0.10) Wiberg bond orders for each atom

     #   Z sym  total        # sym  WBO       # sym  WBO       # sym  WBO
 ---------------------------------------------------------------------------
     1  29 Cu   2.186 --     7 N    0.506    30 N    0.505    31 N    0.503
                            12 N    0.502
     2   6 C    3.929 --    29 C    1.361     3 C    1.361    38 H    0.971
     3   6 C    3.917 --     2 C    1.361     7 N    1.229     4 C    1.171
     4   6 C    3.955 --     5 C    1.655     3 C    1.171    39 H    0.976
     5   6 C    3.958 --     4 C    1.655     6 C    1.173    40 H    0.973
     6   6 C    3.913 --     8 C    1.320     7 N    1.238     5 C    1.173
     7   7 N    3.244 --     6 C    1.238     3 C    1.229     1 Cu   0.506
     8   6 C    3.935 --     9 C    1.327     6 C    1.320    32 C    1.025
     9   6 C    3.909 --     8 C    1.327    12 N    1.221    10 C    1.179
    10   6 C    3.954 --    11 C    1.642     9 C    1.179    41 H    0.973
    11   6 C    3.957 --    10 C    1.642    13 C    1.187    42 H    0.974
    12   7 N    3.248 --    13 C    1.257     9 C    1.221     1 Cu   0.502
    13   6 C    3.899 --    14 C    1.260    12 N    1.257    11 C    1.187
    14   6 C    3.939 --    13 C    1.260    15 C    1.260   114 C    1.185
    15   6 C    3.898 --    14 C    1.260    31 N    1.257    16 C    1.187
    16   6 C    3.957 --    17 C    1.643    15 C    1.187    43 H    0.974
    17   6 C    3.954 --    16 C    1.643    18 C    1.179    44 H    0.973
    18   6 C    3.909 --    19 C    1.328    31 N    1.221    17 C    1.179
    19   6 C    3.935 --    18 C    1.328    26 C    1.320    20 C    1.025
    20   6 C    3.988 --    21 C    1.396    25 C    1.396    19 C    1.025
                            23 C    0.108
    21   6 C    3.988 --    22 C    1.447    20 C    1.396    45 H    0.973
                            24 C    0.110
    22   6 C    3.995 --    21 C    1.447    23 C    1.438    46 H    0.973
                            25 C    0.110
    23   6 C    3.990 --    22 C    1.438    24 C    1.438    47 H    0.974
                            20 C    0.108
    24   6 C    3.995 --    25 C    1.447    23 C    1.438    48 H    0.973
                            21 C    0.110
    25   6 C    3.988 --    24 C    1.447    20 C    1.396    49 H    0.973
                            22 C    0.110
    26   6 C    3.913 --    19 C    1.320    30 N    1.239    27 C    1.172
    27   6 C    3.958 --    28 C    1.655    26 C    1.172    50 H    0.973
    28   6 C    3.955 --    27 C    1.655    29 C    1.171    51 H    0.976
    29   6 C    3.917 --     2 C    1.361    30 N    1.229    28 C    1.171
    30   7 N    3.243 --    26 C    1.239    29 C    1.229     1 Cu   0.505
    31   7 N    3.248 --    15 C    1.257    18 C    1.221     1 Cu   0.503
    32   6 C    3.988 --    37 C    1.396    33 C    1.396     8 C    1.025
                            35 C    0.108
    33   6 C    3.988 --    34 C    1.447    32 C    1.396    52 H    0.973
                            36 C    0.110
    34   6 C    3.995 --    33 C    1.447    35 C    1.438    53 H    0.973
                            37 C    0.110
    35   6 C    3.990 --    36 C    1.438    34 C    1.438    54 H    0.974
                            32 C    0.108
    36   6 C    3.995 --    37 C    1.447    35 C    1.438    55 H    0.973
                            33 C    0.110
    37   6 C    3.988 --    36 C    1.447    32 C    1.396    56 H    0.973
                            34 C    0.110
    38   1 H    1.002 --     2 C    0.971
    39   1 H    0.998 --     4 C    0.976
    40   1 H    1.005 --     5 C    0.973
    41   1 H    1.005 --    10 C    0.973
    42   1 H    1.002 --    11 C    0.974
    43   1 H    1.002 --    16 C    0.974
    44   1 H    1.005 --    17 C    0.973
    45   1 H    1.005 --    21 C    0.973
    46   1 H    1.003 --    22 C    0.973
    47   1 H    1.003 --    23 C    0.974
    48   1 H    1.003 --    24 C    0.973
    49   1 H    1.005 --    25 C    0.973
    50   1 H    1.005 --    27 C    0.973
    51   1 H    0.998 --    28 C    0.976
    52   1 H    1.005 --    33 C    0.973
    53   1 H    1.003 --    34 C    0.973
    54   1 H    1.003 --    35 C    0.974
    55   1 H    1.003 --    36 C    0.973
    56   1 H    1.005 --    37 C    0.973
    57  29 Cu   2.186 --    63 N    0.506    86 N    0.505    87 N    0.503
                            68 N    0.503
    58   6 C    3.929 --    85 C    1.361    59 C    1.361    94 H    0.971
    59   6 C    3.917 --    58 C    1.361    63 N    1.229    60 C    1.171
    60   6 C    3.955 --    61 C    1.655    59 C    1.171    95 H    0.976
    61   6 C    3.958 --    60 C    1.655    62 C    1.173    96 H    0.973
    62   6 C    3.913 --    64 C    1.320    63 N    1.238    61 C    1.173
    63   7 N    3.244 --    62 C    1.238    59 C    1.229    57 Cu   0.506
    64   6 C    3.935 --    65 C    1.327    62 C    1.320    88 C    1.025
    65   6 C    3.909 --    64 C    1.327    68 N    1.222    66 C    1.179
    66   6 C    3.954 --    67 C    1.642    65 C    1.179    97 H    0.973
    67   6 C    3.957 --    66 C    1.642    69 C    1.187    98 H    0.974
    68   7 N    3.248 --    69 C    1.257    65 C    1.222    57 Cu   0.503
    69   6 C    3.899 --    70 C    1.261    68 N    1.257    67 C    1.187
    70   6 C    3.939 --    69 C    1.261    71 C    1.260   116 C    1.185
    71   6 C    3.898 --    70 C    1.260    87 N    1.257    72 C    1.187
    72   6 C    3.957 --    73 C    1.643    71 C    1.187    99 H    0.974
    73   6 C    3.954 --    72 C    1.643    74 C    1.179   100 H    0.973
    74   6 C    3.909 --    75 C    1.328    87 N    1.221    73 C    1.179
    75   6 C    3.935 --    74 C    1.328    82 C    1.320    76 C    1.024
    76   6 C    3.988 --    77 C    1.397    81 C    1.396    75 C    1.024
                            79 C    0.108
    77   6 C    3.988 --    78 C    1.447    76 C    1.397   101 H    0.973
                            80 C    0.110
    78   6 C    3.995 --    77 C    1.447    79 C    1.438   102 H    0.973
                            81 C    0.110
    79   6 C    3.991 --    78 C    1.438    80 C    1.438   103 H    0.974
                            76 C    0.108
    80   6 C    3.995 --    81 C    1.447    79 C    1.438   104 H    0.973
                            77 C    0.110
    81   6 C    3.988 --    80 C    1.447    76 C    1.396   105 H    0.973
                            78 C    0.110
    82   6 C    3.913 --    75 C    1.320    86 N    1.239    83 C    1.172
    83   6 C    3.958 --    84 C    1.655    82 C    1.172   106 H    0.973
    84   6 C    3.955 --    83 C    1.655    85 C    1.171   107 H    0.976
    85   6 C    3.917 --    58 C    1.361    86 N    1.230    84 C    1.171
    86   7 N    3.243 --    82 C    1.239    85 C    1.230    57 Cu   0.505
    87   7 N    3.248 --    71 C    1.257    74 C    1.221    57 Cu   0.503
    88   6 C    3.988 --    93 C    1.396    89 C    1.396    64 C    1.025
                            91 C    0.108
    89   6 C    3.988 --    90 C    1.447    88 C    1.396   108 H    0.973
                            92 C    0.110
    90   6 C    3.995 --    89 C    1.447    91 C    1.438   109 H    0.973
                            93 C    0.110
    91   6 C    3.990 --    92 C    1.438    90 C    1.438   110 H    0.974
                            88 C    0.108
    92   6 C    3.995 --    93 C    1.447    91 C    1.438   111 H    0.973
                            89 C    0.110
    93   6 C    3.988 --    92 C    1.447    88 C    1.396   112 H    0.973
                            90 C    0.110
    94   1 H    1.002 --    58 C    0.971
    95   1 H    0.998 --    60 C    0.976
    96   1 H    1.005 --    61 C    0.973
    97   1 H    1.005 --    66 C    0.973
    98   1 H    1.002 --    67 C    0.974
    99   1 H    1.002 --    72 C    0.974
   100   1 H    1.005 --    73 C    0.973
   101   1 H    1.005 --    77 C    0.973
   102   1 H    1.003 --    78 C    0.973
   103   1 H    1.003 --    79 C    0.974
   104   1 H    1.003 --    80 C    0.973
   105   1 H    1.005 --    81 C    0.973
   106   1 H    1.005 --    83 C    0.973
   107   1 H    0.998 --    84 C    0.976
   108   1 H    1.005 --    89 C    0.973
   109   1 H    1.003 --    90 C    0.973
   110   1 H    1.003 --    91 C    0.974
   111   1 H    1.003 --    92 C    0.973
   112   1 H    1.005 --    93 C    0.973
   113   6 C    3.936 --   114 C    2.481   115 C    1.305
   114   6 C    3.927 --   113 C    2.481    14 C    1.185   116 C    0.200
   115   6 C    3.936 --   116 C    2.481   113 C    1.305
   116   6 C    3.927 --   115 C    2.481    70 C    1.185   114 C    0.200
 ---------------------------------------------------------------------------

           -------------------------------------------------
          | TOTAL ENERGY             -198.671725123723 Eh   |
          | GRADIENT NORM               0.000738077813 Eh/α |
          | HOMO-LUMO GAP               0.000058377757 eV   |
           -------------------------------------------------

 * finished run on 2022/07/30 at 08:44:27.335
