   * xtb version 6.5.1 (b24c23e) compiled by 'conda@728c89f4b128' on 2022-07-12
          program call               : xtb Fe_Py_C4_4.xyz --gfn 1 --opt -T 48

   ID    Z sym.   atoms
    1   26 Fe     1, 55, 121, 174
    2    6 C      2-6, 8-11, 13-17, 19-24, 26-29, 31-36, 56-60, 62-65, 67-71,
                  73-78, 80-83, 85-90, 109-120, 122-126, 128-131, 133-137,
                  139-144, 146-149, 151-156, 175-179, 181-184, 186-190,
                  192-197, 199-202, 204-209
    3    7 N      7, 12, 18, 25, 30, 37, 61, 66, 72, 79, 84, 91, 127, 132,
                  138, 145, 150, 157, 180, 185, 191, 198, 203, 210
    4    1 H      38-54, 92-108, 158-173, 211-226

          :  Hamiltonian                  GFN1-xTB          :
 * total energy  :  -401.7568024 Eh     change        0.1398104E-07 Eh
 * total energy  :  -402.2098185 Eh     change       -0.4530161E+00 Eh
 * total energy  :  -402.3854379 Eh     change       -0.1756194E+00 Eh
 * total energy  :  -402.4626754 Eh     change       -0.7723753E-01 Eh
 * total energy  :  -402.5260836 Eh     change       -0.6340818E-01 Eh
 * total energy  :  -402.5878202 Eh     change       -0.6173661E-01 Eh
 * total energy  :  -402.6350787 Eh     change       -0.4725854E-01 Eh
 * total energy  :  -402.6639116 Eh     change       -0.2883287E-01 Eh
 * total energy  :  -402.6867043 Eh     change       -0.2279271E-01 Eh
 * total energy  :  -402.7046970 Eh     change       -0.1799270E-01 Eh
 * total energy  :  -402.8226144 Eh     change       -0.2826393E-04 Eh
 * total energy  :  -402.8226342 Eh     change       -0.1976805E-04 Eh
 * total energy  :  -402.8226480 Eh     change       -0.1378836E-04 Eh
 * total energy  :  -402.8226540 Eh     change       -0.6062399E-05 Eh
 * total energy  :  -402.8226644 Eh     change       -0.1032035E-04 Eh
 * total energy  :  -402.8226705 Eh     change       -0.6173345E-05 Eh
 * total energy  :  -402.8226733 Eh     change       -0.2804911E-05 Eh
 * total energy  :  -402.8226831 Eh     change       -0.9771239E-05 Eh
 * total energy  :  -402.8226863 Eh     change       -0.3162132E-05 Eh
   *** GEOMETRY OPTIMIZATION CONVERGED AFTER 99 ITERATIONS ***

 final structure:
================
226
 xtb: 6.5.1 (b24c23e)
Fe          37.13847985052784       -0.00752729463852       -0.01340439111513
C           33.75118678628265       -0.02802788688781       -0.03266814134067
C           34.40323189271672       -1.24246607104549        0.02723184743471
C           33.72788308477722       -2.50390310016855        0.08396450147105
C           34.68263763657070       -3.44793654398198        0.25630695848937
C           35.94185178465124       -2.76183488818572        0.29936207568594
N           35.75838121107979       -1.41574162458743        0.13372008671432
C           37.15327709816636       -3.37906448458447        0.59157671141139
C           37.15787297655602       -4.83937423826290        0.84593279743573
C           37.46873906624692       -5.35586681376892        2.10257170854100
C           37.45692479843824       -6.72945646241620        2.28875867878666
N           37.16599373664185       -7.58947627690043        1.31819378138498
C           36.87097791026656       -7.10437752927529        0.11649739397549
C           36.85096326956003       -5.74758113654874       -0.16602536301671
C           38.35597680449727       -2.69084547253270        0.65521493467504
C           39.61742213969389       -3.30680573882036        0.94321013532906
C           40.56473620432300       -2.35214083199587        0.78217325685377
N           38.53483528660510       -1.36426053774821        0.34116786321892
C           39.88157495530323       -1.15924018250524        0.38901636366617
C           40.54487554611141        0.01081314810098       -0.00011350873655
C           39.87101337391712        1.17514122931681       -0.38760303677115
C           40.54008876203035        2.36635340153337       -0.80850038846478
C           39.58346262430835        3.31188844977658       -0.97084772141207
C           38.33261811241599        2.69506203424850       -0.64188108498430
N           38.52325098346722        1.37084961457674       -0.32712297649044
C           37.12000449568697        3.36879334928872       -0.60413260253385
C           37.11301205130873        4.82827073188788       -0.85345872336384
C           36.41453134048585        5.37775964837281       -1.92787126869246
C           36.44036893652249        6.75025032007742       -2.11893509839583
N           37.09951942685425        7.58094133249901       -1.31765715043692
C           37.76588746765838        7.06537848565289       -0.28967447486238
C           37.80520803531164        5.70645756722217       -0.02034586085087
C           35.91080351235410        2.73202138180401       -0.34481709870604
C           34.64754850051192        3.40699789233512       -0.26369801764360
C           33.70182378200879        2.45026778972029       -0.11094710191822
C           34.38894636052216        1.19431100180258       -0.08532775228757
N           35.74216633433704        1.38282507666220       -0.19028912773222
H           32.66702807016182       -0.03457691643201       -0.03321402769629
H           32.65915887900420       -2.62910702683950        0.01233557279363
H           34.55733250217958       -4.51323080411081        0.36250965074085
H           37.70201610118563       -4.69131009629526        2.92582891530522
H           37.69126426180386       -7.15659159184614        3.25943273650206
H           36.63996020646804       -7.83217709237825       -0.65584539725447
H           36.61428441446918       -5.39684908683072       -1.16342805394228
H           39.75198824299555       -4.34064972844373        1.21634199877843
H           41.63298675702205       -2.43647834358524        0.90062201073700
H           41.60492398017684        2.45347307159596       -0.95297282735051
H           39.70288819268582        4.33467629784357       -1.28904079537513
H           35.87240577744421        4.73762228471258       -2.61359166602642
H           35.90820496264026        7.20140586746882       -2.95129816917354
H           38.29239578082820        7.76963565216253        0.34781436071118
H           38.35297726996993        5.33137044426185        0.83592032983851
H           34.51477665217710        4.47541513621380       -0.31568040022454
H           32.63323916789121        2.56489492182083       -0.02169253514869
Fe          77.40370864690881        0.04363966787660       -0.01811144765212
C           80.79484751719421        0.05714469770931       -0.05984690716443
C           80.14411111816732        1.26187649741029       -0.22735830711912
C           80.82217781679782        2.51323522789254       -0.38408661052334
C           79.86582273498102        3.44957651686795       -0.58673723951242
C           78.60523846075212        2.76519535405244       -0.56637505723603
N           78.78721682758072        1.43305001730426       -0.31219728205182
C           77.38287776335808        3.38257910407440       -0.80937897977696
C           77.37344504959759        4.82513232022830       -1.14539768843837
C           76.73857844587835        5.75410485884686       -0.32208428699085
C           76.75914323961476        7.09418699730258       -0.67510460023450
N           77.35441366437617        7.54424099385492       -1.77492017449166
C           77.95851831061876        6.66444302416249       -2.56704743408265
C           77.99793430464395        5.30587535906788       -2.29545759071204
C           76.17210731755011        2.70806280501870       -0.75397056195206
C           74.90786390786921        3.31019055126415       -1.05793760103688
C           73.96219693245423        2.36682152310311       -0.83329443053903
N           75.99868693617098        1.39581958011964       -0.38242720115884
C           74.65149641104317        1.19166117039906       -0.39997471381573
C           73.99241347096878        0.02470507166090        0.00638514367309
C           74.66908322562089       -1.13241439149640        0.41194731569684
C           73.99600134609828       -2.32322660233839        0.82799783364187
C           74.95505999259443       -3.25351989158519        1.04911585100628
C           76.21282508895295       -2.62415888592338        0.77392697430328
N           76.01930040473981       -1.31545680073107        0.39841727210585
C           77.43003402509845       -3.28825743243807        0.79739558997236
C           77.44348486180239       -4.72859484477205        1.14758610151662
C           77.80922224051628       -5.69508876011112        0.21206574979253
C           77.80338771589804       -7.03025440479738        0.58422442755803
N           77.46837474881558       -7.44079827270918        1.80305118747950
C           77.12135929419502       -6.52480198921937        2.70126453574073
C           77.09093666274735       -5.16727321223963        2.42273893917838
C           78.63975581276567       -2.66703131559496        0.50647544309717
C           79.91026073854432       -3.33179095772230        0.55207020297499
C           80.85298456870338       -2.39089628131916        0.31116049678318
C           80.15838433210024       -1.15247162636520        0.12621899107393
N           78.80461781605594       -1.33678376263593        0.23128037067512
H           81.87902291069786        0.06232616894101       -0.06814425878636
H           81.89227652784008        2.63887366706497       -0.33895476472494
H           79.98924474381718        4.51019008725853       -0.73390504347810
H           76.24929946114179        5.43303498793319        0.58972428740064
H           76.27659723330602        7.83755441763040       -0.04732801104735
H           78.43294066309480        7.06263431272280       -3.45919811880180
H           78.49343161260903        4.62344179239640       -2.97562923890487
H           74.77283241054012        4.32181549373974       -1.40420835999199
H           72.89281461494998        2.44479822963413       -0.94555152631428
H           72.92667305328453       -2.42222022045481        0.92275438486311
H           74.83162346194595       -4.27894645786500        1.35685314001577
H           78.08033287132847       -5.40639047437332       -0.79639243698716
H           78.07987730027840       -7.80257024452860       -0.12757141026162
H           76.85508284875662       -6.89151148790265        3.68826643591916
H           76.81079486378455       -4.45465646721405        3.18922612974725
H           80.05014918430516       -4.38058463638333        0.75758526271106
H           81.92478019593806       -2.50291880969195        0.27024369846923
C           43.17005327222438        0.01705396624522       -0.00756209897904
C           41.94635584195080        0.01513098230839       -0.00490020711634
C           44.51657391359930        0.01487725149983       -0.01686586882297
C           45.74043160222556        0.01012270384460       -0.02182192579490
C           56.60660542296435        0.01955670472062       -0.02448931931920
C           55.38158619595195        0.02416065072758       -0.01778914002489
C           57.95076086216324        0.01257310991680       -0.03195628634109
C           59.17573717933466        0.00396034422355       -0.03916042242510
C           70.02227165896525        0.01034278316243       -0.00377694687647
C           68.79788277262244        0.00972378497824       -0.01286573514270
C           71.36781622098086        0.01383950403141        0.00037903669718
C           72.59203165498292        0.01527493842760        0.00417358305118
Fe          50.56221907471751        0.00526077726318       -0.03217035007249
C           47.14124217951839        0.00706824976639       -0.02628960901045
C           47.81061269233514       -0.85381408624397        0.85217574245212
C           47.13025045310432       -1.71050487249999        1.77134764338842
C           48.08565800488281       -2.42520732656834        2.41349641013181
C           49.34444977237136       -2.00449170863424        1.87611373753272
N           49.16082209454402       -1.02151716970074        0.93516505014582
C           50.56562529873601       -2.54262682943676        2.26250389393053
C           50.56435492154823       -3.64670517010120        3.25090813454214
C           49.98406518666881       -4.87931611330200        2.95556883044834
C           50.00975304630555       -5.88295883669741        3.91120554170453
N           50.55918154709281       -5.72614486168663        5.11110163730078
C           51.11112220779858       -4.55259654519399        5.40138724701684
C           51.14194520018695       -3.49147933484531        4.51006258963759
C           51.78539153225383       -2.09797274187494        1.77224263999328
C           53.04688948807952       -2.66721721662581        2.14070445974773
C           54.00034968704603       -1.94436364081175        1.50513519434125
N           51.96717621338684       -1.05565927665451        0.89518695533694
C           53.31616053145122       -0.94546123303777        0.74581160201077
C           53.98329517100265        0.02230510172298       -0.01759227531155
C           53.31235678922992        0.98206387121148       -0.78775718077567
C           53.99250021463320        1.98384847715174       -1.54686085873954
C           53.03762492473987        2.68645517123967       -2.20276992759670
C           51.77937235271391        2.10281684558666       -1.84581979884476
N           51.96386844042475        1.07299739288447       -0.95488815498879
C           50.56007884262202        2.52680434510120       -2.35599382251984
C           50.56023835996405        3.61039727536856       -3.36649067266451
C           51.16288859916056        3.43564914172535       -4.61141188017375
C           51.13490481013180        4.47640970504247       -5.52639094089862
N           50.56210679170106        5.64839418521612       -5.27238097450659
C           49.98853606474272        5.82389708607363       -4.08647296842382
C           49.95887211271526        4.84145431079407       -3.10911345353575
C           49.34000851902535        1.98885140118564       -1.96577375103795
C           48.07974288344585        2.40088166446964       -2.50654380383246
C           47.12558174224254        1.70237542349132       -1.84497923339998
C           47.80830824749405        0.85977563681589       -0.91465902145055
N           49.15834230848228        1.02261600008584       -1.00703801380877
H           46.06051252125730       -1.74800352146506        1.89906598462552
H           47.95951521220940       -3.16586666776379        3.18605159776677
H           49.53254038634791       -5.05375255907949        1.98630072644273
H           49.56924625617683       -6.85367887567610        3.70364344858176
H           51.54900836694827       -4.45511441337543        6.39042635625723
H           51.59468504168185       -2.54858516022132        4.79251300299863
H           53.17599232740829       -3.51289769628483        2.79608640204615
H           55.07103419769790       -2.06593432296243        1.53645614736962
H           55.06159382454560        2.12116301630144       -1.56393510202530
H           53.16362540699323        3.52815397815581       -2.86385525836747
H           51.63306355494120        2.49296386090515       -4.86457135985197
H           51.59281463337170        4.36331783925011       -6.50463648594925
H           49.53152300132888        6.79287350605999       -3.90856711937285
H           49.48851360866031        5.03185743631786       -2.15188305144310
H           47.95120200261176        3.12593409038266       -3.29334627352872
H           46.05535060853968        1.74009941233446       -1.96844054928426
Fe          63.98624455211460       -0.00162313583464       -0.03558789453835
C           60.57356080170949       -0.00198390624016       -0.04220451429261
C           61.24340988933775       -0.83804860681575        0.86248995453802
C           60.57052851759868       -1.66299018430500        1.81582097282618
C           61.52499361128229       -2.40856785697718        2.42455228962969
C           62.77527681638734       -2.04117834796061        1.83055583529713
N           62.58881270331077       -1.04411961740197        0.90384512585300
C           63.98413803071605       -2.66522456020395        2.10970060050490
C           63.98754231015038       -3.81029093868405        3.04842257680418
C           63.27862927386503       -4.97828634966705        2.77109486726639
C           63.31553025306160       -6.02203746315410        3.68238119290252
N           63.99358759243910       -5.96309463368050        4.82386802952906
C           64.66916679961618       -4.85169112258552        5.09715470944003
C           64.70017573871245       -3.75851634416172        4.24576381896562
C           65.19296256268696       -2.26377156215277        1.55331345049031
C           66.44078529696792       -2.92821983932573        1.78041824106178
C           67.39651218788096       -2.17824488629256        1.17860905308841
N           65.38062749389800       -1.14692348380533        0.77721516374742
C           66.72685472603158       -1.06613129243451        0.58194037058997
C           67.39875842148210        0.00665399784459       -0.01987804619012
C           66.72696141451947        1.07563571986842       -0.62865122620935
C           67.39634548935990        2.19150743403635       -1.21851232560878
C           66.44258402875400        2.93613549499520       -1.83007553622368
C           65.19627150346410        2.26446539820771       -1.61620030687802
N           65.38231660469499        1.14911385939935       -0.83747326187077
C           63.99066392091834        2.65842138589335       -2.18518798340146
C           63.99580048405493        3.80552421040435       -3.12113819145461
C           64.72815163219492        3.76678211521657       -4.30704103579392
C           64.69935472308082        4.86347017621110       -5.15400642568542
N           64.00721779497428        5.96624721161297       -4.88727633771097
C           63.30969309676551        6.01263237134950       -3.75700642526394
C           63.26960320543255        4.96464394194693       -2.85081029146255
C           62.78258866530798        2.02818352559421       -1.91609899520075
C           61.53528343644910        2.38873458778140       -2.52052863159266
C           60.57836097205745        1.64637419070137       -1.91162078800905
C           61.24708023026541        0.82866543503694       -0.94928189117933
N           62.59250915685646        1.03531128213189       -0.98557086495158
H           59.50580971730377       -1.66307397282728        1.98485746938756
H           61.40288109520498       -3.14068759416884        3.20595193720071
H           62.72040699819695       -5.07389266266417        1.84748301753800
H           62.77677606135637       -6.94445991038140        3.48667011297758
H           65.21083662793873       -4.83346703351522        6.03828035291816
H           65.25672561807285       -2.86831885837939        4.51345648170529
H           66.56035541733202       -3.84917690962529        2.32724806772221
H           68.46032259394315       -2.34820043387135        1.13835762620736
H           68.45870738611342        2.36746344965473       -1.16735146661959
H           66.56279005255736        3.85796219229602       -2.37529619031034
H           65.29846066699578        2.88384370289679       -4.56969520458106
H           65.25681850215373        4.85545659195910       -6.08598626539433
H           62.75722860862435        6.92801002631528       -3.56649043316114
H           62.69564272655784        5.05037615688959       -1.93590933514881
H           61.41656052489408        3.11435887440399       -3.30846531991246
H           59.51470754143223        1.64292983443943       -2.08730827295747

          :  Hamiltonian                  GFN1-xTB          :
         :: total energy            -402.822686285087 Eh    ::
         :: gradient norm              0.000573516729 Eh/a0 ::
         :: HOMO-LUMO gap              0.035546283105 eV    ::
         :: SCC energy              -409.287919931933 Eh    ::
         :: repulsion energy           6.676538686988 Eh    ::

    * Orbital Energies and Occupations

         #    Occupation            Energy/Eh            Energy/eV
      -------------------------------------------------------------
         1        2.0000           -0.7798058             -21.2196
       ...           ...                  ...                  ...
       361        1.9923           -0.3954490             -10.7607
       362        1.9919           -0.3954001             -10.7594
       363        1.9918           -0.3953845             -10.7590
       364        1.9895           -0.3951525             -10.7526
       365        1.9704           -0.3941589             -10.7256
       366        1.9701           -0.3941470             -10.7253
       367        1.9630           -0.3939422             -10.7197
       368        1.9583           -0.3938266             -10.7166
       369        1.9511           -0.3936716             -10.7123
       370        1.9482           -0.3936153             -10.7108
       371        1.9465           -0.3935839             -10.7100
       372        1.9428           -0.3935182             -10.7082
       373        0.9608           -0.3900943             -10.6150 (HOMO)
       374        0.3789           -0.3887880             -10.5795 (LUMO)
       375        0.3767           -0.3887810             -10.5793
       376        0.3392           -0.3886596             -10.5760
       377        0.3356           -0.3886476             -10.5756
       378                         -0.3543931              -9.6435
       379                         -0.3458611              -9.4114
       380                         -0.3389038              -9.2220
       381                         -0.3384511              -9.2097
       382                         -0.3371924              -9.1755
       383                         -0.3350144              -9.1162
       384                         -0.3345489              -9.1035
       ...                                ...                  ...
       792                          1.5029670              40.8978
      -------------------------------------------------------------
                  HL-Gap            0.0013063 Eh            0.0355 eV

Wiberg/Mayer (AO) data.
largest (>0.10) Wiberg bond orders for each atom

     #   Z sym  total        # sym  WBO       # sym  WBO       # sym  WBO
 ---------------------------------------------------------------------------
     1  26 Fe   3.106 --     7 N    0.667    37 N    0.666    18 N    0.660
                            25 N    0.659
     2   6 C    3.919 --     3 C    1.364    36 C    1.363    38 H    0.970
     3   6 C    3.924 --     2 C    1.364     7 N    1.208     4 C    1.172
     4   6 C    3.959 --     5 C    1.651     3 C    1.172    39 H    0.975
     5   6 C    3.961 --     4 C    1.651     6 C    1.174    40 H    0.973
     6   6 C    3.920 --     8 C    1.314     7 N    1.224     5 C    1.174
     7   7 N    3.380 --     6 C    1.224     3 C    1.208     1 Fe   0.667
     8   6 C    3.922 --    15 C    1.336     6 C    1.314     9 C    1.023
     9   6 C    3.986 --    10 C    1.395    14 C    1.394     8 C    1.023
                            12 N    0.107
    10   6 C    3.987 --    11 C    1.441     9 C    1.395    41 H    0.973
                            13 C    0.109
    11   6 C    3.972 --    10 C    1.441    12 N    1.416    42 H    0.972
                            14 C    0.109
    12   7 N    3.031 --    11 C    1.416    13 C    1.416     9 C    0.107
    13   6 C    3.972 --    14 C    1.441    12 N    1.416    43 H    0.972
                            10 C    0.109
    14   6 C    3.987 --    13 C    1.441     9 C    1.394    44 H    0.973
                            11 C    0.109
    15   6 C    3.918 --     8 C    1.336    18 N    1.198    16 C    1.178
    16   6 C    3.956 --    17 C    1.641    15 C    1.178    45 H    0.973
    17   6 C    3.960 --    16 C    1.641    19 C    1.186    46 H    0.973
    18   7 N    3.379 --    19 C    1.245    15 C    1.198     1 Fe   0.660
    19   6 C    3.904 --    20 C    1.252    18 N    1.245    17 C    1.186
    20   6 C    3.919 --    21 C    1.252    19 C    1.252   110 C    1.200
    21   6 C    3.904 --    20 C    1.252    25 N    1.244    22 C    1.187
    22   6 C    3.960 --    23 C    1.639    21 C    1.187    47 H    0.973
    23   6 C    3.957 --    22 C    1.639    24 C    1.179    48 H    0.973
    24   6 C    3.918 --    26 C    1.333    25 N    1.200    23 C    1.179
    25   7 N    3.378 --    21 C    1.244    24 C    1.200     1 Fe   0.659
    26   6 C    3.923 --    24 C    1.333    33 C    1.312    27 C    1.029
    27   6 C    3.986 --    28 C    1.392    32 C    1.392    26 C    1.029
                            30 N    0.106
    28   6 C    3.986 --    29 C    1.442    27 C    1.392    49 H    0.973
                            31 C    0.109
    29   6 C    3.972 --    28 C    1.442    30 N    1.416    50 H    0.972
                            32 C    0.109
    30   7 N    3.030 --    29 C    1.416    31 C    1.416    27 C    0.106
    31   6 C    3.972 --    32 C    1.442    30 N    1.416    51 H    0.972
                            28 C    0.109
    32   6 C    3.987 --    31 C    1.442    27 C    1.392    52 H    0.973
                            29 C    0.109
    33   6 C    3.921 --    26 C    1.312    37 N    1.225    34 C    1.175
    34   6 C    3.961 --    35 C    1.650    33 C    1.175    53 H    0.973
    35   6 C    3.959 --    34 C    1.650    36 C    1.173    54 H    0.975
    36   6 C    3.924 --     2 C    1.363    37 N    1.208    35 C    1.173
    37   7 N    3.380 --    33 C    1.225    36 C    1.208     1 Fe   0.666
    38   1 H    1.000 --     2 C    0.970
    39   1 H    0.997 --     4 C    0.975
    40   1 H    1.004 --     5 C    0.973
    41   1 H    1.003 --    10 C    0.973
    42   1 H    1.013 --    11 C    0.972
    43   1 H    1.013 --    13 C    0.972
    44   1 H    1.003 --    14 C    0.973
    45   1 H    1.004 --    16 C    0.973
    46   1 H    1.002 --    17 C    0.973
    47   1 H    1.002 --    22 C    0.973
    48   1 H    1.004 --    23 C    0.973
    49   1 H    1.004 --    28 C    0.973
    50   1 H    1.013 --    29 C    0.972
    51   1 H    1.013 --    31 C    0.972
    52   1 H    1.004 --    32 C    0.973
    53   1 H    1.004 --    34 C    0.973
    54   1 H    0.997 --    35 C    0.975
    55  26 Fe   3.090 --    91 N    0.663    61 N    0.663    79 N    0.656
                            72 N    0.656
    56   6 C    3.918 --    90 C    1.363    57 C    1.363    92 H    0.970
    57   6 C    3.924 --    56 C    1.363    61 N    1.209    58 C    1.173
    58   6 C    3.959 --    59 C    1.650    57 C    1.173    93 H    0.975
    59   6 C    3.962 --    58 C    1.650    60 C    1.175    94 H    0.973
    60   6 C    3.921 --    62 C    1.312    61 N    1.226    59 C    1.175
    61   7 N    3.378 --    60 C    1.226    57 C    1.209    55 Fe   0.663
    62   6 C    3.921 --    69 C    1.335    60 C    1.312    63 C    1.027
    63   6 C    3.986 --    68 C    1.393    64 C    1.393    62 C    1.027
                            66 N    0.107
    64   6 C    3.987 --    65 C    1.442    63 C    1.393    95 H    0.973
                            67 C    0.109
    65   6 C    3.972 --    64 C    1.442    66 N    1.416    96 H    0.972
                            68 C    0.109
    66   7 N    3.030 --    67 C    1.416    65 C    1.416    63 C    0.107
    67   6 C    3.972 --    68 C    1.442    66 N    1.416    97 H    0.972
                            64 C    0.109
    68   6 C    3.987 --    67 C    1.442    63 C    1.393    98 H    0.973
                            65 C    0.109
    69   6 C    3.918 --    62 C    1.335    72 N    1.199    70 C    1.178
    70   6 C    3.956 --    71 C    1.639    69 C    1.178    99 H    0.973
    71   6 C    3.960 --    70 C    1.639    73 C    1.187   100 H    0.973
    72   7 N    3.377 --    73 C    1.248    69 C    1.199    55 Fe   0.656
    73   6 C    3.904 --    74 C    1.249    72 N    1.248    71 C    1.187
    74   6 C    3.917 --    75 C    1.249    73 C    1.249   120 C    1.205
    75   6 C    3.904 --    74 C    1.249    79 N    1.249    76 C    1.187
    76   6 C    3.960 --    77 C    1.640    75 C    1.187   101 H    0.973
    77   6 C    3.956 --    76 C    1.640    78 C    1.178   102 H    0.973
    78   6 C    3.918 --    80 C    1.337    79 N    1.198    77 C    1.178
    79   7 N    3.377 --    75 C    1.249    78 C    1.198    55 Fe   0.656
    80   6 C    3.921 --    78 C    1.337    87 C    1.313    81 C    1.023
    81   6 C    3.986 --    86 C    1.394    82 C    1.394    80 C    1.023
                            84 N    0.107
    82   6 C    3.987 --    83 C    1.441    81 C    1.394   103 H    0.973
                            85 C    0.109
    83   6 C    3.972 --    82 C    1.441    84 N    1.416   104 H    0.972
                            86 C    0.109
    84   7 N    3.031 --    85 C    1.416    83 C    1.416    81 C    0.107
    85   6 C    3.972 --    86 C    1.441    84 N    1.416   105 H    0.972
                            82 C    0.109
    86   6 C    3.987 --    85 C    1.441    81 C    1.394   106 H    0.973
                            83 C    0.109
    87   6 C    3.920 --    80 C    1.313    91 N    1.226    88 C    1.174
    88   6 C    3.962 --    89 C    1.651    87 C    1.174   107 H    0.973
    89   6 C    3.959 --    88 C    1.651    90 C    1.172   108 H    0.975
    90   6 C    3.924 --    56 C    1.363    91 N    1.209    89 C    1.172
    91   7 N    3.378 --    87 C    1.226    90 C    1.209    55 Fe   0.663
    92   1 H    1.000 --    56 C    0.970
    93   1 H    0.997 --    58 C    0.975
    94   1 H    1.004 --    59 C    0.973
    95   1 H    1.003 --    64 C    0.973
    96   1 H    1.013 --    65 C    0.972
    97   1 H    1.013 --    67 C    0.972
    98   1 H    1.003 --    68 C    0.973
    99   1 H    1.004 --    70 C    0.973
   100   1 H    1.002 --    71 C    0.973
   101   1 H    1.002 --    76 C    0.973
   102   1 H    1.004 --    77 C    0.973
   103   1 H    1.003 --    82 C    0.973
   104   1 H    1.013 --    83 C    0.972
   105   1 H    1.013 --    85 C    0.972
   106   1 H    1.003 --    86 C    0.973
   107   1 H    1.004 --    88 C    0.973
   108   1 H    0.997 --    89 C    0.975
   109   6 C    3.924 --   110 C    2.450   111 C    1.325
   110   6 C    3.910 --   109 C    2.450    20 C    1.200   112 C    0.195
   111   6 C    3.919 --   112 C    2.447   109 C    1.325
   112   6 C    3.913 --   111 C    2.447   122 C    1.205   110 C    0.195
   113   6 C    3.918 --   114 C    2.432   115 C    1.338
   114   6 C    3.910 --   113 C    2.432   140 C    1.215   116 C    0.194
   115   6 C    3.918 --   116 C    2.432   113 C    1.338
   116   6 C    3.911 --   115 C    2.432   175 C    1.217   114 C    0.194
   117   6 C    3.918 --   118 C    2.441   119 C    1.330
   118   6 C    3.914 --   117 C    2.441   193 C    1.211   120 C    0.195
   119   6 C    3.924 --   120 C    2.443   117 C    1.330
   120   6 C    3.910 --   119 C    2.443    74 C    1.205   118 C    0.195
   121  26 Fe   3.033 --   127 N    0.645   157 N    0.645   145 N    0.644
                           138 N    0.643
   122   6 C    3.904 --   123 C    1.249   156 C    1.248   112 C    1.205
   123   6 C    3.906 --   122 C    1.249   127 N    1.248   124 C    1.190
   124   6 C    3.959 --   125 C    1.634   123 C    1.190   158 H    0.973
   125   6 C    3.958 --   124 C    1.634   126 C    1.183   159 H    0.973
   126   6 C    3.915 --   128 C    1.319   127 N    1.208   125 C    1.183
   127   7 N    3.367 --   123 C    1.248   126 C    1.208   121 Fe   0.645
   128   6 C    3.913 --   135 C    1.328   126 C    1.319   129 C    1.025
   129   6 C    3.986 --   134 C    1.393   130 C    1.393   128 C    1.025
                           132 N    0.107
   130   6 C    3.987 --   131 C    1.441   129 C    1.393   160 H    0.973
                           133 C    0.109
   131   6 C    3.972 --   130 C    1.441   132 N    1.416   161 H    0.972
                           134 C    0.109
   132   7 N    3.031 --   133 C    1.416   131 C    1.416   129 C    0.107
   133   6 C    3.972 --   134 C    1.441   132 N    1.416   162 H    0.972
                           130 C    0.109
   134   6 C    3.987 --   133 C    1.441   129 C    1.393   163 H    0.973
                           131 C    0.109
   135   6 C    3.916 --   128 C    1.328   138 N    1.203   136 C    1.182
   136   6 C    3.958 --   137 C    1.636   135 C    1.182   164 H    0.973
   137   6 C    3.959 --   136 C    1.636   139 C    1.190   165 H    0.973
   138   7 N    3.364 --   139 C    1.254   135 C    1.203   121 Fe   0.643
   139   6 C    3.905 --   138 N    1.254   140 C    1.242   137 C    1.190
   140   6 C    3.901 --   141 C    1.243   139 C    1.242   114 C    1.215
   141   6 C    3.905 --   145 N    1.254   140 C    1.243   142 C    1.190
   142   6 C    3.959 --   143 C    1.636   141 C    1.190   166 H    0.973
   143   6 C    3.958 --   142 C    1.636   144 C    1.182   167 H    0.973
   144   6 C    3.916 --   146 C    1.327   145 N    1.203   143 C    1.182
   145   7 N    3.364 --   141 C    1.254   144 C    1.203   121 Fe   0.644
   146   6 C    3.913 --   144 C    1.327   153 C    1.320   147 C    1.026
   147   6 C    3.986 --   152 C    1.393   148 C    1.393   146 C    1.026
                           150 N    0.107
   148   6 C    3.987 --   149 C    1.441   147 C    1.393   168 H    0.973
                           151 C    0.109
   149   6 C    3.972 --   148 C    1.441   150 N    1.416   169 H    0.972
                           152 C    0.109
   150   7 N    3.031 --   151 C    1.416   149 C    1.416   147 C    0.107
   151   6 C    3.972 --   152 C    1.441   150 N    1.416   170 H    0.972
                           148 C    0.109
   152   6 C    3.987 --   151 C    1.441   147 C    1.393   171 H    0.973
                           149 C    0.109
   153   6 C    3.915 --   146 C    1.320   157 N    1.208   154 C    1.183
   154   6 C    3.958 --   155 C    1.634   153 C    1.183   172 H    0.973
   155   6 C    3.959 --   154 C    1.634   156 C    1.191   173 H    0.973
   156   6 C    3.906 --   157 N    1.248   122 C    1.248   155 C    1.191
   157   7 N    3.367 --   156 C    1.248   153 C    1.208   121 Fe   0.645
   158   1 H    1.002 --   124 C    0.973
   159   1 H    1.004 --   125 C    0.973
   160   1 H    1.003 --   130 C    0.973
   161   1 H    1.013 --   131 C    0.972
   162   1 H    1.013 --   133 C    0.972
   163   1 H    1.003 --   134 C    0.973
   164   1 H    1.004 --   136 C    0.973
   165   1 H    1.002 --   137 C    0.973
   166   1 H    1.002 --   142 C    0.973
   167   1 H    1.004 --   143 C    0.973
   168   1 H    1.003 --   148 C    0.973
   169   1 H    1.013 --   149 C    0.972
   170   1 H    1.013 --   151 C    0.972
   171   1 H    1.003 --   152 C    0.973
   172   1 H    1.004 --   154 C    0.973
   173   1 H    1.002 --   155 C    0.973
   174  26 Fe   3.054 --   198 N    0.647   191 N    0.646   210 N    0.645
                           180 N    0.645
   175   6 C    3.901 --   176 C    1.242   209 C    1.241   116 C    1.217
   176   6 C    3.905 --   180 N    1.252   175 C    1.242   177 C    1.191
   177   6 C    3.959 --   178 C    1.634   176 C    1.191   211 H    0.973
   178   6 C    3.958 --   177 C    1.634   179 C    1.182   212 H    0.973
   179   6 C    3.916 --   181 C    1.325   180 N    1.202   178 C    1.182
   180   7 N    3.364 --   176 C    1.252   179 C    1.202   174 Fe   0.645
   181   6 C    3.913 --   179 C    1.325   188 C    1.319   182 C    1.029
   182   6 C    3.986 --   183 C    1.392   187 C    1.392   181 C    1.029
                           185 N    0.106
   183   6 C    3.986 --   184 C    1.441   182 C    1.392   213 H    0.973
                           186 C    0.109
   184   6 C    3.972 --   183 C    1.441   185 N    1.416   214 H    0.972
                           187 C    0.109
   185   7 N    3.031 --   184 C    1.416   186 C    1.416   182 C    0.106
   186   6 C    3.972 --   187 C    1.442   185 N    1.416   215 H    0.972
                           183 C    0.109
   187   6 C    3.986 --   186 C    1.442   182 C    1.392   216 H    0.973
                           184 C    0.109
   188   6 C    3.915 --   181 C    1.319   191 N    1.206   189 C    1.184
   189   6 C    3.958 --   190 C    1.633   188 C    1.184   217 H    0.973
   190   6 C    3.959 --   189 C    1.633   192 C    1.192   218 H    0.973
   191   7 N    3.366 --   192 C    1.248   188 C    1.206   174 Fe   0.646
   192   6 C    3.905 --   191 N    1.248   193 C    1.245   190 C    1.192
   193   6 C    3.903 --   194 C    1.245   192 C    1.245   118 C    1.211
   194   6 C    3.905 --   198 N    1.248   193 C    1.245   195 C    1.192
   195   6 C    3.959 --   196 C    1.633   194 C    1.192   219 H    0.973
   196   6 C    3.958 --   195 C    1.633   197 C    1.184   220 H    0.973
   197   6 C    3.915 --   199 C    1.318   198 N    1.207   196 C    1.184
   198   7 N    3.366 --   194 C    1.248   197 C    1.207   174 Fe   0.647
   199   6 C    3.913 --   206 C    1.325   197 C    1.318   200 C    1.030
   200   6 C    3.986 --   205 C    1.392   201 C    1.392   199 C    1.030
                           203 N    0.106
   201   6 C    3.986 --   202 C    1.441   200 C    1.392   221 H    0.973
                           204 C    0.109
   202   6 C    3.972 --   201 C    1.441   203 N    1.416   222 H    0.972
                           205 C    0.109
   203   7 N    3.030 --   204 C    1.416   202 C    1.416   200 C    0.106
   204   6 C    3.972 --   205 C    1.441   203 N    1.416   223 H    0.972
                           201 C    0.109
   205   6 C    3.986 --   204 C    1.441   200 C    1.392   224 H    0.973
                           202 C    0.109
   206   6 C    3.916 --   199 C    1.325   210 N    1.202   207 C    1.182
   207   6 C    3.958 --   208 C    1.634   206 C    1.182   225 H    0.973
   208   6 C    3.959 --   207 C    1.634   209 C    1.191   226 H    0.973
   209   6 C    3.905 --   210 N    1.252   175 C    1.241   208 C    1.191
   210   7 N    3.364 --   209 C    1.252   206 C    1.202   174 Fe   0.645
   211   1 H    1.001 --   177 C    0.973
   212   1 H    1.004 --   178 C    0.973
   213   1 H    1.003 --   183 C    0.973
   214   1 H    1.013 --   184 C    0.972
   215   1 H    1.013 --   186 C    0.972
   216   1 H    1.003 --   187 C    0.973
   217   1 H    1.004 --   189 C    0.973
   218   1 H    1.001 --   190 C    0.973
   219   1 H    1.001 --   195 C    0.973
   220   1 H    1.004 --   196 C    0.973
   221   1 H    1.003 --   201 C    0.973
   222   1 H    1.013 --   202 C    0.972
   223   1 H    1.013 --   204 C    0.972
   224   1 H    1.004 --   205 C    0.973
   225   1 H    1.004 --   207 C    0.973
   226   1 H    1.001 --   208 C    0.973
 ---------------------------------------------------------------------------

           -------------------------------------------------
          | TOTAL ENERGY             -402.822686285087 Eh   |
          | GRADIENT NORM               0.000573516729 Eh/α |
          | HOMO-LUMO GAP               0.035546283105 eV   |
           -------------------------------------------------

 * finished run on 2022/07/29 at 17:06:52.193
