   * xtb version 6.5.1 (b24c23e) compiled by 'conda@728c89f4b128' on 2022-07-12
          program call               : xtb Ni_PhNO2_C4_2.xyz --gfn 1 --opt -T 48

   ID    Z sym.   atoms
    1   28 Ni     1, 61
    2    6 C      2-6, 8-12, 16-20, 22-27, 29-33, 37-42, 62-66, 68-72, 76-80,
                  82-87, 89-93, 97-102, 121-124
    3    7 N      7, 13, 21, 28, 34, 43, 67, 73, 81, 88, 94, 103
    4    8 O      14, 15, 35, 36, 74, 75, 95, 96
    5    1 H      44-60, 104-120
########################################################################
[WARNING] Please study the warnings concerning your input carefully
-1- prog_main_parseArguments: Unknown option '-T' provided
########################################################################

          :  Hamiltonian                  GFN1-xTB          :
 * total energy  :  -245.0754869 Eh     change       -0.1809894E-09 Eh
 * total energy  :  -245.5166027 Eh     change       -0.4411158E+00 Eh
 * total energy  :  -245.6408093 Eh     change       -0.1242066E+00 Eh
 * total energy  :  -245.6767964 Eh     change       -0.3598710E-01 Eh
 * total energy  :  -245.6933402 Eh     change       -0.1654380E-01 Eh
 * total energy  :  -245.7014990 Eh     change       -0.8158860E-02 Eh
 * total energy  :  -245.7051101 Eh     change       -0.3611020E-02 Eh
 * total energy  :  -245.7070593 Eh     change       -0.1949289E-02 Eh
 * total energy  :  -245.7084309 Eh     change       -0.1371529E-02 Eh
 * total energy  :  -245.7091025 Eh     change       -0.6716222E-03 Eh
 * total energy  :  -245.7121108 Eh     change       -0.1677829E-04 Eh
 * total energy  :  -245.7121252 Eh     change       -0.1439110E-04 Eh
 * total energy  :  -245.7121341 Eh     change       -0.8903471E-05 Eh
 * total energy  :  -245.7121494 Eh     change       -0.1528966E-04 Eh
 * total energy  :  -245.7121634 Eh     change       -0.1398678E-04 Eh
 * total energy  :  -245.7121706 Eh     change       -0.7183743E-05 Eh
 * total energy  :  -245.7121786 Eh     change       -0.8031195E-05 Eh
 * total energy  :  -245.7121841 Eh     change       -0.5506903E-05 Eh
 * total energy  :  -245.7121875 Eh     change       -0.3356889E-05 Eh
   *** GEOMETRY OPTIMIZATION CONVERGED AFTER 39 ITERATIONS ***

 final structure:
================
124
 xtb: 6.5.1 (b24c23e)
Ni          15.94869827118379       -0.05127131963674       -0.01942338164414
C           12.55906702481358       -0.05390153560320       -0.16824967215844
C           13.21005674036889       -1.26922066279873       -0.20159322003730
C           12.53283140515058       -2.52858490686521       -0.26241996277791
C           13.48965657151076       -3.47826899700702       -0.37934033486672
C           14.75078480613228       -2.79558343116941       -0.40419864549139
N           14.57062180001604       -1.44414157202854       -0.25337350711663
C           15.97225486102593       -3.42695969604496       -0.60360029610611
C           15.98282377325107       -4.88451384922606       -0.86375760984479
C           16.65071676505233       -5.75354374356059        0.00411605056075
C           16.66163988409278       -7.11549162868048       -0.23613930959649
C           16.00312747028478       -7.61236498370909       -1.35717288219232
N           16.01401537410266       -9.04150755881614       -1.61600641243936
O           15.42271220043136       -9.43634149427358       -2.58789635139663
O           16.61178164085569       -9.74368921664781       -0.84182975209517
C           15.33440871171090       -6.76394816487502       -2.23487684893237
C           15.32530516299116       -5.40426259027403       -1.98281264609542
C           17.18347765479622       -2.74691890035615       -0.58063637733213
C           18.44818595285182       -3.36162967957012       -0.85023145545117
C           19.39339233282969       -2.41027065469407       -0.66017036437683
N           17.35071172010089       -1.41726640328444       -0.26920739744583
C           18.70417613940473       -1.21718936917620       -0.28392610105106
C           19.35955515715332       -0.04056505415358        0.08755658203409
C           18.67464067004282        1.12839124275192        0.42905478327359
C           19.33114776219880        2.32146309281830        0.85976674552816
C           18.36883494485429        3.26350244238884        1.00606387762918
C           17.12783611617408        2.64436779803323        0.65042133362823
N           17.32322159470021        1.31928577015472        0.33521477840238
C           15.91509120136288        3.31902198041375        0.59196483681162
C           15.89811887473751        4.77494146724660        0.86235854252597
C           15.16115765760928        5.28304112531096        1.93625898174127
C           15.13998345088125        6.64168504129752        2.19363867908176
C           15.85719060970415        7.50040637258909        1.36563299908374
N           15.83401977442097        8.92887535924978        1.62817905051074
O           15.18419439902694        9.31260101073814        2.56650787309527
O           16.46376733729179        9.64157846190881        0.88959213126063
C           16.59519178389628        7.01494360488354        0.28995770467572
C           16.61497101527943        5.65390205747816        0.04511630385394
C           14.71607208858715        2.68706386563479        0.28680252705879
C           13.46075415826008        3.36870509328808        0.15857094540562
C           12.52051809915160        2.41986225071048       -0.05762947384550
C           13.20280219398911        1.16180801078702       -0.07079957234786
N           14.55287436479636        1.33726253701726        0.10546373976833
H           11.47659681223379       -0.05447437954576       -0.21802555303908
H           11.46232314141989       -2.64939105476792       -0.21853451139063
H           13.36589025056124       -4.54724309098304       -0.43959938417761
H           17.14993390024400       -5.35519321562663        0.87961570057670
H           17.17140275401557       -7.79769895664559        0.43346069695998
H           14.83323137031951       -7.17539212723320       -3.10263455206739
H           14.81884145060649       -4.73155455214896       -2.66502321439551
H           18.58523056318419       -4.38680030316210       -1.15285149040400
H           20.46337210934517       -2.49387535523828       -0.76052822518359
H           20.39253303431309        2.41046330113466        1.02572456492580
H           18.47912457618489        4.28560356467111        1.32939052569176
H           14.61514715131940        4.60240499996883        2.57897453261660
H           14.57696359575241        7.04465146806370        3.02686858493818
H           17.14139776805852        7.70509501293133       -0.34170911339361
H           17.17636541606831        5.26397676429835       -0.79587922527041
H           13.33028180526208        4.43672066053344        0.22182363470074
H           11.45815372084230        2.54023962606781       -0.19687282504626
Ni          29.37537644158190        0.05563088329663        0.00109475196530
C           32.76490881516953        0.11418308676006       -0.13778828997766
C           32.11407958515299        1.25340320299348        0.28706121021398
C           32.79151782753947        2.44392982464098        0.70185286876261
C           31.83479239990125        3.36811175620823        0.95013637343364
C           30.57347657908922        2.74429601727336        0.67250252811355
N           30.75351198695688        1.43483918548797        0.30572081180146
C           29.35187700561465        3.40407178413638        0.72583695253213
C           29.34112627957776        4.85273683457452        1.03150806837812
C           28.67299787739157        5.33252637814986        2.16197461439243
C           28.66168407121356        6.68510420715783        2.45030076973924
C           29.32027476244744        7.56645895455024        1.59781250190755
N           29.30909738162341        8.98826463237257        1.89419637424841
O           29.90268816621994        9.71877799323669        1.14310654213381
O           28.70940588868723        9.34883182490309        2.87405554713168
C           29.98928480367623        7.10948889483709        0.46601435731990
C           29.99854972379368        5.75459970103607        0.18934065581261
C           28.14056888660553        2.76467316912871        0.49341266953708
C           26.87565905950058        3.43530538337293        0.47501906739718
C           25.93059647037398        2.48193198306894        0.29463165831219
N           27.97351753569611        1.41527938466897        0.28325517881352
C           26.62007609124852        1.23503842532550        0.19510023238001
C           25.96461412922567        0.00506462192252        0.09797249368086
C           26.64944081837442       -1.20673707004444       -0.02343616957041
C           25.99319900281442       -2.47442573597975       -0.07047826672274
C           26.95562355038711       -3.40249824942672       -0.28801612644677
C           28.19640978965566       -2.69495898250703       -0.38656573933197
N           28.00085287813959       -1.34831948666845       -0.18239858569436
C           29.40900908579075       -3.29829459482827       -0.69465834074308
C           29.42603675402649       -4.74941071935609       -0.98975787231101
C           30.16405933059716       -5.62282666061156       -0.18538886477952
C           30.18543463748133       -6.97885692170257       -0.45617720612642
C           29.46735933313701       -7.46474810204234       -1.54505702325927
N           29.49113309792283       -8.88737995285978       -1.83753954866792
O           30.14266990433870       -9.59456148002337       -1.11267339888338
O           28.85890793950843       -9.27167352572522       -2.78755982965797
C           28.72812511803870       -6.61168296738725       -2.35943784836924
C           28.70821978935717       -5.25811851271388       -2.07617082340960
C           30.60784412620058       -2.59779054957324       -0.74181537756869
C           31.86294054946156       -3.18143612252019       -1.11730391359323
C           32.80318142925390       -2.22065376495156       -0.96259516774217
C           32.12108764841503       -1.04953382066551       -0.50259386390039
N           30.77111333552692       -1.27842906432268       -0.40400401049356
H           33.84735120650718        0.13348574893230       -0.18440619008440
H           33.86209350716727        2.53963866356842        0.78680230983539
H           31.95880525440943        4.38181979131656        1.29463259880529
H           28.17383073794490        4.63467904900263        2.82398021044275
H           28.15164977144270        7.06607774563100        3.32685761633859
H           30.49050126959249        7.81659977332605       -0.18381722950707
H           30.50503655553083        5.38722214340856       -0.69551067216461
H           26.73834876825426        4.49906814249881        0.57932662899534
H           24.86053273503797        2.59674100232287        0.23364049263651
H           24.93192332061976       -2.61942017811857        0.05060306003607
H           26.84552446361120       -4.47133415676741       -0.37085639914229
H           30.71075206206248       -5.23261039027915        0.66510366254676
H           30.74938816336607       -7.66461612736633        0.16457653723004
H           28.18127584621782       -7.01485065215399       -3.20328135023449
H           28.14597082160417       -4.58152241747436       -2.70908006576022
H           31.99326491314396       -4.19519536133919       -1.45933442761309
H           33.86542189873715       -2.27990919969666       -1.13761774274997
C           21.98665700704901       -0.03357504810197        0.12557354792880
C           20.76544424094846       -0.03172280345581        0.11516492948133
C           23.33749321168625       -0.02279068121641        0.12656807329951
C           24.55866742155342       -0.01321142390529        0.12007141156685

          :  Hamiltonian                  GFN1-xTB          :
         :: total energy            -245.712187470928 Eh    ::
         :: gradient norm              0.000913165790 Eh/a0 ::
         :: HOMO-LUMO gap              1.246202376885 eV    ::
         :: SCC energy              -249.063877401683 Eh    ::
         :: repulsion energy           3.463776925590 Eh    ::

    * Orbital Energies and Occupations

         #    Occupation            Energy/Eh            Energy/eV
      -------------------------------------------------------------
         1        2.0000           -0.9240305             -25.1441
       ...           ...                  ...                  ...
       205        2.0000           -0.4483944             -12.2014
       206        2.0000           -0.4230142             -11.5108
       207        2.0000           -0.4230101             -11.5107
       208        2.0000           -0.4226548             -11.5010
       209        2.0000           -0.4226479             -11.5008
       210        2.0000           -0.4219997             -11.4832
       211        2.0000           -0.4217597             -11.4767
       212        2.0000           -0.4217583             -11.4766
       213        2.0000           -0.4207035             -11.4479
       214        2.0000           -0.4207011             -11.4479
       215        2.0000           -0.4205823             -11.4446
       216        2.0000           -0.4205809             -11.4446
       217        2.0000           -0.4099039             -11.1541 (HOMO)
       218                         -0.3641068              -9.9079 (LUMO)
       219                         -0.3599903              -9.7958
       220                         -0.3599792              -9.7955
       221                         -0.3529511              -9.6043
       222                         -0.3529355              -9.6039
       223                         -0.3510965              -9.5538
       224                         -0.3508915              -9.5482
       225                         -0.3499736              -9.5233
       226                         -0.3448746              -9.3845
       227                         -0.3448637              -9.3842
       228                         -0.3214997              -8.7485
       ...                                ...                  ...
       438                          1.4951844              40.6860
      -------------------------------------------------------------
                  HL-Gap            0.0457971 Eh            1.2462 eV

Wiberg/Mayer (AO) data.
largest (>0.10) Wiberg bond orders for each atom

     #   Z sym  total        # sym  WBO       # sym  WBO       # sym  WBO
 ---------------------------------------------------------------------------
     1  28 Ni   3.009 --    43 N    0.663     7 N    0.663    28 N    0.660
                            21 N    0.660
     2   6 C    3.936 --    42 C    1.365     3 C    1.365    44 H    0.970
     3   6 C    3.921 --     2 C    1.365     7 N    1.212     4 C    1.173
     4   6 C    3.960 --     5 C    1.651     3 C    1.173    45 H    0.974
     5   6 C    3.962 --     4 C    1.651     6 C    1.175    46 H    0.972
     6   6 C    3.920 --     8 C    1.320     7 N    1.224     5 C    1.175
     7   7 N    3.402 --     6 C    1.224     3 C    1.212     1 Ni   0.663
     8   6 C    3.937 --    18 C    1.324     6 C    1.320     9 C    1.032
     9   6 C    3.985 --    10 C    1.384    17 C    1.384     8 C    1.032
    10   6 C    3.987 --    11 C    1.463     9 C    1.384    47 H    0.971
                            16 C    0.102
    11   6 C    3.987 --    10 C    1.463    12 C    1.388    48 H    0.965
                            17 C    0.102
    12   6 C    3.942 --    11 C    1.388    16 C    1.387    13 N    0.920
    13   7 N    3.866 --    15 O    1.455    14 O    1.454    12 C    0.920
    14   8 O    1.829 --    13 N    1.454    15 O    0.252
    15   8 O    1.830 --    13 N    1.455    14 O    0.252
    16   6 C    3.987 --    17 C    1.463    12 C    1.387    49 H    0.965
                            10 C    0.102
    17   6 C    3.987 --    16 C    1.463     9 C    1.384    50 H    0.971
                            11 C    0.102
    18   6 C    3.915 --     8 C    1.324    21 N    1.209    19 C    1.183
    19   6 C    3.958 --    20 C    1.637    18 C    1.183    51 H    0.972
    20   6 C    3.961 --    19 C    1.637    22 C    1.190    52 H    0.973
    21   7 N    3.405 --    22 C    1.236    18 C    1.209     1 Ni   0.660
    22   6 C    3.903 --    23 C    1.266    21 N    1.236    20 C    1.190
    23   6 C    3.945 --    22 C    1.266    24 C    1.265   122 C    1.180
    24   6 C    3.903 --    23 C    1.265    28 N    1.237    25 C    1.190
    25   6 C    3.961 --    26 C    1.637    24 C    1.190    53 H    0.973
    26   6 C    3.958 --    25 C    1.637    27 C    1.183    54 H    0.973
    27   6 C    3.915 --    29 C    1.325    28 N    1.209    26 C    1.183
    28   7 N    3.405 --    24 C    1.237    27 C    1.209     1 Ni   0.660
    29   6 C    3.937 --    27 C    1.325    39 C    1.320    30 C    1.031
    30   6 C    3.985 --    38 C    1.384    31 C    1.384    29 C    1.031
    31   6 C    3.987 --    32 C    1.463    30 C    1.384    55 H    0.971
                            37 C    0.102
    32   6 C    3.987 --    31 C    1.463    33 C    1.388    56 H    0.964
                            38 C    0.102
    33   6 C    3.942 --    37 C    1.388    32 C    1.388    34 N    0.920
    34   7 N    3.866 --    36 O    1.455    35 O    1.455    33 C    0.920
    35   8 O    1.830 --    34 N    1.455    36 O    0.252
    36   8 O    1.830 --    34 N    1.455    35 O    0.252
    37   6 C    3.987 --    38 C    1.463    33 C    1.388    57 H    0.965
                            31 C    0.102
    38   6 C    3.987 --    37 C    1.463    30 C    1.384    58 H    0.971
                            32 C    0.102
    39   6 C    3.920 --    29 C    1.320    43 N    1.224    40 C    1.175
    40   6 C    3.963 --    41 C    1.651    39 C    1.175    59 H    0.973
    41   6 C    3.960 --    40 C    1.651    42 C    1.173    60 H    0.974
    42   6 C    3.921 --     2 C    1.365    43 N    1.212    41 C    1.173
    43   7 N    3.402 --    39 C    1.224    42 C    1.212     1 Ni   0.663
    44   1 H    0.999 --     2 C    0.970
    45   1 H    0.997 --     4 C    0.974
    46   1 H    1.003 --     5 C    0.972
    47   1 H    1.003 --    10 C    0.971
    48   1 H    1.006 --    11 C    0.965
    49   1 H    1.006 --    16 C    0.965
    50   1 H    1.003 --    17 C    0.971
    51   1 H    1.003 --    19 C    0.972
    52   1 H    1.001 --    20 C    0.973
    53   1 H    1.001 --    25 C    0.973
    54   1 H    1.003 --    26 C    0.973
    55   1 H    1.003 --    31 C    0.971
    56   1 H    1.006 --    32 C    0.964
    57   1 H    1.006 --    37 C    0.965
    58   1 H    1.003 --    38 C    0.971
    59   1 H    1.003 --    40 C    0.973
    60   1 H    0.997 --    41 C    0.974
    61  28 Ni   3.009 --   103 N    0.663    67 N    0.663    81 N    0.660
                            88 N    0.660
    62   6 C    3.936 --   102 C    1.365    63 C    1.365   104 H    0.970
    63   6 C    3.921 --    62 C    1.365    67 N    1.212    64 C    1.173
    64   6 C    3.960 --    65 C    1.651    63 C    1.173   105 H    0.974
    65   6 C    3.962 --    64 C    1.651    66 C    1.175   106 H    0.972
    66   6 C    3.920 --    68 C    1.320    67 N    1.224    65 C    1.175
    67   7 N    3.402 --    66 C    1.224    63 C    1.212    61 Ni   0.663
    68   6 C    3.937 --    78 C    1.324    66 C    1.320    69 C    1.032
    69   6 C    3.985 --    70 C    1.384    77 C    1.384    68 C    1.032
    70   6 C    3.987 --    71 C    1.463    69 C    1.384   107 H    0.971
                            76 C    0.102
    71   6 C    3.987 --    70 C    1.463    72 C    1.388   108 H    0.965
                            77 C    0.102
    72   6 C    3.941 --    71 C    1.388    76 C    1.387    73 N    0.920
    73   7 N    3.866 --    75 O    1.455    74 O    1.454    72 C    0.920
    74   8 O    1.829 --    73 N    1.454    75 O    0.252
    75   8 O    1.830 --    73 N    1.455    74 O    0.252
    76   6 C    3.987 --    77 C    1.463    72 C    1.387   109 H    0.965
                            70 C    0.102
    77   6 C    3.987 --    76 C    1.463    69 C    1.384   110 H    0.971
                            71 C    0.102
    78   6 C    3.915 --    68 C    1.324    81 N    1.209    79 C    1.183
    79   6 C    3.958 --    80 C    1.637    78 C    1.183   111 H    0.972
    80   6 C    3.961 --    79 C    1.637    82 C    1.190   112 H    0.973
    81   7 N    3.405 --    82 C    1.236    78 C    1.209    61 Ni   0.660
    82   6 C    3.903 --    83 C    1.266    81 N    1.236    80 C    1.190
    83   6 C    3.945 --    82 C    1.266    84 C    1.265   124 C    1.180
    84   6 C    3.903 --    83 C    1.265    88 N    1.237    85 C    1.190
    85   6 C    3.961 --    86 C    1.637    84 C    1.190   113 H    0.973
    86   6 C    3.958 --    85 C    1.637    87 C    1.183   114 H    0.973
    87   6 C    3.915 --    89 C    1.325    88 N    1.209    86 C    1.183
    88   7 N    3.405 --    84 C    1.237    87 C    1.209    61 Ni   0.660
    89   6 C    3.937 --    87 C    1.325    99 C    1.320    90 C    1.031
    90   6 C    3.985 --    98 C    1.384    91 C    1.384    89 C    1.031
    91   6 C    3.987 --    92 C    1.463    90 C    1.384   115 H    0.971
                            97 C    0.102
    92   6 C    3.987 --    91 C    1.463    93 C    1.388   116 H    0.964
                            98 C    0.102
    93   6 C    3.942 --    97 C    1.388    92 C    1.388    94 N    0.920
    94   7 N    3.866 --    96 O    1.455    95 O    1.455    93 C    0.920
    95   8 O    1.829 --    94 N    1.455    96 O    0.252
    96   8 O    1.830 --    94 N    1.455    95 O    0.252
    97   6 C    3.987 --    98 C    1.463    93 C    1.388   117 H    0.965
                            91 C    0.102
    98   6 C    3.987 --    97 C    1.463    90 C    1.384   118 H    0.971
                            92 C    0.102
    99   6 C    3.920 --    89 C    1.320   103 N    1.224   100 C    1.175
   100   6 C    3.963 --   101 C    1.651    99 C    1.175   119 H    0.973
   101   6 C    3.960 --   100 C    1.651   102 C    1.173   120 H    0.974
   102   6 C    3.921 --    62 C    1.365   103 N    1.212   101 C    1.173
   103   7 N    3.402 --    99 C    1.224   102 C    1.212    61 Ni   0.663
   104   1 H    0.999 --    62 C    0.970
   105   1 H    0.997 --    64 C    0.974
   106   1 H    1.003 --    65 C    0.972
   107   1 H    1.003 --    70 C    0.971
   108   1 H    1.006 --    71 C    0.965
   109   1 H    1.006 --    76 C    0.965
   110   1 H    1.003 --    77 C    0.971
   111   1 H    1.003 --    79 C    0.972
   112   1 H    1.001 --    80 C    0.973
   113   1 H    1.001 --    85 C    0.973
   114   1 H    1.003 --    86 C    0.973
   115   1 H    1.003 --    91 C    0.971
   116   1 H    1.006 --    92 C    0.964
   117   1 H    1.006 --    97 C    0.965
   118   1 H    1.003 --    98 C    0.971
   119   1 H    1.003 --   100 C    0.973
   120   1 H    0.997 --   101 C    0.974
   121   6 C    3.938 --   122 C    2.487   123 C    1.301
   122   6 C    3.928 --   121 C    2.487    23 C    1.180   124 C    0.200
   123   6 C    3.938 --   124 C    2.487   121 C    1.301
   124   6 C    3.928 --   123 C    2.487    83 C    1.180   122 C    0.200
 ---------------------------------------------------------------------------

           -------------------------------------------------
          | TOTAL ENERGY             -245.712187470928 Eh   |
          | GRADIENT NORM               0.000913165790 Eh/α |
          | HOMO-LUMO GAP               1.246202376885 eV   |
           -------------------------------------------------

 * finished run on 2022/07/30 at 04:55:49.565
