   * xtb version 6.5.1 (b24c23e) compiled by 'conda@728c89f4b128' on 2022-07-12
          program call               : xtb Cu_PhOH_C2_3.xyz --gfn 1 --opt -T 48

   ID    Z sym.   atoms
    1   29 Cu     1, 59, 121
    2    6 C      2-6, 8-12, 14-18, 20-25, 27-31, 33-38, 60-64, 66-70, 72-76,
                  78-83, 85-89, 91-96, 117-120, 122-126, 128-132, 134-138,
                  140-145, 147-151, 153-158
    3    7 N      7, 19, 26, 39, 65, 77, 84, 97, 127, 139, 146, 159
    4    8 O      13, 32, 71, 90, 133, 152
    5    1 H      40-58, 98-116, 160-177
########################################################################
[WARNING] Please study the warnings concerning your input carefully
-1- prog_main_parseArguments: Unknown option '-T' provided
########################################################################

          :  Hamiltonian                  GFN1-xTB          :
 * total energy  :  -320.7538425 Eh     change       -0.3166178E-09 Eh
 * total energy  :  -321.2924078 Eh     change       -0.5385653E+00 Eh
 * total energy  :  -321.4397843 Eh     change       -0.1473765E+00 Eh
 * total energy  :  -321.5088171 Eh     change       -0.6903275E-01 Eh
 * total energy  :  -321.5303484 Eh     change       -0.2153131E-01 Eh
 * total energy  :  -321.5399189 Eh     change       -0.9570489E-02 Eh
 * total energy  :  -321.5446359 Eh     change       -0.4717033E-02 Eh
 * total energy  :  -321.5475588 Eh     change       -0.2922891E-02 Eh
 * total energy  :  -321.5492185 Eh     change       -0.1659690E-02 Eh
 * total energy  :  -321.5502957 Eh     change       -0.1077202E-02 Eh
 * total energy  :  -321.5570242 Eh     change       -0.1019299E-04 Eh
 * total energy  :  -321.5570355 Eh     change       -0.1130773E-04 Eh
 * total energy  :  -321.5570490 Eh     change       -0.1352541E-04 Eh
 * total energy  :  -321.5570640 Eh     change       -0.1495917E-04 Eh
 * total energy  :  -321.5570778 Eh     change       -0.1381152E-04 Eh
 * total energy  :  -321.5570847 Eh     change       -0.6916104E-05 Eh
 * total energy  :  -321.5570915 Eh     change       -0.6816029E-05 Eh
 * total energy  :  -321.5570965 Eh     change       -0.4968469E-05 Eh
 * total energy  :  -321.5571015 Eh     change       -0.4983442E-05 Eh
   *** GEOMETRY OPTIMIZATION CONVERGED AFTER 47 ITERATIONS ***

 final structure:
================
177
 xtb: 6.5.1 (b24c23e)
Cu          33.68389988441506       -0.02400339928860       -0.04833746110838
C           30.27862656961488       -0.07016705537867       -0.09491433933002
C           30.91870494198533       -1.29907617995659       -0.03579969430157
C           30.24805659844109       -2.56456914886544        0.05115172145126
C           31.21040932548625       -3.51834769411579        0.10962697389584
C           32.47891799212722       -2.84453861124141        0.04572408319239
N           32.27000347328878       -1.49721024184597       -0.03162568685264
C           33.72585780680117       -3.47310787216599        0.07969430608362
C           33.74749129888887       -4.95535518477983        0.15827139031597
C           33.19613437355228       -5.73100974114903       -0.86162820906076
C           33.21902219669174       -7.11549746506621       -0.79013290005146
C           33.79250546800275       -7.74115677828855        0.31420146650811
O           33.83444689422086       -9.09447157114308        0.42542844413650
C           34.34366514327046       -6.97818792066845        1.34179295176127
C           34.32178558442719       -5.59722841989537        1.25815331649661
C           34.95628513746519       -2.81275744555981        0.04968259744689
C           36.23592454920018       -3.46279509020060        0.02711041726005
C           37.17806724351429       -2.48646002072178       -0.00469334096415
N           35.13981114948853       -1.45609773791076        0.01473295854595
C           36.48306760261872       -1.23436892354907       -0.01005356918379
C           37.11224463320723        0.02160245412428       -0.02371507106820
C           36.45067678832086        1.26060442539801       -0.03603649356239
C           37.11324774073460        2.52893332247589       -0.08899937001419
C           36.14580954796121        3.48027130035784       -0.12433893636332
C           34.88300011912310        2.79876640495707       -0.08730932638342
N           35.10180870826348        1.44764749578237       -0.03829433332842
C           33.63572652280952        3.42564867302597       -0.13502736456681
C           33.61532960101627        4.90966507594518       -0.17089276446182
C           34.13636049180325        5.65363964315072        0.89020555971842
C           34.11519619609049        7.03706481534194        0.86393407940365
C           33.57435693734146        7.69886609160231       -0.23661751272696
O           33.57164588257847        9.05746539105311       -0.23222452339436
C           33.05482517465181        6.97046467519786       -1.30412963449327
C           33.07420429343716        5.58476139284641       -1.26530299460055
C           32.40605389055071        2.76323622263378       -0.15292994495994
C           31.12018163652175        3.40651629675019       -0.15621707727761
C           30.18299481014409        2.42625330767731       -0.15147545682959
C           30.88647341670089        1.17582686478148       -0.13490305110585
N           32.23214606494824        1.40887190065880       -0.13572445758769
H           29.19352332291235       -0.08426513255025       -0.09399838300568
H           29.17710118729052       -2.69199450377314        0.07310233838655
H           31.07935692909349       -4.58470678370438        0.20021427999243
H           32.76101191725726       -5.24547298334944       -1.72810571392057
H           32.79470697197723       -7.71365285185052       -1.58945454322235
H           33.42051452995725       -9.52323501139478       -0.33548894498112
H           34.78284992000469       -7.47773575541076        2.19647156215238
H           34.74018863331452       -5.00359084947108        2.06329801895016
H           36.39080993904054       -4.52960448787510        0.02321557938198
H           38.25037652359297       -2.59710578202798       -0.02331366728884
H           38.18261330255351        2.66602575435217       -0.10809023701884
H           36.27339134133258        4.54887615457748       -0.18671526818217
H           34.54632118223945        5.13879162014966        1.75192787749899
H           34.51229959001461        7.61602352813370        1.68856108540206
H           33.17157048513165        9.41037433371259       -1.03825603914183
H           32.63912309238171        7.49029513463346       -2.16072025163494
H           32.68063399774682        5.01855733678361       -2.10220495591006
H           30.96118109726617        4.47290248111180       -0.14798708329769
H           29.10897240357776        2.52701390535548       -0.14971906215437
Cu          55.48663613378374        0.00170803003779       -0.01881742691117
C           58.89171206415575        0.03610482806131       -0.10564524482172
C           58.25242858607976        1.26338256460955       -0.19689254665915
C           58.92407704173053        2.52860019304910       -0.27853718949459
C           57.96254093378482        3.48383620292100       -0.32614212345753
C           56.69351177430446        2.80953150299428       -0.28530443019434
N           56.90113500427067        1.46242967608422       -0.20024136291365
C           55.44767455112566        3.44046752923983       -0.30516593763002
C           55.42719838356763        4.91976192397874       -0.42717484151064
C           55.95408121805652        5.54580902766025       -1.55704987419948
C           55.92910760451604        6.92665921808917       -1.67845697009578
C           55.37899294753213        7.70007984874907       -0.65901633121519
O           55.33591002609775        9.05563450091327       -0.73629445196667
C           54.85357246250052        7.08771536090207        0.47712843584378
C           54.87636026633445        5.70842645292303        0.58564688757904
C           54.21720040339879        2.78482795509803       -0.22372919239732
C           52.93807414434846        3.42961234387033       -0.31397651969940
C           51.99505005585974        2.45870361375630       -0.21595030240930
N           54.03254424800152        1.43504325183622       -0.08275169587382
C           52.68862653339220        1.21455936028426       -0.06893645857693
C           52.05752548365820       -0.03568494460748        0.04019589581145
C           52.71822578322503       -1.27129529018918        0.13662299919825
C           52.05563610297330       -2.53618956681707        0.24272707474252
C           53.02269528525266       -3.48559564786437        0.31699668124135
C           54.28550681707978       -2.80531116980932        0.26546239605797
N           54.06721601384834       -1.45837490863681        0.14765625749543
C           55.53224662533817       -3.43356704002127        0.30201008072720
C           55.55189642221080       -4.91007013083060        0.45875833692093
C           55.03975272671240       -5.50712667952963        1.61290634346307
C           55.06317899454719       -6.88177287008435        1.77014234857384
C           55.59681216322171       -7.68317609610997        0.76281105839576
O           55.60271193993247       -9.02904929622729        0.94767367227171
C           56.10639996070661       -7.10229794090165       -0.39606504828701
C           56.08537695925778       -5.72358666608574       -0.54094476244144
C           56.76215843235325       -2.77896526032763        0.20599086004050
C           58.04747203423464       -3.41937412774787        0.27611924618956
C           58.98527506896406       -2.44740496857818        0.15379983798362
C           58.28276942513364       -1.20354099272225        0.01977872659768
N           56.93688735359723       -1.43250971701133        0.05857277615421
H           59.97674820611552        0.04829231132010       -0.11830888492589
H           59.99523030673255        2.65590686002861       -0.28773788758832
H           58.09424165084062        4.55303198562008       -0.37088419974264
H           56.37065714060789        4.94398835163880       -2.35715312754100
H           56.33303438428121        7.40757426553762       -2.56294196668098
H           55.72675693990026        9.37368180786132       -1.56110963366714
H           54.43281899181662        7.70169928318644        1.26381510161015
H           54.47710330087578        5.23273929973194        1.47448035012520
H           52.78425219777017        4.48741582437434       -0.45331039966782
H           50.92305203114457        2.56685344377638       -0.25278180439996
H           50.98626247849516       -2.67301996839515        0.25764008633329
H           52.89522551296238       -4.55363697969728        0.38860630397687
H           54.63504720798711       -4.88283262852989        2.40168435652079
H           54.67365777041434       -7.34664056023059        2.66739399036853
H           55.99608260926019       -9.48575051744068        0.19206112945299
H           56.51622252710647       -7.73080750912774       -1.17950927351083
H           56.47214433995025       -5.27294219940696       -1.44825477067176
H           58.20549653022481       -4.47697209612616        0.41409439770314
H           60.05921620207606       -2.54876159063905        0.16076498699372
C           38.52303995748630        0.03696606250469       -0.03318314359569
C           39.73915938645294        0.04113014974569       -0.03551190544288
C           49.43004216127633       -0.04425002322829        0.04409453497763
C           50.64619871313975       -0.04814642731861        0.04242749844164
Cu          44.58357626744933        0.00788352765740       -0.00858899648961
C           41.14951760429755        0.03759970807103       -0.03542363441235
C           41.80100921611928        1.10574465514615        0.60323211279697
C           41.12870447167276        2.16099262510396        1.29946646800582
C           42.08843586367131        2.98866177546600        1.78561053660792
C           43.35489821953819        2.44704607535315        1.38247166192941
N           43.14730371918394        1.29715314106677        0.66835338025641
C           44.59752303320619        3.00111872499478        1.69739899608612
C           44.60419437658344        4.28342527287469        2.44462738800979
C           45.18530931245689        4.36212361590837        3.71263063894661
C           45.18938246862565        5.55236889440758        4.41799401559601
C           44.61425155569463        6.69053127049240        3.85587468855213
O           44.63819825725759        7.84324372537538        4.57376411982015
C           44.03501188027494        6.62855584611420        2.59060682791647
C           44.02880190754994        5.42936789870185        1.89499629630426
C           45.83482300587320        2.44058159243590        1.37201201178811
C           47.10665462794744        3.04743970491330        1.64308857305546
C           48.05906885882768        2.19903882768746        1.17894845028950
N           46.03189668541854        1.24343301814098        0.73752477299985
C           47.37736588399797        1.07523270705770        0.61120963562107
C           48.01926001252843       -0.03348301831497        0.03445699928511
C           47.36681179821112       -1.12681086044226       -0.55962562288825
C           48.03621994334880       -2.26353566772035       -1.11587175649992
C           47.07643421059864       -3.08331641535364       -1.61538129793336
C           45.81315314882816       -2.44661751618452       -1.37501061995035
N           46.02190414641713       -1.26037078775344       -0.72413064357638
C           44.57180077417564       -2.97240632697414       -1.74002249969458
C           44.56809783788120       -4.24333555906166       -2.50653381995783
C           43.95589534584535       -5.38484059567468       -1.98841921705049
C           43.95205163376821       -6.57261731218006       -2.70326172487026
C           44.55794702749661       -6.62708980519621       -3.95633285864806
O           44.57249753199367       -7.76900287019825       -4.69199417158170
C           45.17009418297990       -5.49323689226824       -4.48700292900583
C           45.17614596801464       -4.31463495422023       -3.76220320794323
C           43.33473406348694       -2.39518884640443       -1.44610795737355
C           42.06598822270138       -2.90733184609977       -1.87868928005976
C           41.11316886630567       -2.06993152794016       -1.39539407533770
C           41.79249091856042       -1.03620281071206       -0.67433494527274
N           43.13583986164463       -1.25013861399728       -0.72136771060967
H           40.05928981386939        2.24330686274803        1.41018800421284
H           41.95437484236017        3.87807681676972        2.37979782995529
H           45.62178150750663        3.47358472756844        4.15500530298444
H           45.63245719702487        5.61440235239684        5.40425377539712
H           44.21163210127969        8.56578539185959        4.09391042147924
H           43.59268895662886        7.51828146729734        2.15534859687895
H           43.58796041730000        5.38504116631237        0.90526022891346
H           47.24962284996853        4.00593244718500        2.11514850082722
H           49.12996761838406        2.31887009557805        1.21202090762052
H           49.10419714276740       -2.41145877312847       -1.11758204748400
H           47.20863022520847       -4.04125538964399       -2.09175927478448
H           43.49388247416685       -5.34626488885014       -1.00817805022255
H           43.48122223918649       -7.45945370542822       -2.29269402133504
H           44.12066522052313       -8.48894032792730       -4.23172347707871
H           45.63369194294122       -5.54906247836922       -5.46417233084200
H           45.64226411750015       -3.42913342980009       -4.17978842864117
H           41.92546332702464       -3.78512251007265       -2.48847126798556
H           40.04478071772918       -2.13131578052302       -1.52672556262264

          :  Hamiltonian                  GFN1-xTB          :
         :: total energy            -321.557101454402 Eh    ::
         :: gradient norm              0.000992829758 Eh/a0 ::
         :: HOMO-LUMO gap              0.000218215813 eV    ::
         :: SCC energy              -326.260270589768 Eh    ::
         :: repulsion energy           4.867492063297 Eh    ::

    * Orbital Energies and Occupations

         #    Occupation            Energy/Eh            Energy/eV
      -------------------------------------------------------------
         1        2.0000           -0.8043780             -21.8882
       ...           ...                  ...                  ...
       281        2.0000           -0.4061690             -11.0524
       282        2.0000           -0.4061430             -11.0517
       283        2.0000           -0.4060440             -11.0490
       284        2.0000           -0.4057636             -11.0414
       285        2.0000           -0.4055628             -11.0359
       286        2.0000           -0.3933574             -10.7038
       287        2.0000           -0.3932474             -10.7008
       288        2.0000           -0.3930522             -10.6955
       289        2.0000           -0.3916066             -10.6562
       290        2.0000           -0.3841583             -10.4535
       291        2.0000           -0.3750702             -10.2062
       292        1.0126           -0.3536766              -9.6240
       293        0.9956           -0.3536402              -9.6230 (HOMO)
       294        0.9918           -0.3536322              -9.6228 (LUMO)
       295        0.0000           -0.3380067              -9.1976
       296                         -0.3277449              -8.9184
       297                         -0.3251006              -8.8464
       298                         -0.3249327              -8.8419
       299                         -0.3246886              -8.8352
       300                         -0.3179736              -8.6525
       301                         -0.2957057              -8.0466
       302                         -0.2887394              -7.8570
       303                         -0.2846287              -7.7451
       304                         -0.2661668              -7.2428
       ...                                ...                  ...
       611                          1.3456798              36.6178
      -------------------------------------------------------------
                  HL-Gap            0.0000080 Eh            0.0002 eV

Wiberg/Mayer (AO) data.
largest (>0.10) Wiberg bond orders for each atom

     #   Z sym  total        # sym  WBO       # sym  WBO       # sym  WBO
 ---------------------------------------------------------------------------
     1  29 Cu   2.187 --    39 N    0.506     7 N    0.505    26 N    0.503
                            19 N    0.503
     2   6 C    3.929 --     3 C    1.361    38 C    1.361    40 H    0.971
     3   6 C    3.918 --     2 C    1.361     7 N    1.230     4 C    1.171
     4   6 C    3.955 --     5 C    1.655     3 C    1.171    41 H    0.976
     5   6 C    3.958 --     4 C    1.655     6 C    1.173    42 H    0.973
     6   6 C    3.913 --     8 C    1.321     7 N    1.238     5 C    1.173
     7   7 N    3.243 --     6 C    1.238     3 C    1.230     1 Cu   0.505
     8   6 C    3.935 --    16 C    1.325     6 C    1.321     9 C    1.027
     9   6 C    3.989 --    10 C    1.395    15 C    1.384     8 C    1.027
    10   6 C    3.988 --    11 C    1.451     9 C    1.395    43 H    0.973
                            14 C    0.105
    11   6 C    3.988 --    10 C    1.451    12 C    1.373    44 H    0.970
                            15 C    0.103
    12   6 C    3.901 --    11 C    1.373    14 C    1.365    13 O    1.039
    13   8 O    2.042 --    12 C    1.039    45 H    0.865
    14   6 C    3.990 --    15 C    1.466    12 C    1.365    46 H    0.971
                            10 C    0.105
    15   6 C    3.988 --    14 C    1.466     9 C    1.384    47 H    0.973
                            11 C    0.103
    16   6 C    3.908 --     8 C    1.325    19 N    1.224    17 C    1.180
    17   6 C    3.955 --    18 C    1.641    16 C    1.180    48 H    0.973
    18   6 C    3.957 --    17 C    1.641    20 C    1.187    49 H    0.972
    19   7 N    3.248 --    20 C    1.253    16 C    1.224     1 Cu   0.503
    20   6 C    3.904 --    21 C    1.267    19 N    1.253    18 C    1.187
    21   6 C    3.939 --    22 C    1.267    20 C    1.267   117 C    1.169
    22   6 C    3.904 --    21 C    1.267    26 N    1.253    23 C    1.187
    23   6 C    3.957 --    24 C    1.641    22 C    1.187    50 H    0.972
    24   6 C    3.955 --    23 C    1.641    25 C    1.180    51 H    0.973
    25   6 C    3.909 --    27 C    1.325    26 N    1.224    24 C    1.180
    26   7 N    3.248 --    22 C    1.253    25 C    1.224     1 Cu   0.503
    27   6 C    3.935 --    25 C    1.325    35 C    1.321    28 C    1.027
    28   6 C    3.989 --    34 C    1.394    29 C    1.385    27 C    1.027
    29   6 C    3.988 --    30 C    1.465    28 C    1.385    52 H    0.973
                            33 C    0.103
    30   6 C    3.990 --    29 C    1.465    31 C    1.365    53 H    0.971
                            34 C    0.105
    31   6 C    3.901 --    33 C    1.372    30 C    1.365    32 O    1.039
    32   8 O    2.042 --    31 C    1.039    54 H    0.865
    33   6 C    3.988 --    34 C    1.452    31 C    1.372    55 H    0.970
                            29 C    0.103
    34   6 C    3.988 --    33 C    1.452    28 C    1.394    56 H    0.973
                            30 C    0.105
    35   6 C    3.913 --    27 C    1.321    39 N    1.238    36 C    1.173
    36   6 C    3.958 --    37 C    1.655    35 C    1.173    57 H    0.973
    37   6 C    3.955 --    36 C    1.655    38 C    1.171    58 H    0.976
    38   6 C    3.918 --     2 C    1.361    39 N    1.230    37 C    1.171
    39   7 N    3.244 --    35 C    1.238    38 C    1.230     1 Cu   0.506
    40   1 H    1.002 --     2 C    0.971
    41   1 H    0.998 --     4 C    0.976
    42   1 H    1.005 --     5 C    0.973
    43   1 H    1.005 --    10 C    0.973
    44   1 H    0.999 --    11 C    0.970
    45   1 H    0.887 --    13 O    0.865
    46   1 H    0.999 --    14 C    0.971
    47   1 H    1.005 --    15 C    0.973
    48   1 H    1.005 --    17 C    0.973
    49   1 H    1.005 --    18 C    0.972
    50   1 H    1.004 --    23 C    0.972
    51   1 H    1.005 --    24 C    0.973
    52   1 H    1.005 --    29 C    0.973
    53   1 H    0.999 --    30 C    0.971
    54   1 H    0.887 --    32 O    0.865
    55   1 H    0.999 --    33 C    0.970
    56   1 H    1.005 --    34 C    0.973
    57   1 H    1.005 --    36 C    0.973
    58   1 H    0.998 --    37 C    0.976
    59  29 Cu   2.193 --    97 N    0.507    65 N    0.507    77 N    0.504
                            84 N    0.504
    60   6 C    3.930 --    96 C    1.361    61 C    1.361    98 H    0.971
    61   6 C    3.918 --    60 C    1.361    65 N    1.229    62 C    1.171
    62   6 C    3.955 --    63 C    1.654    61 C    1.171    99 H    0.976
    63   6 C    3.958 --    62 C    1.654    64 C    1.173   100 H    0.973
    64   6 C    3.913 --    66 C    1.321    65 N    1.237    63 C    1.173
    65   7 N    3.244 --    64 C    1.237    61 C    1.229    59 Cu   0.507
    66   6 C    3.935 --    74 C    1.325    64 C    1.321    67 C    1.027
    67   6 C    3.989 --    68 C    1.394    73 C    1.384    66 C    1.027
    68   6 C    3.988 --    69 C    1.452    67 C    1.394   101 H    0.973
                            72 C    0.105
    69   6 C    3.988 --    68 C    1.452    70 C    1.372   102 H    0.970
                            73 C    0.103
    70   6 C    3.901 --    69 C    1.372    72 C    1.365    71 O    1.039
    71   8 O    2.042 --    70 C    1.039   103 H    0.865
    72   6 C    3.990 --    73 C    1.466    70 C    1.365   104 H    0.971
                            68 C    0.105
    73   6 C    3.988 --    72 C    1.466    67 C    1.384   105 H    0.973
                            69 C    0.103
    74   6 C    3.908 --    66 C    1.325    77 N    1.224    75 C    1.180
    75   6 C    3.955 --    76 C    1.641    74 C    1.180   106 H    0.973
    76   6 C    3.957 --    75 C    1.641    78 C    1.187   107 H    0.971
    77   7 N    3.248 --    78 C    1.253    74 C    1.224    59 Cu   0.504
    78   6 C    3.904 --    79 C    1.267    77 N    1.253    76 C    1.187
    79   6 C    3.939 --    80 C    1.268    78 C    1.267   120 C    1.168
    80   6 C    3.904 --    79 C    1.268    84 N    1.253    81 C    1.187
    81   6 C    3.957 --    82 C    1.641    80 C    1.187   108 H    0.971
    82   6 C    3.955 --    81 C    1.641    83 C    1.180   109 H    0.973
    83   6 C    3.908 --    85 C    1.325    84 N    1.224    82 C    1.180
    84   7 N    3.248 --    80 C    1.253    83 C    1.224    59 Cu   0.504
    85   6 C    3.935 --    83 C    1.325    93 C    1.321    86 C    1.026
    86   6 C    3.989 --    92 C    1.395    87 C    1.385    85 C    1.026
    87   6 C    3.988 --    88 C    1.465    86 C    1.385   110 H    0.973
                            91 C    0.103
    88   6 C    3.990 --    87 C    1.465    89 C    1.365   111 H    0.971
                            92 C    0.105
    89   6 C    3.901 --    91 C    1.372    88 C    1.365    90 O    1.039
    90   8 O    2.042 --    89 C    1.039   112 H    0.865
    91   6 C    3.988 --    92 C    1.451    89 C    1.372   113 H    0.970
                            87 C    0.103
    92   6 C    3.988 --    91 C    1.451    86 C    1.395   114 H    0.973
                            88 C    0.105
    93   6 C    3.913 --    85 C    1.321    97 N    1.237    94 C    1.173
    94   6 C    3.958 --    95 C    1.655    93 C    1.173   115 H    0.973
    95   6 C    3.955 --    94 C    1.655    96 C    1.171   116 H    0.976
    96   6 C    3.918 --    60 C    1.361    97 N    1.230    95 C    1.171
    97   7 N    3.244 --    93 C    1.237    96 C    1.230    59 Cu   0.507
    98   1 H    1.002 --    60 C    0.971
    99   1 H    0.998 --    62 C    0.976
   100   1 H    1.005 --    63 C    0.973
   101   1 H    1.005 --    68 C    0.973
   102   1 H    0.999 --    69 C    0.970
   103   1 H    0.887 --    71 O    0.865
   104   1 H    0.999 --    72 C    0.971
   105   1 H    1.005 --    73 C    0.973
   106   1 H    1.005 --    75 C    0.973
   107   1 H    1.005 --    76 C    0.971
   108   1 H    1.004 --    81 C    0.971
   109   1 H    1.005 --    82 C    0.973
   110   1 H    1.005 --    87 C    0.973
   111   1 H    0.999 --    88 C    0.971
   112   1 H    0.887 --    90 O    0.865
   113   1 H    0.999 --    91 C    0.970
   114   1 H    1.005 --    92 C    0.973
   115   1 H    1.005 --    94 C    0.973
   116   1 H    0.998 --    95 C    0.976
   117   6 C    3.932 --   118 C    2.583    21 C    1.169
   118   6 C    3.934 --   117 C    2.583   122 C    1.171
   119   6 C    3.934 --   120 C    2.584   141 C    1.170
   120   6 C    3.931 --   119 C    2.584    79 C    1.168
   121  29 Cu   2.171 --   139 N    0.501   127 N    0.500   159 N    0.500
                           146 N    0.500
   122   6 C    3.929 --   123 C    1.265   158 C    1.264   118 C    1.171
   123   6 C    3.905 --   122 C    1.265   127 N    1.255   124 C    1.188
   124   6 C    3.955 --   125 C    1.640   123 C    1.188   160 H    0.972
   125   6 C    3.956 --   124 C    1.640   126 C    1.181   161 H    0.973
   126   6 C    3.907 --   128 C    1.323   127 N    1.224   125 C    1.181
   127   7 N    3.241 --   123 C    1.255   126 C    1.224   121 Cu   0.500
   128   6 C    3.930 --   126 C    1.323   136 C    1.322   129 C    1.028
   129   6 C    3.989 --   135 C    1.394   130 C    1.383   128 C    1.028
   130   6 C    3.988 --   131 C    1.466   129 C    1.383   162 H    0.973
                           134 C    0.102
   131   6 C    3.990 --   130 C    1.466   132 C    1.364   163 H    0.971
                           135 C    0.105
   132   6 C    3.901 --   134 C    1.372   131 C    1.364   133 O    1.040
   133   8 O    2.043 --   132 C    1.040   164 H    0.865
   134   6 C    3.988 --   135 C    1.452   132 C    1.372   165 H    0.970
                           130 C    0.102
   135   6 C    3.988 --   134 C    1.452   129 C    1.394   166 H    0.973
                           131 C    0.105
   136   6 C    3.907 --   128 C    1.322   139 N    1.224   137 C    1.181
   137   6 C    3.956 --   138 C    1.640   136 C    1.181   167 H    0.973
   138   6 C    3.956 --   137 C    1.640   140 C    1.188   168 H    0.971
   139   7 N    3.241 --   140 C    1.254   136 C    1.224   121 Cu   0.501
   140   6 C    3.905 --   141 C    1.265   139 N    1.254   138 C    1.188
   141   6 C    3.928 --   140 C    1.265   142 C    1.265   119 C    1.170
   142   6 C    3.905 --   141 C    1.265   146 N    1.255   143 C    1.188
   143   6 C    3.955 --   144 C    1.639   142 C    1.188   169 H    0.971
   144   6 C    3.956 --   143 C    1.639   145 C    1.182   170 H    0.973
   145   6 C    3.907 --   147 C    1.322   146 N    1.224   144 C    1.182
   146   7 N    3.241 --   142 C    1.255   145 C    1.224   121 Cu   0.500
   147   6 C    3.930 --   155 C    1.323   145 C    1.322   148 C    1.028
   148   6 C    3.989 --   149 C    1.394   154 C    1.384   147 C    1.028
   149   6 C    3.988 --   150 C    1.452   148 C    1.394   171 H    0.973
                           153 C    0.105
   150   6 C    3.988 --   149 C    1.452   151 C    1.372   172 H    0.970
                           154 C    0.102
   151   6 C    3.901 --   150 C    1.372   153 C    1.365   152 O    1.039
   152   8 O    2.042 --   151 C    1.039   173 H    0.865
   153   6 C    3.990 --   154 C    1.466   151 C    1.365   174 H    0.971
                           149 C    0.105
   154   6 C    3.988 --   153 C    1.466   148 C    1.384   175 H    0.973
                           150 C    0.102
   155   6 C    3.907 --   147 C    1.323   159 N    1.223   156 C    1.182
   156   6 C    3.956 --   157 C    1.639   155 C    1.182   176 H    0.973
   157   6 C    3.955 --   156 C    1.639   158 C    1.188   177 H    0.972
   158   6 C    3.905 --   122 C    1.264   159 N    1.256   157 C    1.188
   159   7 N    3.241 --   158 C    1.256   155 C    1.223   121 Cu   0.500
   160   1 H    1.004 --   124 C    0.972
   161   1 H    1.005 --   125 C    0.973
   162   1 H    1.005 --   130 C    0.973
   163   1 H    0.999 --   131 C    0.971
   164   1 H    0.887 --   133 O    0.865
   165   1 H    0.999 --   134 C    0.970
   166   1 H    1.005 --   135 C    0.973
   167   1 H    1.005 --   137 C    0.973
   168   1 H    1.005 --   138 C    0.971
   169   1 H    1.005 --   143 C    0.971
   170   1 H    1.005 --   144 C    0.973
   171   1 H    1.005 --   149 C    0.973
   172   1 H    0.999 --   150 C    0.970
   173   1 H    0.887 --   152 O    0.865
   174   1 H    0.999 --   153 C    0.971
   175   1 H    1.005 --   154 C    0.973
   176   1 H    1.005 --   156 C    0.973
   177   1 H    1.004 --   157 C    0.972
 ---------------------------------------------------------------------------

           -------------------------------------------------
          | TOTAL ENERGY             -321.557101454402 Eh   |
          | GRADIENT NORM               0.000992829758 Eh/α |
          | HOMO-LUMO GAP               0.000218215813 eV   |
           -------------------------------------------------

 * finished run on 2022/07/30 at 08:47:28.211
