   * xtb version 6.5.1 (b24c23e) compiled by 'conda@728c89f4b128' on 2022-07-12
          program call               : xtb Co_PhOH_C2_3.xyz --gfn 1 --opt -T 48

   ID    Z sym.   atoms
    1   27 Co     1, 59, 121
    2    6 C      2-6, 8-12, 14-18, 20-25, 27-31, 33-38, 60-64, 66-70, 72-76,
                  78-83, 85-89, 91-96, 117-120, 122-126, 128-132, 134-138,
                  140-145, 147-151, 153-158
    3    7 N      7, 19, 26, 39, 65, 77, 84, 97, 127, 139, 146, 159
    4    8 O      13, 32, 71, 90, 133, 152
    5    1 H      40-58, 98-116, 160-177
########################################################################
[WARNING] Please study the warnings concerning your input carefully
-1- prog_main_parseArguments: Unknown option '-T' provided
########################################################################

          :  Hamiltonian                  GFN1-xTB          :
 * total energy  :  -317.7548308 Eh     change       -0.5750280E-08 Eh
 * total energy  :  -318.2846165 Eh     change       -0.5297857E+00 Eh
 * total energy  :  -318.4283651 Eh     change       -0.1437486E+00 Eh
 * total energy  :  -318.5014675 Eh     change       -0.7310241E-01 Eh
 * total energy  :  -318.5285894 Eh     change       -0.2712185E-01 Eh
 * total energy  :  -318.5425676 Eh     change       -0.1397825E-01 Eh
 * total energy  :  -318.5500003 Eh     change       -0.7432730E-02 Eh
 * total energy  :  -318.5541346 Eh     change       -0.4134245E-02 Eh
 * total energy  :  -318.5559402 Eh     change       -0.1805648E-02 Eh
 * total energy  :  -318.5566932 Eh     change       -0.7529737E-03 Eh
 * total energy  :  -318.5664686 Eh     change       -0.6805963E-05 Eh
 * total energy  :  -318.5664744 Eh     change       -0.5743162E-05 Eh
 * total energy  :  -318.5664796 Eh     change       -0.5255558E-05 Eh
 * total energy  :  -318.5664853 Eh     change       -0.5689240E-05 Eh
 * total energy  :  -318.5664923 Eh     change       -0.7008682E-05 Eh
 * total energy  :  -318.5665005 Eh     change       -0.8202341E-05 Eh
 * total energy  :  -318.5665094 Eh     change       -0.8899095E-05 Eh
 * total energy  :  -318.5665179 Eh     change       -0.8420528E-05 Eh
 * total energy  :  -318.5665210 Eh     change       -0.3150474E-05 Eh
   *** GEOMETRY OPTIMIZATION CONVERGED AFTER 185 ITERATIONS ***

 final structure:
================
177
 xtb: 6.5.1 (b24c23e)
Co          33.86707084529527        0.01204718649411       -0.37651044123151
C           30.86176474801607        0.20554136837452       -1.82116828633665
C           31.39151291035466       -1.05008125948469       -1.59921290679153
C           30.68706169892320       -2.26849646443052       -1.85907452583524
C           31.44524357283803       -3.27132256273847       -1.35410206843877
C           32.64937606139837       -2.67231645689625       -0.85706386436585
N           32.58513988024215       -1.30782529316031       -0.97760872973262
C           33.77013981935757       -3.38157643336666       -0.43973268662713
C           33.72581573849820       -4.85930181621610       -0.35044962149753
C           33.45026568812249       -5.64605931460388       -1.46884670546527
C           33.42874057674493       -7.02904303232804       -1.37281056249341
C           33.68115951504478       -7.64158432853986       -0.14763922619112
O           33.66801884427359       -8.99244577781083       -0.00944293050198
C           33.96344534984809       -6.86693408088409        0.97619448545906
C           33.99084411790655       -5.48810659733546        0.86887079914847
C           34.98474091862488       -2.74590170157451       -0.21590368471013
C           36.23992212084939       -3.42989034740287       -0.13406306701505
C           37.20495784485890       -2.47754091461091       -0.11601893939114
N           35.18411210059342       -1.38684069115597       -0.20158768789192
C           36.53571757957146       -1.21528234436624       -0.12526928731161
C           37.18439628970835        0.00429356584475        0.10337296911671
C           36.46464034773626        1.15617951907277        0.44359034037999
C           37.05580360635574        2.32012966572959        1.02240884361347
C           36.03993483520537        3.16724762380850        1.31938079275186
C           34.83452773232874        2.54327819783720        0.86179481209416
N           35.11100430101754        1.29525968767603        0.35453541958024
C           33.62021623966756        3.20593696128039        0.75013015849150
C           33.50011544303432        4.56066391537542        1.33877059315075
C           33.57616506272419        4.72753272306642        2.72347623229385
C           33.47159452578742        5.98439501218651        3.29216844130142
C           33.30098070422923        7.10038364066634        2.47482970771892
O           33.20638767633373        8.31989562413560        3.06478779071529
C           33.23738924404590        6.95022781854437        1.09158291913248
C           33.33492018356049        5.68579283206232        0.53117897378346
C           32.57276397003953        2.67928663962530        0.00130436911152
C           31.39528022054275        3.40430009886174       -0.37676139537342
C           30.68452647489897        2.59808380003016       -1.20137591954613
C           31.38936929453237        1.35381561508016       -1.26654596183155
N           32.54932083551814        1.42010439364558       -0.53784101778584
H           29.91723037464724        0.27775873373376       -2.34793405545931
H           29.71911546583056       -2.32703871266643       -2.33112194238694
H           31.22328352132526       -4.32582433298290       -1.32945830645076
H           33.27647638905341       -5.17368222554079       -2.42915117868638
H           33.22148293552720       -7.63643546690346       -2.24737068649486
H           33.45972493755389       -9.43013755403196       -0.84573546385305
H           34.16032308140810       -7.35675122701615        1.92179301654821
H           34.20622647681936       -4.88374528830509        1.74293459454102
H           36.35847124308730       -4.50129384050491       -0.12994357256851
H           38.27401922482605       -2.60586357785616       -0.06211665736350
H           38.11142354424489        2.44886119954434        1.19866099501461
H           36.09503319008917        4.14629828749223        1.76695115649216
H           33.70498870843393        3.85781061635807        3.35794821168765
H           33.52185317400797        6.11653979500805        4.36586928309430
H           33.08908299943410        9.02035139780272        2.40909118362211
H           33.11619434983160        7.82291791261685        0.45875371070879
H           33.30655685655711        5.57418866629293       -0.54693124075045
H           31.15597561284805        4.40522091752220       -0.05620890690895
H           29.74518024684944        2.79584818258190       -1.69297585255230
Co          55.27576379034942       -0.03062170928578       -0.40926668218770
C           58.22196000203867       -0.02993512955332       -1.95393142634790
C           57.68962178421574        1.18779764964546       -1.57822124181542
C           58.37402294588288        2.43606074356609       -1.72763182901346
C           57.66699634566014        3.35394249252159       -1.02458347393252
C           56.50636095549495        2.68469366491758       -0.51479339174512
N           56.54619275449842        1.35490184321965       -0.84060930473751
C           55.44412326310582        3.31083524732276        0.13131205211581
C           55.53473863079685        4.74300568000533        0.49730615891653
C           55.71606939955554        5.73152930714193       -0.46981869665810
C           55.78830287565731        7.06835650189439       -0.10917845041573
C           55.68267142318091        7.43020714007106        1.23174381146310
O           55.75274720600298        8.72667773535506        1.62840030360273
C           55.49373958386957        6.45226619780007        2.20687194007171
C           55.41416943643708        5.12187800430390        1.83677891362746
C           54.23783697119659        2.65333686143440        0.33481156183246
C           53.00719042309118        3.31901359993471        0.63949435462621
C           52.01769600000011        2.40461356120554        0.48207968436431
N           54.00051936239216        1.32682662695787        0.06422856545512
C           52.64947033479297        1.16798190149341        0.14848393144305
C           51.97356100123512       -0.05873385794708        0.07055946906381
C           52.67286765477812       -1.27037802390231        0.15985754081236
C           52.06266770972312       -2.51747696178114        0.49422608128336
C           53.06951399165251       -3.40372280771411        0.69580492457868
C           54.29136417230197       -2.71224213180320        0.41460378451997
N           54.02942903758424       -1.39941062497745        0.10685418158934
C           55.52383090006855       -3.33940136167620        0.28153422482410
C           55.64402097010296       -4.75038819387886        0.71424118077407
C           55.47819574966693       -5.07386002387997        2.06344399256098
C           55.58506015660917       -6.38305083557801        2.49671442987304
C           55.84726937658684       -7.39594327471974        1.57570689632144
O           55.94272494664817       -8.67048031524431        2.03350854696900
C           55.99797911574968       -7.09022704995108        0.22514128935240
C           55.89815017440724       -5.77388477863274       -0.19863651239335
C           56.58785892307687       -2.70835739307123       -0.35582912193193
C           57.78499387315947       -3.36271764716910       -0.79613216770243
C           58.47234905718205       -2.46486494734835       -1.54317752675585
C           57.73799227002097       -1.23746412756750       -1.48943542809282
N           56.58894005237447       -1.39920345697421       -0.76026910606033
H           59.14443040666063       -0.03232051697109       -2.52314580926715
H           59.30005248797751        2.56623976857029       -2.26491979297035
H           57.89801340587999        4.39562633815206       -0.87186687730524
H           55.77516161879517        5.45579784401232       -1.51669661536420
H           55.92216845063538        7.83401067489091       -0.86584179718128
H           55.88238847241254        9.31940842167981        0.87591763782140
H           55.40973540248093        6.74827303600889        3.24520364730402
H           55.27138882355139        4.35918268367632        2.59408901193214
H           52.91822068136653        4.36240693025904        0.89517213574044
H           50.95630765503064        2.53579454106379        0.61665755965158
H           51.00113383591436       -2.67319797946227        0.59793168061604
H           52.99945083789925       -4.44456395930429        0.96726389820416
H           55.27807254082811       -4.28387768015726        2.77861647183208
H           55.46639022847973       -6.63565899837261        3.54308156367789
H           56.12669764279703       -9.29047544143785        1.31510402280291
H           56.18867390714792       -7.88348089419455       -0.48972676484579
H           55.99268082067297       -5.54276117871323       -1.25366709609815
H           58.05124207399491       -4.38280023577399       -0.57176031931067
H           59.41398211214063       -2.59338251576203       -2.05301841473790
C           38.58588339051029        0.03960059713907        0.09905098841459
C           39.80264347804983        0.06467906142194        0.04075437293662
C           49.35795125801423       -0.06434543655680       -0.05963463089512
C           50.57389189410591       -0.06705142005334        0.03076651998311
Co          44.57934851892192        0.04724103843784       -0.24304794315936
C           41.20140481587111        0.07265722513755       -0.05347789757696
C           41.92443704033860        1.15315694291370        0.46216841387475
C           41.33048296445176        2.27318201436525        1.11805384089918
C           42.29547657622246        3.22153280460350        1.21963745092896
C           43.47661292043952        2.67188215033723        0.62849523050728
N           43.25261060644254        1.37664810438373        0.23056111040894
C           44.64635298169526        3.38447230402999        0.38478158985974
C           44.66207231771634        4.84008700487269        0.64059230648942
C           45.60133892574041        5.40448498568755        1.50852189414546
C           45.61121805108753        6.76538302055170        1.75490049835417
C           44.67893989216945        7.58908036254350        1.12606465621278
O           44.71987397354206        8.92037199792412        1.38654942320981
C           43.73674154963016        7.04150829063041        0.25789148092423
C           43.72887711586949        5.67576515488334        0.02403574569509
C           45.80213567998040        2.75503784355796       -0.05766289919689
C           47.04442718409087        3.41721081908411       -0.31630911318792
C           47.98692959705371        2.44759866630964       -0.42631059195250
N           45.97063287278284        1.38961250950550       -0.11744858016310
C           47.31272555474332        1.19979423669178       -0.26573121386333
C           47.96068441959580       -0.03852716908578       -0.15457370304659
C           47.24434387291543       -1.24045013883073       -0.18486681512131
C           47.85117939356820       -2.53234436036600       -0.15190493429060
C           46.88800631044423       -3.42429230334293       -0.49388559129892
C           45.69305511754767       -2.67208937362051       -0.72394963609379
N           45.91138668998165       -1.33996418669750       -0.46911480159039
C           44.51101092732414       -3.20110110489364       -1.23007315580338
C           44.49477749200165       -4.60834770580556       -1.68355288284552
C           43.60054762767381       -5.52670799509619       -1.13086981351134
C           43.59011569926292       -6.84692091757632       -1.55209231065842
C           44.47492017944128       -7.26333950167439       -2.54438781562254
O           44.49497124673237       -8.54527051699822       -2.98986330147557
C           45.37229493793998       -6.35631461316992       -3.10591045257600
C           45.38255165669879       -5.04317047699538       -2.67181318612678
C           43.34224067311817       -2.45290161344404       -1.28489415579347
C           42.08661201543242       -2.93790897767778       -1.77169573766501
C           41.14813858841410       -2.03146918790022       -1.40027900351356
C           41.83729449844398       -0.98514330918119       -0.71576734539270
N           43.18234277824735       -1.21289185806087       -0.70943034107924
H           40.30363797895386        2.32103497845916        1.44243059762583
H           42.22371426438314        4.20280774154244        1.65985900712835
H           46.31507735239427        4.76298431943347        2.01307573249490
H           46.33266191251066        7.20338046829469        2.43352414421209
H           44.03025419525505        9.39570307549688        0.90388073250764
H           43.01471553378723        7.68648656109165       -0.23131360255595
H           43.00325961159681        5.25316237068186       -0.66199416122063
H           47.17241389412931        4.48441750400729       -0.39616890105130
H           49.04351195886863        2.55577490883240       -0.60967309052693
H           48.88644696288200       -2.71862219551604        0.08293644737833
H           46.96913530042063       -4.49580366254970       -0.57840376269753
H           42.92268772884054       -5.20921814924745       -0.34640288819852
H           42.89901889037602       -7.55789713193645       -1.11215243022464
H           43.83480930706156       -9.08676847987924       -2.53659445506302
H           46.05219517815956       -6.69323122231553       -3.87861925874237
H           46.07268412086046       -4.33524492000634       -3.11695426817244
H           41.94793127003101       -3.85531363262765       -2.32022579767905
H           40.08459397622245       -2.05529940390572       -1.57465573623137

          :  Hamiltonian                  GFN1-xTB          :
         :: total energy            -318.566521002914 Eh    ::
         :: gradient norm              0.000411125189 Eh/a0 ::
         :: HOMO-LUMO gap              0.026208096197 eV    ::
         :: SCC energy              -323.323004362395 Eh    ::
         :: repulsion energy           4.920627711354 Eh    ::

    * Orbital Energies and Occupations

         #    Occupation            Energy/Eh            Energy/eV
      -------------------------------------------------------------
         1        2.0000           -0.8073197             -21.9683
       ...           ...                  ...                  ...
       278        2.0000           -0.3936440             -10.7116
       279        2.0000           -0.3892319             -10.5915
       280        2.0000           -0.3878075             -10.5528
       281        2.0000           -0.3868451             -10.5266
       282        2.0000           -0.3866729             -10.5219
       283        2.0000           -0.3865704             -10.5191
       284        1.9999           -0.3864386             -10.5155
       285        1.9999           -0.3859524             -10.5023
       286        1.9999           -0.3858047             -10.4983
       287        1.9988           -0.3835533             -10.4370
       288        1.7713           -0.3784071             -10.2970
       289        1.2476           -0.3768448             -10.2545
       290        1.2167           -0.3767764             -10.2526 (HOMO)
       291        0.7660           -0.3758133             -10.2264 (LUMO)
       292                         -0.3418942              -9.3034
       293                         -0.3299567              -8.9786
       294                         -0.3264346              -8.8827
       295                         -0.3261529              -8.8751
       296                         -0.3255551              -8.8588
       297                         -0.3176091              -8.6426
       298                         -0.2995518              -8.1512
       299                         -0.2906892              -7.9101
       300                         -0.2865282              -7.7968
       301                         -0.2853208              -7.7640
       ...                                ...                  ...
       611                          1.3401013              36.4660
      -------------------------------------------------------------
                  HL-Gap            0.0009631 Eh            0.0262 eV

Wiberg/Mayer (AO) data.
largest (>0.10) Wiberg bond orders for each atom

     #   Z sym  total        # sym  WBO       # sym  WBO       # sym  WBO
 ---------------------------------------------------------------------------
     1  27 Co   3.030 --     7 N    0.630    39 N    0.629    26 N    0.628
                            19 N    0.628
     2   6 C    3.920 --    38 C    1.363     3 C    1.358    40 H    0.971
     3   6 C    3.926 --     2 C    1.358     7 N    1.208     4 C    1.176
     4   6 C    3.959 --     5 C    1.646     3 C    1.176    41 H    0.975
     5   6 C    3.963 --     4 C    1.646     6 C    1.177    42 H    0.972
     6   6 C    3.921 --     8 C    1.316     7 N    1.215     5 C    1.177
     7   7 N    3.342 --     6 C    1.215     3 C    1.208     1 Co   0.630
     8   6 C    3.927 --    16 C    1.326     6 C    1.316     9 C    1.029
     9   6 C    3.988 --    10 C    1.394    15 C    1.382     8 C    1.029
    10   6 C    3.987 --    11 C    1.451     9 C    1.394    43 H    0.972
                            14 C    0.105
    11   6 C    3.988 --    10 C    1.451    12 C    1.372    44 H    0.970
                            15 C    0.102
    12   6 C    3.901 --    11 C    1.372    14 C    1.363    13 O    1.040
    13   8 O    2.043 --    12 C    1.040    45 H    0.865
    14   6 C    3.990 --    15 C    1.468    12 C    1.363    46 H    0.971
                            10 C    0.105
    15   6 C    3.986 --    14 C    1.468     9 C    1.382    47 H    0.973
                            11 C    0.102
    16   6 C    3.917 --     8 C    1.326    19 N    1.199    17 C    1.183
    17   6 C    3.959 --    18 C    1.634    16 C    1.183    48 H    0.974
    18   6 C    3.962 --    17 C    1.634    20 C    1.191    49 H    0.972
    19   7 N    3.346 --    20 C    1.237    16 C    1.199     1 Co   0.628
    20   6 C    3.909 --    21 C    1.252    19 N    1.237    18 C    1.191
    21   6 C    3.926 --    20 C    1.252    22 C    1.250   117 C    1.197
    22   6 C    3.909 --    21 C    1.250    26 N    1.241    23 C    1.192
    23   6 C    3.962 --    24 C    1.635    22 C    1.192    50 H    0.970
    24   6 C    3.958 --    23 C    1.635    25 C    1.181    51 H    0.974
    25   6 C    3.917 --    27 C    1.334    26 N    1.193    24 C    1.181
    26   7 N    3.345 --    22 C    1.241    25 C    1.193     1 Co   0.628
    27   6 C    3.926 --    25 C    1.334    35 C    1.312    28 C    1.026
    28   6 C    3.988 --    34 C    1.394    29 C    1.384    27 C    1.026
    29   6 C    3.987 --    30 C    1.467    28 C    1.384    52 H    0.973
                            33 C    0.103
    30   6 C    3.990 --    29 C    1.467    31 C    1.364    53 H    0.971
                            34 C    0.105
    31   6 C    3.901 --    33 C    1.372    30 C    1.364    32 O    1.040
    32   8 O    2.044 --    31 C    1.040    54 H    0.865
    33   6 C    3.988 --    34 C    1.451    31 C    1.372    55 H    0.970
                            29 C    0.103
    34   6 C    3.987 --    33 C    1.451    28 C    1.394    56 H    0.972
                            30 C    0.105
    35   6 C    3.921 --    27 C    1.312    39 N    1.220    36 C    1.178
    36   6 C    3.964 --    37 C    1.646    35 C    1.178    57 H    0.972
    37   6 C    3.958 --    36 C    1.646    38 C    1.174    58 H    0.975
    38   6 C    3.926 --     2 C    1.363    39 N    1.204    37 C    1.174
    39   7 N    3.343 --    35 C    1.220    38 C    1.204     1 Co   0.629
    40   1 H    1.001 --     2 C    0.971
    41   1 H    0.998 --     4 C    0.975
    42   1 H    1.005 --     5 C    0.972
    43   1 H    1.005 --    10 C    0.972
    44   1 H    0.999 --    11 C    0.970
    45   1 H    0.887 --    13 O    0.865
    46   1 H    0.999 --    14 C    0.971
    47   1 H    1.004 --    15 C    0.973
    48   1 H    1.004 --    17 C    0.974
    49   1 H    1.004 --    18 C    0.972
    50   1 H    1.004 --    23 C    0.970
    51   1 H    1.004 --    24 C    0.974
    52   1 H    1.004 --    29 C    0.973
    53   1 H    0.999 --    30 C    0.971
    54   1 H    0.887 --    32 O    0.865
    55   1 H    0.999 --    33 C    0.970
    56   1 H    1.005 --    34 C    0.972
    57   1 H    1.005 --    36 C    0.972
    58   1 H    0.998 --    37 C    0.975
    59  27 Co   3.065 --    97 N    0.631    65 N    0.631    77 N    0.630
                            84 N    0.630
    60   6 C    3.920 --    61 C    1.360    96 C    1.358    98 H    0.971
    61   6 C    3.925 --    60 C    1.360    65 N    1.205    62 C    1.175
    62   6 C    3.959 --    63 C    1.645    61 C    1.175    99 H    0.975
    63   6 C    3.963 --    62 C    1.645    64 C    1.179   100 H    0.972
    64   6 C    3.921 --    66 C    1.310    65 N    1.220    63 C    1.179
    65   7 N    3.343 --    64 C    1.220    61 C    1.205    59 Co   0.631
    66   6 C    3.926 --    74 C    1.331    64 C    1.310    67 C    1.029
    67   6 C    3.988 --    68 C    1.394    73 C    1.382    66 C    1.029
    68   6 C    3.987 --    69 C    1.451    67 C    1.394   101 H    0.972
                            72 C    0.105
    69   6 C    3.988 --    68 C    1.451    70 C    1.372   102 H    0.970
                            73 C    0.102
    70   6 C    3.901 --    69 C    1.372    72 C    1.363    71 O    1.041
    71   8 O    2.044 --    70 C    1.041   103 H    0.865
    72   6 C    3.990 --    73 C    1.468    70 C    1.363   104 H    0.971
                            68 C    0.105
    73   6 C    3.986 --    72 C    1.468    67 C    1.382   105 H    0.973
                            69 C    0.102
    74   6 C    3.917 --    66 C    1.331    77 N    1.193    75 C    1.182
    75   6 C    3.958 --    76 C    1.632    74 C    1.182   106 H    0.974
    76   6 C    3.962 --    75 C    1.632    78 C    1.193   107 H    0.970
    77   7 N    3.346 --    78 C    1.243    74 C    1.193    59 Co   0.630
    78   6 C    3.908 --    79 C    1.243    77 N    1.243    76 C    1.193
    79   6 C    3.923 --    80 C    1.247    78 C    1.243   120 C    1.206
    80   6 C    3.909 --    79 C    1.247    84 N    1.240    81 C    1.192
    81   6 C    3.962 --    82 C    1.632    80 C    1.192   108 H    0.969
    82   6 C    3.959 --    81 C    1.632    83 C    1.183   109 H    0.974
    83   6 C    3.917 --    85 C    1.328    84 N    1.196    82 C    1.183
    84   7 N    3.346 --    80 C    1.240    83 C    1.196    59 Co   0.630
    85   6 C    3.926 --    83 C    1.328    93 C    1.312    86 C    1.030
    86   6 C    3.988 --    92 C    1.394    87 C    1.382    85 C    1.030
    87   6 C    3.986 --    88 C    1.469    86 C    1.382   110 H    0.973
                            91 C    0.102
    88   6 C    3.990 --    87 C    1.469    89 C    1.363   111 H    0.971
                            92 C    0.105
    89   6 C    3.901 --    91 C    1.372    88 C    1.363    90 O    1.041
    90   8 O    2.044 --    89 C    1.041   112 H    0.865
    91   6 C    3.988 --    92 C    1.452    89 C    1.372   113 H    0.970
                            87 C    0.102
    92   6 C    3.987 --    91 C    1.452    86 C    1.394   114 H    0.972
                            88 C    0.105
    93   6 C    3.921 --    85 C    1.312    97 N    1.218    94 C    1.178
    94   6 C    3.963 --    95 C    1.645    93 C    1.178   115 H    0.972
    95   6 C    3.959 --    94 C    1.645    96 C    1.176   116 H    0.975
    96   6 C    3.925 --    60 C    1.358    97 N    1.206    95 C    1.176
    97   7 N    3.343 --    93 C    1.218    96 C    1.206    59 Co   0.631
    98   1 H    1.001 --    60 C    0.971
    99   1 H    0.998 --    62 C    0.975
   100   1 H    1.005 --    63 C    0.972
   101   1 H    1.005 --    68 C    0.972
   102   1 H    0.999 --    69 C    0.970
   103   1 H    0.887 --    71 O    0.865
   104   1 H    0.999 --    72 C    0.971
   105   1 H    1.004 --    73 C    0.973
   106   1 H    1.004 --    75 C    0.974
   107   1 H    1.004 --    76 C    0.970
   108   1 H    1.004 --    81 C    0.969
   109   1 H    1.004 --    82 C    0.974
   110   1 H    1.004 --    87 C    0.973
   111   1 H    0.999 --    88 C    0.971
   112   1 H    0.887 --    90 O    0.865
   113   1 H    0.999 --    91 C    0.970
   114   1 H    1.005 --    92 C    0.972
   115   1 H    1.005 --    94 C    0.972
   116   1 H    0.998 --    95 C    0.975
   117   6 C    3.925 --   118 C    2.550    21 C    1.197
   118   6 C    3.926 --   117 C    2.550   122 C    1.197
   119   6 C    3.924 --   120 C    2.541   141 C    1.204
   120   6 C    3.928 --   119 C    2.541    79 C    1.206
   121  27 Co   3.011 --   139 N    0.623   159 N    0.623   146 N    0.622
                           127 N    0.621
   122   6 C    3.912 --   123 C    1.256   158 C    1.247   118 C    1.197
   123   6 C    3.910 --   122 C    1.256   127 N    1.230   124 C    1.196
   124   6 C    3.958 --   125 C    1.627   123 C    1.196   160 H    0.970
   125   6 C    3.960 --   124 C    1.627   126 C    1.189   161 H    0.973
   126   6 C    3.915 --   128 C    1.310   127 N    1.204   125 C    1.189
   127   7 N    3.333 --   123 C    1.230   126 C    1.204   121 Co   0.621
   128   6 C    3.920 --   136 C    1.327   126 C    1.310   129 C    1.040
   129   6 C    3.987 --   135 C    1.387   130 C    1.378   128 C    1.040
   130   6 C    3.985 --   131 C    1.469   129 C    1.378   162 H    0.972
                           134 C    0.101
   131   6 C    3.990 --   130 C    1.469   132 C    1.362   163 H    0.971
                           135 C    0.104
   132   6 C    3.898 --   134 C    1.369   131 C    1.362   133 O    1.042
   133   8 O    2.045 --   132 C    1.042   164 H    0.864
   134   6 C    3.988 --   135 C    1.456   132 C    1.369   165 H    0.970
                           130 C    0.101
   135   6 C    3.984 --   134 C    1.456   129 C    1.387   166 H    0.972
                           131 C    0.104
   136   6 C    3.916 --   128 C    1.327   139 N    1.190   137 C    1.186
   137   6 C    3.959 --   138 C    1.628   136 C    1.186   167 H    0.973
   138   6 C    3.959 --   137 C    1.628   140 C    1.197   168 H    0.970
   139   7 N    3.332 --   140 C    1.244   136 C    1.190   121 Co   0.623
   140   6 C    3.908 --   139 N    1.244   141 C    1.242   138 C    1.197
   141   6 C    3.912 --   142 C    1.254   140 C    1.242   119 C    1.204
   142   6 C    3.909 --   141 C    1.254   146 N    1.232   143 C    1.195
   143   6 C    3.960 --   144 C    1.628   142 C    1.195   169 H    0.969
   144   6 C    3.959 --   143 C    1.628   145 C    1.188   170 H    0.973
   145   6 C    3.915 --   147 C    1.315   146 N    1.202   144 C    1.188
   146   7 N    3.332 --   142 C    1.232   145 C    1.202   121 Co   0.622
   147   6 C    3.919 --   155 C    1.324   145 C    1.315   148 C    1.038
   148   6 C    3.987 --   149 C    1.389   154 C    1.379   147 C    1.038
   149   6 C    3.986 --   150 C    1.455   148 C    1.389   171 H    0.972
                           153 C    0.104
   150   6 C    3.988 --   149 C    1.455   151 C    1.370   172 H    0.970
                           154 C    0.101
   151   6 C    3.899 --   150 C    1.370   153 C    1.362   152 O    1.042
   152   8 O    2.044 --   151 C    1.042   173 H    0.864
   153   6 C    3.990 --   154 C    1.469   151 C    1.362   174 H    0.971
                           149 C    0.104
   154   6 C    3.985 --   153 C    1.469   148 C    1.379   175 H    0.972
                           150 C    0.101
   155   6 C    3.916 --   147 C    1.324   159 N    1.193   156 C    1.186
   156   6 C    3.959 --   157 C    1.628   155 C    1.186   176 H    0.973
   157   6 C    3.960 --   156 C    1.628   158 C    1.196   177 H    0.972
   158   6 C    3.909 --   122 C    1.247   159 N    1.240   157 C    1.196
   159   7 N    3.332 --   158 C    1.240   155 C    1.193   121 Co   0.623
   160   1 H    1.004 --   124 C    0.970
   161   1 H    1.004 --   125 C    0.973
   162   1 H    1.006 --   130 C    0.972
   163   1 H    0.999 --   131 C    0.971
   164   1 H    0.886 --   133 O    0.864
   165   1 H    0.999 --   134 C    0.970
   166   1 H    1.005 --   135 C    0.972
   167   1 H    1.004 --   137 C    0.973
   168   1 H    1.004 --   138 C    0.970
   169   1 H    1.004 --   143 C    0.969
   170   1 H    1.004 --   144 C    0.973
   171   1 H    1.006 --   149 C    0.972
   172   1 H    0.999 --   150 C    0.970
   173   1 H    0.886 --   152 O    0.864
   174   1 H    0.999 --   153 C    0.971
   175   1 H    1.005 --   154 C    0.972
   176   1 H    1.004 --   156 C    0.973
   177   1 H    1.004 --   157 C    0.972
 ---------------------------------------------------------------------------

           -------------------------------------------------
          | TOTAL ENERGY             -318.566521002914 Eh   |
          | GRADIENT NORM               0.000411125189 Eh/α |
          | HOMO-LUMO GAP               0.026208096197 eV   |
           -------------------------------------------------

 * finished run on 2022/07/30 at 01:56:03.452
