   * xtb version 6.5.1 (b24c23e) compiled by 'conda@728c89f4b128' on 2022-07-12
          program call               : xtb H_C4_5.xyz --gfn 1 --opt -T 48

   ID    Z sym.   atoms
    1    6 C      1-5, 7-10, 12-17, 19-23, 38-42, 44-47, 49-54, 56-60, 75-95,
                  97-100, 102-107, 109-113, 127-131, 133-136, 138-143,
                  145-149, 163-167, 169-172, 174-179, 181-185
    2    7 N      6, 11, 18, 24, 43, 48, 55, 61, 96, 101, 108, 114, 132, 137,
                  144, 150, 168, 173, 180, 186
    3    1 H      25-37, 62-74, 115-126, 151-162, 187-198

          :  Hamiltonian                  GFN1-xTB          :
 * total energy  :  -340.7606679 Eh     change       -0.1855028E-08 Eh
 * total energy  :  -341.0863653 Eh     change       -0.3256974E+00 Eh
 * total energy  :  -341.2897976 Eh     change       -0.2034323E+00 Eh
 * total energy  :  -341.3551250 Eh     change       -0.6532742E-01 Eh
 * total energy  :  -341.3896514 Eh     change       -0.3452644E-01 Eh
 * total energy  :  -341.4084034 Eh     change       -0.1875200E-01 Eh
 * total energy  :  -341.4175075 Eh     change       -0.9104099E-02 Eh
 * total energy  :  -341.4203219 Eh     change       -0.2814377E-02 Eh
 * total energy  :  -341.4227110 Eh     change       -0.2389095E-02 Eh
 * total energy  :  -341.4241164 Eh     change       -0.1405381E-02 Eh
 * total energy  :  -341.9056654 Eh     change       -0.4905042E-04 Eh
 * total energy  :  -341.9056912 Eh     change       -0.2574066E-04 Eh
 * total energy  :  -341.9057058 Eh     change       -0.1462459E-04 Eh
 * total energy  :  -341.9057159 Eh     change       -0.1010968E-04 Eh
 * total energy  :  -341.9057261 Eh     change       -0.1015653E-04 Eh
 * total energy  :  -341.9057372 Eh     change       -0.1115457E-04 Eh
 * total energy  :  -341.9057478 Eh     change       -0.1061603E-04 Eh
 * total energy  :  -341.9057558 Eh     change       -0.7976903E-05 Eh
 * total energy  :  -341.9057577 Eh     change       -0.1877041E-05 Eh
   *** GEOMETRY OPTIMIZATION CONVERGED AFTER 122 ITERATIONS ***

 final structure:
================
198
 xtb: 6.5.1 (b24c23e)
C           28.29540273358199       -0.05791256311074       -0.01232087598689
C           28.91731856579952       -1.29861491353359       -0.07165046210536
C           28.30077567372982       -2.58139270757756       -0.13304116465839
C           29.29103281106390       -3.52208305430991       -0.17744835178242
C           30.54357463406007       -2.84407294190988       -0.14440795945921
N           30.26691222079943       -1.50893616296368       -0.08111334673648
C           31.81121709898623       -3.41387050467987       -0.16985078768523
C           33.03236680777830       -2.75604323666417       -0.13584016591325
C           34.30940440006262       -3.44687496034432       -0.16524635342115
C           35.26094049104770       -2.49161883791979       -0.11656465352182
N           33.22834522961391       -1.41078698041939       -0.07132731189732
C           34.56138330479371       -1.22062967896842       -0.05840386717991
C           35.21884488841110        0.02600034056209        0.00105122774355
C           34.57102177806175        1.27480177161465        0.05581892097152
C           35.18209178590752        2.55636424204468        0.11529785781425
C           34.18793344700908        3.49487711783612        0.15649394314077
C           32.93976494161628        2.81253657511266        0.12357285349493
N           33.22379852339804        1.47487862261412        0.06255689578558
C           31.67330836742739        3.38327567871051        0.14963031011718
C           30.45130507471345        2.72294913377018        0.11925223273088
C           29.16786939059580        3.40725433472243        0.15273939912773
C           28.22252074302269        2.44711492595974        0.10783606856956
C           28.92929855210199        1.17757942380739        0.04676000058333
N           30.26789016641276        1.38321879467793        0.05582835794240
H           27.21055779180771       -0.06310636950128       -0.01255925795999
H           27.23518407476234       -2.74728826865769       -0.14133967882956
H           29.17798685537392       -4.59343215457962       -0.22838671677957
H           30.96287168863935       -0.77171696437968       -0.04554223963285
H           31.83994668459317       -4.49762249804724       -0.22155946975033
H           34.42788855957865       -4.51789262926442       -0.21611105026839
H           36.33340968973661       -2.60509377197471       -0.11878749760455
H           36.24691889204458        2.72577529447373        0.12480711668063
H           34.29773183244556        4.56650672810523        0.20558393136875
H           32.53035434824479        0.73490883447356        0.02786166944849
H           31.64594358625557        4.46703768002328        0.20006871243472
H           29.04366138870042        4.47777233065582        0.20398625947543
H           27.14884910891556        2.55296485682021        0.11386929819588
C           89.54334220706782        0.05515045838081        0.00524876296071
C           88.92360389487784        1.28064284943693       -0.20388668526307
C           89.54231932664277        2.54678669420418       -0.41242776075110
C           88.55368014145543        3.47619761804216       -0.57444607948224
C           87.30002049977311        2.80764884553064       -0.46957617461257
N           87.57438549692723        1.48918621178060       -0.24712501994228
C           86.03343158106603        3.37150958712397       -0.56961567954774
C           84.81124318178257        2.72313050976242       -0.46532068921795
C           83.53526314913140        3.40673489990120       -0.58142455404122
C           82.58230705636423        2.46443720265773       -0.42581224037472
N           84.61329214322720        1.39476488223498       -0.24508384703174
C           83.27999926856420        1.20841087385277       -0.21640937634712
C           82.62046538509590       -0.02248922842668       -0.01727688112057
C           83.26578194877388       -1.25770917749175        0.18213083477140
C           82.65252380418984       -2.52363923929961        0.38388346178574
C           83.64509473730173       -3.45181775822827        0.53927542120752
C           84.89441513212610       -2.77846381379657        0.43714300854268
N           84.61266269500098       -1.45658375818539        0.22058736508753
C           86.15989928119642       -3.34285424817118        0.53874670596821
C           87.38290175614048       -2.69078794378035        0.44213803645432
C           88.66517346092836       -3.36708876668320        0.56460308616934
C           89.61205199460733       -2.41892197881381        0.41641016924835
C           88.90738041154907       -1.16473191768136        0.20325260702695
N           87.56849315431309       -1.36743012407268        0.22575251750974
H           90.62816704109513        0.05972504701058        0.01240934690956
H           90.60816211214663        2.70990646149818       -0.43335077625758
H           88.66844037839384        4.53389948603547       -0.75123217069861
H           86.87734165193676        0.76161954726399       -0.12921704774991
H           86.00655313982092        4.44167734962166       -0.74855076848393
H           83.41835427026744        4.46453806572135       -0.75771317237567
H           81.51000587159085        2.57760320469854       -0.44657854999430
H           81.58742584912260       -2.69026512686215        0.40538675868365
H           83.53351268152345       -4.51066344283778        0.71032704630415
H           85.30714832973094       -0.72565384159895        0.10637326477549
H           86.18554654490605       -4.41355066679591        0.71419320038895
H           88.78761416475220       -4.42456473290514        0.74014445620277
H           90.68551045802417       -2.52377522824545        0.44293028661864
C           37.84580498142806        0.05360517314056        0.01133655456671
C           36.62331730266273        0.03741623893897        0.00629044237921
C           39.19483890630394        0.06293069793164        0.01342295202841
C           40.41751719735629        0.06763152683823        0.01604649418086
C           51.44619846583682        0.02905129425255       -0.00299041022449
C           50.22316384576262        0.03477943266435       -0.00614703635623
C           52.79487778121829        0.02723265758453        0.00106656841659
C           54.01790961382153        0.02039258201647        0.00531462342642
C           65.04905271491079       -0.03284529555520       -0.00076254192666
C           63.82603161398684       -0.02368501787379        0.00276069010605
C           66.39766856554857       -0.03640811911384       -0.00024443001217
C           67.62064729053012       -0.04372463282377        0.00264089938815
C           78.64450521658156       -0.04739949409992       -0.00135693445314
C           77.42185936635838       -0.04845903757389        0.00400463203835
C           79.99351231575753       -0.04296761640400       -0.00886760922703
C           81.21598681398243       -0.03055376880845       -0.01511953415078
C           41.82108047333875        0.06863906872223        0.01400753298257
C           42.46465298379045        1.32157459256611        0.01071093670862
C           41.85534703524840        2.60396233366467        0.01050852789822
C           42.85224655308269        3.54189299169044        0.00387328987568
C           44.09816132121839        2.85677135772002       -0.00003617590771
N           43.81239962022545        1.51903732261616        0.00477259720363
C           45.36544141691820        3.43049372214365       -0.00790658218463
C           46.59466190393722        2.78940043621360       -0.01130226474255
C           47.86108704247306        3.50013485702754       -0.01838564568574
C           48.82743512849451        2.55835207789972       -0.01754669891976
N           46.81172365930730        1.44561756518413       -0.00703002419233
C           48.14751071227019        1.27619589269319       -0.01049778629703
C           48.81988755118392        0.03580221780299       -0.00653360534696
C           48.17577293150136       -1.21709070193898       -0.00141004640753
C           48.78492442549425       -2.49966355865100        0.00167205053040
C           47.78795909919751       -3.43735512070282        0.00585171701670
C           46.54204713460032       -2.75208072662369        0.00584080151083
N           46.82808902940966       -1.41420468858193        0.00121587526932
C           45.27506633975197       -3.32585606325339        0.01032106577246
C           44.04564420295617       -2.68477329556307        0.01232084863646
C           42.77919621239485       -3.39548086225653        0.01767900932933
C           41.81294410060885       -2.45367934771563        0.01874304016268
C           42.49301034426812       -1.17160201219086        0.01382342783258
N           43.82905456162758       -1.34119315049268        0.01015715562819
H           40.79085512512810        2.77555370407664        0.01476564062295
H           42.74420238443393        4.61482532556881        0.00171454718772
H           44.50073211896564        0.77342439531256        0.00318413663812
H           45.38365567918410        4.51598003968387       -0.01143285661752
H           47.96319615839453        4.57404668719303       -0.02299786978445
H           49.89810600655529        2.68793475561398       -0.02157920924116
H           49.84934854447305       -2.67148333111036        0.00055899969925
H           47.89569768292345       -4.51029976876731        0.00894019203752
H           46.13979674516278       -0.66855288311779        0.00016917117008
H           45.25680173638168       -4.41133306649563        0.01304924443960
H           42.67694451000832       -4.46936490594568        0.02035448882472
H           40.74231065070519       -2.58325013820406        0.02261647773488
C           55.42114677968409        0.01834925108986        0.00894637213287
C           56.06669089102082        1.27050046345895       -0.00637350833617
C           55.45932741311704        2.55371159681505       -0.02323287053222
C           56.45767856988623        3.48997405479223       -0.03456037171984
C           57.70261984370450        2.80305888230789       -0.02530545390202
N           57.41470295515381        1.46576736492101       -0.00788800863060
C           58.97041972575636        3.37540070510230       -0.03434688656324
C           60.19947710970980        2.73383737582059       -0.02861615116568
C           61.46620136169420        3.44391777307128       -0.04263122189696
C           62.43219009882807        2.50177509023239       -0.03248312480700
N           60.41591207995629        1.39017473779577       -0.01047608670882
C           61.75171134771388        1.22014852373151       -0.01194620486882
C           62.42286372616600       -0.02068418457850        0.00488739873508
C           61.77724329350865       -1.27272493641113        0.02451527591144
C           62.38483846312889       -2.55583446030432        0.04136245409186
C           61.38664195028183       -3.49218702475689        0.05696711169306
C           60.14162592015280       -2.80539341225304        0.04975423562890
N           60.42931351753031       -1.46809305036097        0.03009066939825
C           58.87383758530731       -3.37768729246680        0.05976307390422
C           57.64486702317981       -2.73600345170822        0.05096098606862
C           56.37816380325589       -3.44613006013805        0.06067900737228
C           55.41217909567841       -2.50405699425038        0.04575523909134
C           56.09262701968130       -1.22236876719214        0.02742431754910
N           57.42843264033294       -1.39234101486461        0.03115434605318
H           54.39513981248166        2.72699898203998       -0.02614322557428
H           56.35133173890796        4.56297427521566       -0.04843054188118
H           58.10163697233352        0.71892000681255        0.00192908400402
H           58.98939489308834        4.46079638059833       -0.04882424141921
H           61.56880880509266        4.51767700885298       -0.05834546516428
H           63.50292167042713        2.63088118728754       -0.03800738543047
H           63.44905742979737       -2.72894202509431        0.04130004553364
H           61.49317089452404       -4.56515005946197        0.07186466794035
H           59.74228253120909       -0.72133065269437        0.02081271645081
H           58.85477646617812       -4.46305407972006        0.07556200390399
H           56.27563131302369       -4.51988686083918        0.07654391847389
H           54.34145485674595       -2.63322167134980        0.04683046115916
C           69.02388818680906       -0.04250970690862        0.00479382803725
C           69.66384638380266        1.21197580202736       -0.03327952496764
C           69.04927207294392        2.49134143784042       -0.07463106720842
C           70.04218241362815        3.43280974813296       -0.10452079226989
C           71.29092026105059        2.75313512964630       -0.08231343756796
N           71.01061895321347        1.41467958994820       -0.03903953355700
C           72.55562315793681        3.33147783114702       -0.10238558035109
C           73.78693024561018        2.69432890480382       -0.08369904154266
C           75.05153408772337        3.40774402718979       -0.11130340572111
C           76.02014765287159        2.46880677508175       -0.08235462733376
N           74.00682565847866        1.35203716889906       -0.03882258901904
C           75.34327651041210        1.18582701723045       -0.03656624233104
C           76.01829391955972       -0.05177578946712        0.00762427099101
C           75.37903318202082       -1.30599864698820        0.05552230620432
C           75.99372263038825       -2.58503804579976        0.10147939109749
C           75.00082847260710       -3.52664902699944        0.13306770669906
C           73.75209109643461       -2.84722350718947        0.10712063151607
N           74.03216683405333       -1.50901283204560        0.06150681244654
C           72.48706835143207       -3.42567585253917        0.12197147989998
C           71.25594427790604       -2.78878815100058        0.09615683351283
C           69.99140273663444       -3.50264859985351        0.11319012981504
C           69.02263731189153       -2.56390348320289        0.08051811644355
C           69.69928988043041       -1.28050865448515        0.04383631922850
N           71.03548519726461       -1.44622279738902        0.05355942927955
H           67.98412393511886        2.65847165891758       -0.08064469962412
H           69.92983498711625        4.50471539539696       -0.13930126768297
H           71.70243130994473        0.67271492235269       -0.01506446728264
H           72.57009647043996        4.41640853122000       -0.13811028556120
H           75.15101316280138        4.48127030137060       -0.14792036046100
H           77.09046777205565        2.60084455871382       -0.08971783580854
H           77.05893696333165       -2.75195485489018        0.10861798094293
H           75.11344031949785       -4.59845276350963        0.17057042321099
H           73.34042121882018       -0.76711505271511        0.03389308338815
H           72.47265130261115       -4.51062467345966        0.15752326377182
H           69.89213502359988       -4.57635499288009        0.14550239515235
H           67.95229801248028       -2.69629866086705        0.08018864300502

          :  Hamiltonian                  GFN1-xTB          :
         :: total energy            -341.905757687273 Eh    ::
         :: gradient norm              0.000469078876 Eh/a0 ::
         :: HOMO-LUMO gap              0.731303743706 eV    ::
         :: SCC energy              -347.777715416260 Eh    ::
         :: repulsion energy           6.031929193208 Eh    ::

    * Orbital Energies and Occupations

         #    Occupation            Energy/Eh            Energy/eV
      -------------------------------------------------------------
         1        2.0000           -0.8054920             -21.9186
       ...           ...                  ...                  ...
       301        2.0000           -0.4164574             -11.3324
       302        2.0000           -0.4163616             -11.3298
       303        2.0000           -0.4160916             -11.3224
       304        2.0000           -0.4007111             -10.9039
       305        2.0000           -0.4005301             -10.8990
       306        2.0000           -0.4005126             -10.8985
       307        2.0000           -0.3994261             -10.8689
       308        2.0000           -0.3994075             -10.8684
       309        2.0000           -0.3947570             -10.7419
       310        2.0000           -0.3911749             -10.6444
       311        2.0000           -0.3859998             -10.5036
       312        2.0000           -0.3803104             -10.3488
       313        2.0000           -0.3758493             -10.2274 (HOMO)
       314        0.0000           -0.3489744              -9.4961 (LUMO)
       315                         -0.3434775              -9.3465
       316                         -0.3369903              -9.1700
       317                         -0.3320718              -9.0361
       318                         -0.3320567              -9.0357
       319                         -0.3319029              -9.0315
       320                         -0.3314793              -9.0200
       321                         -0.3312435              -9.0136
       322                         -0.3301655              -8.9843
       323                         -0.3265393              -8.8856
       324                         -0.3067061              -8.3459
       ...                                ...                  ...
       668                          1.5149728              41.2245
      -------------------------------------------------------------
                  HL-Gap            0.0268749 Eh            0.7313 eV

Wiberg/Mayer (AO) data.
largest (>0.10) Wiberg bond orders for each atom

     #   Z sym  total        # sym  WBO       # sym  WBO       # sym  WBO
 ---------------------------------------------------------------------------
     1   6 C    3.929 --    23 C    1.363     2 C    1.349    25 H    0.972
     2   6 C    3.903 --     1 C    1.349     3 C    1.225     6 N    1.172
     3   6 C    3.954 --     4 C    1.602     2 C    1.225    26 H    0.977
     4   6 C    3.958 --     3 C    1.602     5 C    1.226    27 H    0.977
     5   6 C    3.897 --     7 C    1.342     4 C    1.226     6 N    1.174
     6   7 N    3.471 --     5 C    1.174     2 C    1.172    28 H    0.873
     7   6 C    3.944 --     8 C    1.379     5 C    1.342    29 H    0.971
     8   6 C    3.915 --     7 C    1.379    11 N    1.277     9 C    1.119
     9   6 C    3.965 --    10 C    1.717     8 C    1.119    30 H    0.976
    10   6 C    3.964 --     9 C    1.717    12 C    1.124    31 H    0.975
    11   7 N    3.026 --    12 C    1.353     8 C    1.277
    12   6 C    3.909 --    11 N    1.353    13 C    1.251    10 C    1.124
    13   6 C    3.941 --    14 C    1.253    12 C    1.251    76 C    1.194
    14   6 C    3.885 --    13 C    1.253    15 C    1.245    18 N    1.193
    15   6 C    3.959 --    16 C    1.589    14 C    1.245    32 H    0.975
    16   6 C    3.953 --    15 C    1.589    17 C    1.233    33 H    0.977
    17   6 C    3.899 --    19 C    1.350    16 C    1.233    18 N    1.162
    18   7 N    3.476 --    14 C    1.193    17 C    1.162    34 H    0.873
    19   6 C    3.929 --    20 C    1.364    17 C    1.350    35 H    0.971
    20   6 C    3.930 --    19 C    1.364    24 N    1.308    21 C    1.112
    21   6 C    3.967 --    22 C    1.729    20 C    1.112    36 H    0.976
    22   6 C    3.966 --    21 C    1.729    23 C    1.113    37 H    0.976
    23   6 C    3.929 --     1 C    1.363    24 N    1.308    22 C    1.113
    24   7 N    3.015 --    20 C    1.308    23 C    1.308
    25   1 H    1.002 --     1 C    0.972
    26   1 H    0.998 --     3 C    0.977
    27   1 H    0.998 --     4 C    0.977
    28   1 H    0.986 --     6 N    0.873
    29   1 H    1.002 --     7 C    0.971
    30   1 H    0.998 --     9 C    0.976
    31   1 H    1.002 --    10 C    0.975
    32   1 H    1.002 --    15 C    0.975
    33   1 H    0.998 --    16 C    0.977
    34   1 H    0.987 --    18 N    0.873
    35   1 H    1.002 --    19 C    0.971
    36   1 H    0.998 --    21 C    0.976
    37   1 H    0.998 --    22 C    0.976
    38   6 C    3.929 --    60 C    1.363    39 C    1.349    62 H    0.972
    39   6 C    3.903 --    38 C    1.349    40 C    1.225    43 N    1.172
    40   6 C    3.954 --    41 C    1.602    39 C    1.225    63 H    0.977
    41   6 C    3.958 --    40 C    1.602    42 C    1.226    64 H    0.977
    42   6 C    3.897 --    44 C    1.342    41 C    1.226    43 N    1.174
    43   7 N    3.471 --    42 C    1.174    39 C    1.172    65 H    0.873
    44   6 C    3.944 --    45 C    1.379    42 C    1.342    66 H    0.971
    45   6 C    3.915 --    44 C    1.379    48 N    1.277    46 C    1.119
    46   6 C    3.965 --    47 C    1.717    45 C    1.119    67 H    0.976
    47   6 C    3.964 --    46 C    1.717    49 C    1.124    68 H    0.975
    48   7 N    3.026 --    49 C    1.353    45 C    1.277
    49   6 C    3.909 --    48 N    1.353    50 C    1.252    47 C    1.124
    50   6 C    3.941 --    51 C    1.253    49 C    1.252    90 C    1.193
    51   6 C    3.885 --    50 C    1.253    52 C    1.245    55 N    1.193
    52   6 C    3.959 --    53 C    1.589    51 C    1.245    69 H    0.975
    53   6 C    3.953 --    52 C    1.589    54 C    1.233    70 H    0.977
    54   6 C    3.899 --    56 C    1.350    53 C    1.233    55 N    1.162
    55   7 N    3.476 --    51 C    1.193    54 C    1.162    71 H    0.873
    56   6 C    3.929 --    57 C    1.364    54 C    1.350    72 H    0.971
    57   6 C    3.930 --    56 C    1.364    61 N    1.308    58 C    1.112
    58   6 C    3.967 --    59 C    1.729    57 C    1.112    73 H    0.976
    59   6 C    3.966 --    58 C    1.729    60 C    1.113    74 H    0.976
    60   6 C    3.929 --    38 C    1.363    61 N    1.308    59 C    1.113
    61   7 N    3.015 --    57 C    1.308    60 C    1.308
    62   1 H    1.002 --    38 C    0.972
    63   1 H    0.998 --    40 C    0.977
    64   1 H    0.998 --    41 C    0.977
    65   1 H    0.986 --    43 N    0.873
    66   1 H    1.002 --    44 C    0.971
    67   1 H    0.998 --    46 C    0.976
    68   1 H    1.002 --    47 C    0.975
    69   1 H    1.002 --    52 C    0.975
    70   1 H    0.998 --    53 C    0.977
    71   1 H    0.987 --    55 N    0.873
    72   1 H    1.002 --    56 C    0.971
    73   1 H    0.998 --    58 C    0.976
    74   1 H    0.998 --    59 C    0.976
    75   6 C    3.933 --    76 C    2.470    77 C    1.312
    76   6 C    3.923 --    75 C    2.470    13 C    1.194    78 C    0.198
    77   6 C    3.930 --    78 C    2.469    75 C    1.312
    78   6 C    3.925 --    77 C    2.469    91 C    1.197    76 C    0.198
    79   6 C    3.929 --    80 C    2.465    81 C    1.315
    80   6 C    3.923 --    79 C    2.465   103 C    1.198    82 C    0.198
    81   6 C    3.929 --    82 C    2.465    79 C    1.315
    82   6 C    3.924 --    81 C    2.465   127 C    1.199    80 C    0.198
    83   6 C    3.929 --    84 C    2.465    85 C    1.315
    84   6 C    3.924 --    83 C    2.465   139 C    1.199    86 C    0.198
    85   6 C    3.930 --    86 C    2.465    83 C    1.315
    86   6 C    3.923 --    85 C    2.465   163 C    1.198    84 C    0.198
    87   6 C    3.930 --    88 C    2.469    89 C    1.312
    88   6 C    3.925 --    87 C    2.469   175 C    1.196    90 C    0.198
    89   6 C    3.933 --    90 C    2.471    87 C    1.312
    90   6 C    3.923 --    89 C    2.471    50 C    1.193    88 C    0.198
    91   6 C    3.927 --   113 C    1.251    92 C    1.248    78 C    1.197
    92   6 C    3.886 --    93 C    1.250    91 C    1.248    96 N    1.193
    93   6 C    3.955 --    94 C    1.582    92 C    1.250   115 H    0.975
    94   6 C    3.954 --    93 C    1.582    95 C    1.239   116 H    0.977
    95   6 C    3.894 --    97 C    1.337    94 C    1.239    96 N    1.164
    96   7 N    3.472 --    92 C    1.193    95 C    1.164   117 H    0.872
    97   6 C    3.931 --    98 C    1.383    95 C    1.337   118 H    0.971
    98   6 C    3.918 --    97 C    1.383   101 N    1.274    99 C    1.119
    99   6 C    3.965 --   100 C    1.716    98 C    1.119   119 H    0.976
   100   6 C    3.963 --    99 C    1.716   102 C    1.125   120 H    0.975
   101   7 N    3.013 --   102 C    1.355    98 C    1.274
   102   6 C    3.909 --   101 N    1.355   103 C    1.249   100 C    1.125
   103   6 C    3.927 --   102 C    1.249   104 C    1.248    80 C    1.198
   104   6 C    3.886 --   105 C    1.250   103 C    1.248   108 N    1.193
   105   6 C    3.955 --   106 C    1.582   104 C    1.250   121 H    0.975
   106   6 C    3.954 --   105 C    1.582   107 C    1.239   122 H    0.977
   107   6 C    3.894 --   109 C    1.339   106 C    1.239   108 N    1.163
   108   7 N    3.472 --   104 C    1.193   107 C    1.163   123 H    0.872
   109   6 C    3.931 --   110 C    1.382   107 C    1.339   124 H    0.971
   110   6 C    3.918 --   109 C    1.382   114 N    1.275   111 C    1.119
   111   6 C    3.965 --   112 C    1.716   110 C    1.119   125 H    0.976
   112   6 C    3.964 --   111 C    1.716   113 C    1.125   126 H    0.975
   113   6 C    3.910 --   114 N    1.353    91 C    1.251   112 C    1.125
   114   7 N    3.013 --   113 C    1.353   110 C    1.275
   115   1 H    1.001 --    93 C    0.975
   116   1 H    0.998 --    94 C    0.977
   117   1 H    0.986 --    96 N    0.872
   118   1 H    1.002 --    97 C    0.971
   119   1 H    0.998 --    99 C    0.976
   120   1 H    1.002 --   100 C    0.975
   121   1 H    1.001 --   105 C    0.975
   122   1 H    0.998 --   106 C    0.977
   123   1 H    0.986 --   108 N    0.872
   124   1 H    1.002 --   109 C    0.971
   125   1 H    0.998 --   111 C    0.976
   126   1 H    1.002 --   112 C    0.975
   127   6 C    3.926 --   149 C    1.249   128 C    1.247    82 C    1.199
   128   6 C    3.886 --   129 C    1.250   127 C    1.247   132 N    1.193
   129   6 C    3.955 --   130 C    1.582   128 C    1.250   151 H    0.975
   130   6 C    3.954 --   129 C    1.582   131 C    1.239   152 H    0.977
   131   6 C    3.894 --   133 C    1.338   130 C    1.239   132 N    1.164
   132   7 N    3.472 --   128 C    1.193   131 C    1.164   153 H    0.872
   133   6 C    3.931 --   134 C    1.382   131 C    1.338   154 H    0.971
   134   6 C    3.918 --   133 C    1.382   137 N    1.274   135 C    1.119
   135   6 C    3.965 --   136 C    1.716   134 C    1.119   155 H    0.976
   136   6 C    3.963 --   135 C    1.716   138 C    1.126   156 H    0.975
   137   7 N    3.012 --   138 C    1.354   134 C    1.274
   138   6 C    3.909 --   137 N    1.354   139 C    1.249   136 C    1.126
   139   6 C    3.926 --   138 C    1.249   140 C    1.247    84 C    1.199
   140   6 C    3.886 --   141 C    1.250   139 C    1.247   144 N    1.193
   141   6 C    3.955 --   142 C    1.582   140 C    1.250   157 H    0.975
   142   6 C    3.954 --   141 C    1.582   143 C    1.239   158 H    0.977
   143   6 C    3.894 --   145 C    1.338   142 C    1.239   144 N    1.163
   144   7 N    3.472 --   140 C    1.193   143 C    1.163   159 H    0.872
   145   6 C    3.931 --   146 C    1.382   143 C    1.338   160 H    0.971
   146   6 C    3.918 --   145 C    1.382   150 N    1.274   147 C    1.119
   147   6 C    3.965 --   148 C    1.716   146 C    1.119   161 H    0.976
   148   6 C    3.963 --   147 C    1.716   149 C    1.126   162 H    0.975
   149   6 C    3.909 --   150 N    1.354   127 C    1.249   148 C    1.126
   150   7 N    3.012 --   149 C    1.354   146 C    1.274
   151   1 H    1.001 --   129 C    0.975
   152   1 H    0.998 --   130 C    0.977
   153   1 H    0.986 --   132 N    0.872
   154   1 H    1.002 --   133 C    0.971
   155   1 H    0.998 --   135 C    0.976
   156   1 H    1.002 --   136 C    0.975
   157   1 H    1.001 --   141 C    0.975
   158   1 H    0.998 --   142 C    0.977
   159   1 H    0.986 --   144 N    0.872
   160   1 H    1.002 --   145 C    0.971
   161   1 H    0.998 --   147 C    0.976
   162   1 H    1.002 --   148 C    0.975
   163   6 C    3.927 --   185 C    1.249   164 C    1.247    86 C    1.198
   164   6 C    3.886 --   165 C    1.250   163 C    1.247   168 N    1.193
   165   6 C    3.955 --   166 C    1.583   164 C    1.250   187 H    0.975
   166   6 C    3.954 --   165 C    1.583   167 C    1.239   188 H    0.977
   167   6 C    3.894 --   169 C    1.339   166 C    1.239   168 N    1.163
   168   7 N    3.472 --   164 C    1.193   167 C    1.163   189 H    0.873
   169   6 C    3.931 --   170 C    1.381   167 C    1.339   190 H    0.971
   170   6 C    3.918 --   169 C    1.381   173 N    1.275   171 C    1.119
   171   6 C    3.965 --   172 C    1.716   170 C    1.119   191 H    0.976
   172   6 C    3.964 --   171 C    1.716   174 C    1.125   192 H    0.975
   173   7 N    3.013 --   174 C    1.353   170 C    1.275
   174   6 C    3.910 --   173 N    1.353   175 C    1.251   172 C    1.125
   175   6 C    3.927 --   174 C    1.251   176 C    1.248    88 C    1.196
   176   6 C    3.886 --   177 C    1.250   175 C    1.248   180 N    1.193
   177   6 C    3.955 --   178 C    1.582   176 C    1.250   193 H    0.975
   178   6 C    3.954 --   177 C    1.582   179 C    1.239   194 H    0.977
   179   6 C    3.894 --   181 C    1.337   178 C    1.239   180 N    1.164
   180   7 N    3.472 --   176 C    1.193   179 C    1.164   195 H    0.873
   181   6 C    3.931 --   182 C    1.383   179 C    1.337   196 H    0.971
   182   6 C    3.918 --   181 C    1.383   186 N    1.274   183 C    1.119
   183   6 C    3.965 --   184 C    1.716   182 C    1.119   197 H    0.976
   184   6 C    3.963 --   183 C    1.716   185 C    1.125   198 H    0.975
   185   6 C    3.910 --   186 N    1.354   163 C    1.249   184 C    1.125
   186   7 N    3.013 --   185 C    1.354   182 C    1.274
   187   1 H    1.001 --   165 C    0.975
   188   1 H    0.998 --   166 C    0.977
   189   1 H    0.986 --   168 N    0.873
   190   1 H    1.002 --   169 C    0.971
   191   1 H    0.998 --   171 C    0.976
   192   1 H    1.002 --   172 C    0.975
   193   1 H    1.002 --   177 C    0.975
   194   1 H    0.998 --   178 C    0.977
   195   1 H    0.986 --   180 N    0.873
   196   1 H    1.002 --   181 C    0.971
   197   1 H    0.998 --   183 C    0.976
   198   1 H    1.002 --   184 C    0.975
 ---------------------------------------------------------------------------

           -------------------------------------------------
          | TOTAL ENERGY             -341.905757687273 Eh   |
          | GRADIENT NORM               0.000469078876 Eh/α |
          | HOMO-LUMO GAP               0.731303743706 eV   |
           -------------------------------------------------

 * finished run on 2022/07/26 at 14:25:52.182
