   * xtb version 6.5.1 (b24c23e) compiled by 'conda@728c89f4b128' on 2022-07-12
          program call               : xtb Fe_H_C6_2.xyz --gfn 1 --opt -T 48

   ID    Z sym.   atoms
    1   26 Fe     1, 37
    2    6 C      2-6, 8-11, 13-18, 20-24, 38-42, 44-47, 49-54, 56-60, 73-78
    3    7 N      7, 12, 19, 25, 43, 48, 55, 61
    4    1 H      26-36, 62-72
########################################################################
[WARNING] Please study the warnings concerning your input carefully
-1- prog_main_parseArguments: Unknown option '-T' provided
########################################################################

          :  Hamiltonian                  GFN1-xTB          :
 * total energy  :  -139.3905267 Eh     change        0.8448069E-09 Eh
 * total energy  :  -140.2677259 Eh     change       -0.8771992E+00 Eh
 * total energy  :  -140.3777476 Eh     change       -0.1100217E+00 Eh
 * total energy  :  -140.4297930 Eh     change       -0.5204541E-01 Eh
 * total energy  :  -140.4519108 Eh     change       -0.2211777E-01 Eh
 * total energy  :  -140.4617936 Eh     change       -0.9882865E-02 Eh
 * total energy  :  -140.4684355 Eh     change       -0.6641820E-02 Eh
 * total energy  :  -140.4731607 Eh     change       -0.4725256E-02 Eh
 * total energy  :  -140.4763054 Eh     change       -0.3144657E-02 Eh
 * total energy  :  -140.4784228 Eh     change       -0.2117428E-02 Eh
 * total energy  :  -140.4821542 Eh     change       -0.5124171E-05 Eh
 * total energy  :  -140.4821634 Eh     change       -0.9193137E-05 Eh
 * total energy  :  -140.4821717 Eh     change       -0.8306282E-05 Eh
 * total energy  :  -140.4821822 Eh     change       -0.1044323E-04 Eh
 * total energy  :  -140.4821979 Eh     change       -0.1575783E-04 Eh
 * total energy  :  -140.4822145 Eh     change       -0.1659841E-04 Eh
 * total energy  :  -140.4822220 Eh     change       -0.7464089E-05 Eh
 * total energy  :  -140.4822236 Eh     change       -0.1604651E-05 Eh
 * total energy  :  -140.4822269 Eh     change       -0.3294180E-05 Eh
   *** GEOMETRY OPTIMIZATION CONVERGED AFTER 33 ITERATIONS ***

 final structure:
================
78
 xtb: 6.5.1 (b24c23e)
Fe           6.51661644304858       -0.05177392860716        0.00839293882738
C            3.10510013348305       -0.06155268244570       -0.01759331924868
C            3.76179466737375       -0.89978422218759       -0.89521420639516
C            3.09276813598695       -1.78257068337025       -1.80566209131568
C            4.05824647387927       -2.44586741083787       -2.48414168736336
C            5.31435035935690       -1.96994625140261       -1.98313006441663
N            5.12055587865005       -1.01513879346846       -1.02209910769260
C            6.53880529352973       -2.44388296370124       -2.41026953674550
C            7.75266730955096       -2.01345693948693       -1.91913675625624
C            9.01361535356171       -2.53868825756944       -2.34873743309301
C            9.96755547579701       -1.87422905638698       -1.65352627741479
N            7.93565859625967       -1.03427762869301       -0.97295529725291
C            9.28559137867544       -0.94165267510820       -0.80829811035318
C            9.94849523874650       -0.03548376373115        0.02755582378425
C            9.26890821368370        0.88483664216375        0.83390624225009
C            9.93345224505186        1.82482619326875        1.68468744131834
C            8.96478469626796        2.52341363069123        2.32375418170091
C            7.71271942493042        2.00336929310205        1.86325160348329
N            7.91541896071904        1.00742930790894        0.93832426175608
C            6.48905194616881        2.44287262629803        2.32057641769691
C            5.27423001363859        1.93923655770397        1.89985259806978
C            4.00899675475612        2.39033799560114        2.40077045273939
C            3.05776816946732        1.68184699198323        1.74828594897700
C            3.74448559514863        0.80240115801056        0.84786716504884
N            5.09995595873727        0.96798295264970        0.95187426246975
H            2.02112077108754       -0.07864903672014       -0.01171612775062
H            2.02136982413589       -1.86793884724018       -1.89599728591548
H            3.95265842639288       -3.19527092716641       -3.25263584857965
H            6.54584830832909       -3.21371006742989       -3.17375357743308
H            9.13237855018023       -3.31701563765618       -3.08568077269572
H           11.03878173956457       -1.98800922652891       -1.69913779968207
H           11.00390884314538        1.92166910545204        1.77009985919315
H            9.06830285992450        3.31600002729304        3.04764374171999
H            6.48034173038261        3.23037940005755        3.06579055495187
H            3.88796120915059        3.15151399516515        3.15529354605960
H            1.98526140251865        1.73499947046626        1.84960672535182
Fe          22.54944001486894        0.02959586366351        0.04455918790764
C           25.96066374516556        0.05707785032253        0.02236483136415
C           25.30289817812775        1.26718486899916       -0.06165728873408
C           25.97069046860259        2.53329832098649       -0.14434421928007
C           25.00431453916574        3.47959637203250       -0.19959044664582
C           23.74889588774353        2.78944533525646       -0.14526870883143
N           23.94396121772338        1.43677817326827       -0.07499989615978
C           22.52387655819411        3.42632912560079       -0.13925145845524
C           21.31094481983931        2.77653011457041       -0.05889207523356
C           20.04976568644551        3.45328155773220       -0.01751212107020
C           19.09687689269160        2.49341407736367        0.05620070566192
N           21.12918977573911        1.41538803367783       -0.01475025809668
C           19.77964914851447        1.23525782569847        0.05210945587154
C           19.11783113940369        0.00195777900179        0.06391899127853
C           19.79827135834785       -1.22090859335167        0.03844784150640
C           19.13444833188667       -2.48912692827128        0.03789832136510
C           20.10363651942297       -3.43536312861224        0.03409731666646
C           21.35534132429049       -2.74000523333469        0.03686003940848
N           21.15174342363866       -1.38107483838650        0.02567475847302
C           22.57972508864793       -3.37194560119786        0.07206645444055
C           23.79404605942401       -2.71519574020144        0.09595949063333
C           25.06006742500129       -3.38492113465834        0.15811267922779
C           26.01039622322155       -2.42089015389344        0.15198434263349
C           25.32235547619880       -1.16493689638448        0.08171255557408
N           23.96698326317206       -1.35856413034958        0.05032804859836
H           27.04466756210811        0.06653854841157        0.03570314059689
H           27.04196315296697        2.65815751561088       -0.15603740623736
H           25.10886523097633        4.55105536396928       -0.26569403407376
H           22.51563853635341        4.50944458242570       -0.18808086692203
H           19.93008402041973        4.52481964898869       -0.03971951001571
H           18.02590099455956        2.60780934375798        0.10508132297964
H           18.06403650159250       -2.61870901164330        0.04227976604299
H           20.00079887574015       -4.50883298886034        0.03597931239124
H           22.58948335730071       -4.45595810078417        0.09138500230819
H           25.18220412236396       -4.45567777768562        0.20167862649905
H           27.08308954981040       -2.52745426882700        0.18844327059139
C           15.14768898485133       -0.02148877265101        0.09865890542273
C           13.91839354620872       -0.03237659411307        0.08776535441918
C           12.57551234462191       -0.03252807776572        0.07446454379637
C           11.35092458371224       -0.04330691960820        0.04963430677963
C           16.49060391713413       -0.01516721474159        0.09716740877754
C           17.71545077253724       -0.00872354408952        0.08733384275481

          :  Hamiltonian                  GFN1-xTB          :
         :: total energy            -140.482226874660 Eh    ::
         :: gradient norm              0.000889885737 Eh/a0 ::
         :: HOMO-LUMO gap              0.106127415237 eV    ::
         :: SCC energy              -142.788864154119 Eh    ::
         :: repulsion energy           2.372423493435 Eh    ::

    * Orbital Energies and Occupations

         #    Occupation            Energy/Eh            Energy/eV
      -------------------------------------------------------------
         1        2.0000           -0.7713457             -20.9894
       ...           ...                  ...                  ...
       119        2.0000           -0.4296968             -11.6926
       120        2.0000           -0.4263770             -11.6023
       121        2.0000           -0.4212874             -11.4638
       122        2.0000           -0.3991117             -10.8604
       123        2.0000           -0.3989283             -10.8554
       124        2.0000           -0.3989179             -10.8551
       125        1.9914           -0.3936753             -10.7125
       126        1.9909           -0.3936217             -10.7110
       127        1.9323           -0.3916854             -10.6583
       128        1.9323           -0.3916852             -10.6583
       129        1.9192           -0.3915107             -10.6535
       130        1.9177           -0.3914926             -10.6531
       131        1.8164           -0.3906786             -10.6309 (HOMO)
       132        0.2805           -0.3867785             -10.5248 (LUMO)
       133        0.2192           -0.3865110             -10.5175
       134                         -0.3404556              -9.2643
       135                         -0.3310487              -9.0083
       136                         -0.3295256              -8.9668
       137                         -0.3295212              -8.9667
       138                         -0.3057427              -8.3197
       139                         -0.3057287              -8.3193
       140                         -0.3010791              -8.1928
       141                         -0.2975324              -8.0963
       142                         -0.2846092              -7.7446
       ...                                ...                  ...
       278                          1.5710041              42.7492
      -------------------------------------------------------------
                  HL-Gap            0.0039001 Eh            0.1061 eV

Wiberg/Mayer (AO) data.
largest (>0.10) Wiberg bond orders for each atom

     #   Z sym  total        # sym  WBO       # sym  WBO       # sym  WBO
 ---------------------------------------------------------------------------
     1  26 Fe   3.180 --     7 N    0.678    25 N    0.677    19 N    0.671
                            12 N    0.670
     2   6 C    3.932 --     3 C    1.364    24 C    1.364    26 H    0.971
     3   6 C    3.924 --     2 C    1.364     7 N    1.213     4 C    1.169
     4   6 C    3.958 --     5 C    1.655     3 C    1.169    27 H    0.975
     5   6 C    3.960 --     4 C    1.655     6 C    1.170    28 H    0.975
     6   6 C    3.920 --     8 C    1.357     7 N    1.217     5 C    1.170
     7   7 N    3.390 --     6 C    1.217     3 C    1.213     1 Fe   0.678
     8   6 C    3.937 --     9 C    1.374     6 C    1.357    29 H    0.970
     9   6 C    3.916 --     8 C    1.374    12 N    1.195    10 C    1.174
    10   6 C    3.956 --    11 C    1.644     9 C    1.174    30 H    0.975
    11   6 C    3.959 --    10 C    1.644    13 C    1.183    31 H    0.973
    12   7 N    3.389 --    13 C    1.246     9 C    1.195     1 Fe   0.670
    13   6 C    3.904 --    14 C    1.256    12 N    1.246    11 C    1.183
    14   6 C    3.934 --    13 C    1.256    15 C    1.255    76 C    1.196
    15   6 C    3.904 --    14 C    1.255    19 N    1.247    16 C    1.183
    16   6 C    3.959 --    17 C    1.644    15 C    1.183    32 H    0.973
    17   6 C    3.956 --    16 C    1.644    18 C    1.174    33 H    0.975
    18   6 C    3.916 --    20 C    1.375    19 N    1.194    17 C    1.174
    19   7 N    3.390 --    15 C    1.247    18 C    1.194     1 Fe   0.671
    20   6 C    3.937 --    18 C    1.375    21 C    1.356    34 H    0.970
    21   6 C    3.921 --    20 C    1.356    25 N    1.217    22 C    1.170
    22   6 C    3.960 --    23 C    1.655    21 C    1.170    35 H    0.975
    23   6 C    3.958 --    22 C    1.655    24 C    1.169    36 H    0.975
    24   6 C    3.924 --     2 C    1.364    25 N    1.213    23 C    1.169
    25   7 N    3.390 --    21 C    1.217    24 C    1.213     1 Fe   0.677
    26   1 H    1.000 --     2 C    0.971
    27   1 H    0.997 --     4 C    0.975
    28   1 H    0.997 --     5 C    0.975
    29   1 H    1.000 --     8 C    0.970
    30   1 H    0.997 --    10 C    0.975
    31   1 H    1.001 --    11 C    0.973
    32   1 H    1.002 --    16 C    0.973
    33   1 H    0.997 --    17 C    0.975
    34   1 H    1.000 --    20 C    0.970
    35   1 H    0.997 --    22 C    0.975
    36   1 H    0.997 --    23 C    0.975
    37  26 Fe   3.180 --    43 N    0.678    61 N    0.677    55 N    0.671
                            48 N    0.670
    38   6 C    3.932 --    39 C    1.364    60 C    1.364    62 H    0.971
    39   6 C    3.924 --    38 C    1.364    43 N    1.213    40 C    1.169
    40   6 C    3.958 --    41 C    1.655    39 C    1.169    63 H    0.975
    41   6 C    3.960 --    40 C    1.655    42 C    1.170    64 H    0.975
    42   6 C    3.920 --    44 C    1.357    43 N    1.217    41 C    1.170
    43   7 N    3.390 --    42 C    1.217    39 C    1.213    37 Fe   0.678
    44   6 C    3.937 --    45 C    1.374    42 C    1.357    65 H    0.970
    45   6 C    3.916 --    44 C    1.374    48 N    1.195    46 C    1.174
    46   6 C    3.956 --    47 C    1.644    45 C    1.174    66 H    0.975
    47   6 C    3.959 --    46 C    1.644    49 C    1.183    67 H    0.973
    48   7 N    3.389 --    49 C    1.246    45 C    1.195    37 Fe   0.670
    49   6 C    3.904 --    50 C    1.255    48 N    1.246    47 C    1.183
    50   6 C    3.934 --    51 C    1.256    49 C    1.255    78 C    1.196
    51   6 C    3.904 --    50 C    1.256    55 N    1.247    52 C    1.183
    52   6 C    3.959 --    53 C    1.644    51 C    1.183    68 H    0.973
    53   6 C    3.956 --    52 C    1.644    54 C    1.174    69 H    0.975
    54   6 C    3.916 --    56 C    1.374    55 N    1.195    53 C    1.174
    55   7 N    3.390 --    51 C    1.247    54 C    1.195    37 Fe   0.671
    56   6 C    3.937 --    54 C    1.374    57 C    1.356    70 H    0.970
    57   6 C    3.921 --    56 C    1.356    61 N    1.217    58 C    1.170
    58   6 C    3.960 --    59 C    1.655    57 C    1.170    71 H    0.975
    59   6 C    3.958 --    58 C    1.655    60 C    1.169    72 H    0.975
    60   6 C    3.924 --    38 C    1.364    61 N    1.213    59 C    1.169
    61   7 N    3.390 --    57 C    1.217    60 C    1.213    37 Fe   0.677
    62   1 H    1.000 --    38 C    0.971
    63   1 H    0.997 --    40 C    0.975
    64   1 H    0.997 --    41 C    0.975
    65   1 H    1.000 --    44 C    0.970
    66   1 H    0.997 --    46 C    0.975
    67   1 H    1.001 --    47 C    0.973
    68   1 H    1.001 --    52 C    0.973
    69   1 H    0.997 --    53 C    0.975
    70   1 H    1.000 --    56 C    0.970
    71   1 H    0.997 --    58 C    0.975
    72   1 H    0.997 --    59 C    0.975
    73   6 C    3.915 --    74 C    2.352    77 C    1.343    76 C    0.187
    74   6 C    3.915 --    73 C    2.352    75 C    1.343    78 C    0.187
    75   6 C    3.926 --    76 C    2.434    74 C    1.343
    76   6 C    3.881 --    75 C    2.434    14 C    1.196    73 C    0.187
    77   6 C    3.926 --    78 C    2.434    73 C    1.343
    78   6 C    3.881 --    77 C    2.434    50 C    1.196    74 C    0.187
 ---------------------------------------------------------------------------

           -------------------------------------------------
          | TOTAL ENERGY             -140.482226874660 Eh   |
          | GRADIENT NORM               0.000889885737 Eh/α |
          | HOMO-LUMO GAP               0.106127415237 eV   |
           -------------------------------------------------

 * finished run on 2022/07/29 at 16:04:56.876
