   * xtb version 6.5.1 (b24c23e) compiled by 'conda@728c89f4b128' on 2022-07-12
          program call               : xtb Fe_BSA_C8_3.xyz --gfn 1 --opt -T 48

   ID    Z sym.   atoms
    1   26 Fe     1, 65, 145
    2    6 C      2-6, 8-12, 17-21, 23-28, 30-34, 39-44, 66-70, 72-76, 81-85,
                  87-92, 94-98, 103-108, 129-144, 146-150, 152-156, 161-165,
                  167-172, 174-178, 183-188
    3    7 N      7, 22, 29, 45, 71, 86, 93, 109, 151, 166, 173, 189
    4   16 S      13, 35, 77, 99, 157, 179
    5    8 O      14-16, 36-38, 78-80, 100-102, 158-160, 180-182
    6    1 H      46-64, 110-128, 190-207

          :  Hamiltonian                  GFN1-xTB          :
 * total energy  :  -418.9988436 Eh     change        0.2439549E-08 Eh
 * total energy  :  -419.4002847 Eh     change       -0.4014412E+00 Eh
 * total energy  :  -419.5561999 Eh     change       -0.1559152E+00 Eh
 * total energy  :  -419.6251685 Eh     change       -0.6896858E-01 Eh
 * total energy  :  -419.6717405 Eh     change       -0.4657206E-01 Eh
 * total energy  :  -419.7190283 Eh     change       -0.4728776E-01 Eh
 * total energy  :  -419.7735793 Eh     change       -0.5455105E-01 Eh
 * total energy  :  -419.8193364 Eh     change       -0.4575711E-01 Eh
 * total energy  :  -419.8540896 Eh     change       -0.3475310E-01 Eh
 * total energy  :  -419.8788729 Eh     change       -0.2478336E-01 Eh
 * total energy  :  -420.0660198 Eh     change       -0.5611378E-05 Eh
 * total energy  :  -420.0660314 Eh     change       -0.1159736E-04 Eh
 * total energy  :  -420.0660389 Eh     change       -0.7525982E-05 Eh
 * total energy  :  -420.0660460 Eh     change       -0.7144867E-05 Eh
 * total energy  :  -420.0660588 Eh     change       -0.1274414E-04 Eh
 * total energy  :  -420.0660731 Eh     change       -0.1432921E-04 Eh
 * total energy  :  -420.0660837 Eh     change       -0.1055520E-04 Eh
 * total energy  :  -420.0660894 Eh     change       -0.5772688E-05 Eh
 * total energy  :  -420.0660940 Eh     change       -0.4625571E-05 Eh
   *** GEOMETRY OPTIMIZATION CONVERGED AFTER 86 ITERATIONS ***

 final structure:
================
207
 xtb: 6.5.1 (b24c23e)
Fe          28.92947181149436        0.05100113481356        0.01499988603346
C           25.54653934395702        0.18037538136323        0.06840341102652
C           26.19489173684651       -0.29495426839515        1.19017510830900
C           25.52220664132305       -0.78600131867754        2.35498279741005
C           26.47931983494709       -1.04021056465715        3.27832467062413
C           27.73558272249979       -0.68884754493190        2.68086160834546
N           27.55053568988227       -0.27781591464902        1.38858927256063
C           28.95190746194389       -0.69135005353672        3.35474589390645
C           28.96535033048366       -1.04211806652904        4.79394600337664
C           28.26057614653443       -0.26612406984888        5.71743802816522
C           28.27480869854054       -0.59078828351307        7.06398234713499
C           28.99473463156172       -1.70169383496710        7.47270005755397
S           29.02391242896114       -2.11500987017976        9.17635842154704
O           28.74237431620608       -0.96738458961290        9.98796848978042
O           27.71898805287913       -3.08171820629820        9.20612594192605
O           30.17946096545831       -2.90432950885576        9.48514566917118
C           29.70419251631595       -2.48968462147912        6.58100795752705
C           29.68787100512816       -2.15254663360891        5.23774160738029
C           30.15592114458806       -0.37813920869218        2.73797363963801
C           31.41361299351110       -0.30034880259885        3.42017565081149
C           32.35928567173148       -0.08926593979897        2.47307746658939
N           30.32987167481246       -0.15854385106191        1.39299885472690
C           31.67715319847074       -0.03297871034829        1.21817438189306
C           32.33542075373229        0.02287809997625       -0.01573960608828
C           31.65200509807012        0.09019601789666       -1.23576296585602
C           32.30579268780135        0.09567874082765       -2.50669272269363
C           31.34570906982501        0.31930355910476       -3.43654953504092
C           30.10870889982427        0.46052804116579       -2.72737055341849
N           30.30803739155820        0.27156643204035       -1.38124960364274
C           28.90349256327970        0.81250578302417       -3.32020208382733
C           28.89069704477020        1.12049700106730       -4.76905726011869
C           28.11625126403751        0.35597657704659       -5.64517279508860
C           28.10422212349805        0.63778787151457       -7.00128320236680
C           28.87059064697495        1.69339676592088       -7.46785543288736
S           28.85135205100802        2.06191121823348       -9.18193578058034
O           29.20733604827198        3.43050465703601       -9.41783327749671
O           30.10618843938796        1.13581448573925       -9.63628044109242
O           27.66240844798040        1.54850022565708       -9.79489384654194
C           29.64261410013437        2.47417777650007       -6.62295382817002
C           29.65157441852532        2.18010014985176       -5.26949149088525
C           27.70827869499648        0.88720865649194       -2.61310650620254
C           26.45721926039545        1.29834126130391       -3.18302166492819
C           25.51475612479079        1.12055352986488       -2.22762252883384
C           26.19113260679769        0.61090496599586       -1.07279216497553
N           27.53926358279970        0.52148678926973       -1.30516322254550
H           24.46306762012548        0.21190935588654        0.08255800977694
H           24.45458982336309       -0.91367103673952        2.43664491858726
H           26.35839939925088       -1.43148712224705        4.27544422689145
H           27.71370369266333        0.60577594473440        5.37807482004369
H           27.74218340388528        0.01021307666639        7.79027991319403
H           27.51838337534673       -3.34442669705568       10.11269128962333
H           30.26065632763454       -3.34788986970481        6.93616873045645
H           30.22817354109020       -2.76064443514599        4.52165635517486
H           31.54553048008500       -0.39247210600666        4.48588051609216
H           33.42513202661915        0.01442301133092        2.59694662293173
H           33.36365408003043       -0.05191919931740       -2.65281696698058
H           31.45497283213690        0.37947024889250       -4.50711569062281
H           27.53237934110746       -0.47210959614334       -5.26069351171309
H           27.50813147843303        0.05189590735759       -7.68956407858317
H           30.33226242875084        1.31098781575314      -10.55789329512876
H           30.21960417997102        3.29981245093582       -7.02021025443899
H           30.23948324261679        2.78521016799709       -4.58928106276685
H           26.33009625186786        1.67546906127953       -4.18477027899551
H           24.45413675495104        1.30713432496333       -2.28244272694993
Fe          66.02918102374882        0.01846781672852       -0.01120326731291
C           69.41398163724180        0.18049061199475       -0.01616122741820
C           68.76370697949083        0.16047528643665       -1.23302550386228
C           69.43627863128404        0.14256952594130       -2.49696027152442
C           68.47817472196013        0.24243335398976       -3.44820999729332
C           67.22130683600601        0.33534893045098       -2.76257150522209
N           67.40750286318536        0.24543583775150       -1.40934687505674
C           66.00228260735712        0.55847849410379       -3.39185061153547
C           65.98922407749190        0.75822772838385       -4.85999584381506
C           66.66712434869578        1.83865012572049       -5.42990047940645
C           66.65436695389553        2.03162026961917       -6.80149231922849
C           65.96340214600370        1.12900750616279       -7.59352438700960
S           65.93684182584423        1.37088495922836       -9.32984811646676
O           66.17509505290505        2.74543491467490       -9.65946265483123
O           67.27226991405372        0.52564372522828       -9.70484937421513
O           64.80650563537299        0.71303019002400       -9.91582285879255
C           65.28146129586949        0.04870312067687       -7.05759003096170
C           65.29576599561977       -0.13130854883175       -5.68428997726286
C           64.79596008265700        0.60329337462165       -2.70573278952752
C           63.53385165664394        0.89039284361390       -3.32020959473380
C           62.58904882291343        0.73653629725470       -2.36172358745963
N           64.62549189618593        0.33346991580117       -1.36930651832686
C           63.27608869558788        0.36433601615694       -1.16474835595599
C           62.62060842897887       -0.00275047627308        0.01471265889901
C           63.30382721990214       -0.35154256364513        1.18444805365672
C           62.64943968311387       -0.78279880499119        2.37956612053845
C           63.61139781938050       -0.90892603862699        3.32542718490670
C           64.85022994677932       -0.54306450885597        2.70581576522425
N           64.64970334938192       -0.24004081216835        1.38099600697199
C           66.06050327738367       -0.44822130112391        3.37978379171834
C           66.07678611491323       -0.68675641315184        4.84202576686343
C           66.82571306272575       -1.73859493119589        5.37528821118894
C           66.84190560846920       -1.96793468737768        6.74122197776163
C           66.10557313584950       -1.13169767299953        7.56451503620621
S           66.13150626950804       -1.40941854931497        9.29555623093907
O           65.81465913970752       -0.20969191692927       10.01365886132718
O           64.84954670562838       -2.40202078631021        9.39451673775323
O           67.30384343493384       -2.14251279314324        9.67122996588247
C           65.35911038054701       -0.07634695606386        7.06600608976328
C           65.34546759000553        0.14042126833766        5.69801890938245
C           67.25756208054590       -0.14261593404138        2.74287377546967
C           68.51349145071288        0.01105726885677        3.41964293679917
C           69.45412798958743        0.18940320863858        2.46290642420698
C           68.77199627186165        0.15377601168590        1.20426202076836
N           67.42229760496696        0.00142316286785        1.39135752648768
H           70.49750774587973        0.21288400649494       -0.01937323540149
H           70.50445539624656        0.06165771353031       -2.62034547036577
H           68.59830045669906        0.25022044669413       -4.51941365097155
H           67.19194230830755        2.53908549663748       -4.79083570413174
H           67.16605604029748        2.87210524048511       -7.25331363588932
H           67.46143756270847        0.60092262803290      -10.64806637241048
H           64.74730347783702       -0.63413850058955       -7.70621873977179
H           64.77660864181495       -0.97492209529469       -5.24467224160935
H           63.39851526392059        1.17441588513947       -4.35101042743857
H           61.52077361392106        0.85560746621425       -2.44359719168114
H           61.59009266413138       -0.96207080811150        2.46803011522437
H           63.50257666041829       -1.22638088273100        4.34964253399234
H           67.38659814965068       -2.38686367377339        4.71224960562772
H           67.41852103611642       -2.78010482042182        7.16574676754966
H           64.62584745340193       -2.56544632071556       10.31886691030607
H           64.80537331935157        0.56518784282771        7.73995154533183
H           64.77713126189758        0.96692819478405        5.28773081201805
H           68.64459166177666       -0.01343330329935        4.48925297168837
H           70.51712613709670        0.32874156025890        2.57840328432355
C           33.73685359996737        0.00550859233275       -0.03117525762416
C           34.96253791946761       -0.01248059750392       -0.03663073899104
C           36.30287620664447       -0.01876389254886       -0.04439730126932
C           37.53510916935512       -0.02413491606294       -0.04829165637098
C           38.87045989472676       -0.02744206489267       -0.05057115746471
C           40.10284702995876       -0.02900885305805       -0.05049282931374
C           41.44284107697518       -0.02868287567196       -0.05070021529151
C           42.66914316921324       -0.02740948859620       -0.04963224219233
C           52.28404380840664       -0.06619916809091        0.01341091131696
C           53.50939260897717       -0.06919634858274        0.02157182217586
C           54.85084599775675       -0.06999384853922        0.03003860804478
C           56.08229367288283       -0.07068433356029        0.03065181365938
C           57.41924411977811       -0.06348274718207        0.03308385864453
C           58.65049652014039       -0.05646195556805        0.03491455817159
C           59.99242550477932       -0.04281845115012        0.03113991149533
C           61.21724656998241       -0.02791516770973        0.02276361813567
Fe          47.47563790694203       -0.06037880822116        0.00676256589182
C           44.06944926775063       -0.02763519295638       -0.04779062076102
C           44.74238132847023        0.89950618876453        0.75878470379188
C           44.08131118581012        1.83259823210539        1.61581943381528
C           45.03621756213958        2.67332173209466        2.08428193406095
C           46.27632175037237        2.25299474703555        1.50373470978961
N           46.08524919542359        1.13396430682758        0.73165078057316
C           47.47759028691265        2.93968682443362        1.63175114096930
C           47.47891381435787        4.23034068245194        2.35806570466413
C           48.25770729770259        4.39134139321275        3.50668222830803
C           48.25949342090306        5.59548230477407        4.19126767870224
C           47.47917517347014        6.63445436125245        3.71095811769301
S           47.48669428872269        8.16571496215655        4.56582745681541
O           47.12776377502929        9.24429625907465        3.69221166499633
O           46.22829155712044        7.89046083029027        5.55470049331893
O           48.67262380003694        8.29157648580910        5.35926276792919
C           46.70202473592801        6.50722851770231        2.57108107714701
C           46.70244346528924        5.29679115687351        1.89781266004571
C           48.67838685530065        2.46694822771819        1.11534317569167
C           49.92306281226013        3.17231958482836        1.18801462079004
C           50.87816118357983        2.32565739125400        0.73172607148241
N           48.86516373238973        1.22831193664190        0.55302211840938
C           50.21242743134215        1.11356040696305        0.37117797196411
C           50.88218937315047       -0.05787316524739       -0.00179756581742
C           50.20589127162771       -1.22089115702352       -0.38997027994645
C           50.86179595173517       -2.44325269032587       -0.73269262625091
C           49.90600317352456       -3.27442052585640       -1.21607845393265
C           48.67089933345279       -2.55027362160240       -1.17494715073150
N           48.86426731733857       -1.31026208338786       -0.61939699889738
C           47.47318031530747       -3.00691452245284       -1.71349789123368
C           47.47365193785126       -4.29589291619476       -2.44246055742461
C           48.27617555324384       -4.46199071473257       -3.57401055499178
C           48.28063497846111       -5.66392480157480       -4.26230565702034
C           47.47863418747951       -6.69588365730766       -3.80303640524164
S           47.48923818351636       -8.22456247313053       -4.66222461803482
O           47.10446925126435       -9.30201220535899       -3.79838305351325
O           46.25334076051514       -7.93388899047879       -5.67485037803398
O           48.68862496761451       -8.35988098601313       -5.43382426891829
C           46.67808130233636       -6.56392901838443       -2.68000608754042
C           46.67661195827225       -5.35578635275022       -2.00259561044975
C           46.27705540386477       -2.30957075310808       -1.59716701551759
C           45.03758088664078       -2.72487678655748       -2.18307343535367
C           44.08309665285439       -1.88534504585340       -1.71226022065034
C           44.74423781540917       -0.95517187548321       -0.85203270229451
N           46.08844594586530       -1.18356098748591       -0.83348350113778
H           43.02270561905412        1.83551056505011        1.81951987615810
H           44.92100056165158        3.50145132372402        2.76443421574498
H           48.85283553150581        3.56214278148592        3.87096104829958
H           48.85889068778812        5.73169286130818        5.08261019301612
H           45.96298218728604        8.70825142792812        5.99295148256040
H           46.11375950977306        7.34442361267281        2.21688700518177
H           46.11055917406717        5.17903161396728        0.99766899585718
H           50.04168851070209        4.18301826990640        1.54289750861778
H           51.93995616745853        2.49110864511450        0.64630877245078
H           51.91777362623821       -2.62646234758630       -0.61662935458670
H           50.01782746118690       -4.28779819737177       -1.56555838960735
H           48.88814785977215       -3.63809691141402       -3.92199242089593
H           48.89845263459560       -5.80377483256158       -5.14038668613587
H           46.01102934378035       -8.74022808592169       -6.14632663824211
H           46.07350334982068       -7.39600458177480       -2.34157698444493
H           46.06716619248338       -5.23537858596136       -1.11459899614775
H           44.92156110950783       -3.55204346464070       -2.86419589050056
H           43.02441352338845       -1.88731188716341       -1.91555883413289

          :  Hamiltonian                  GFN1-xTB          :
         :: total energy            -420.066094070927 Eh    ::
         :: gradient norm              0.000793403981 Eh/a0 ::
         :: HOMO-LUMO gap              0.092941570049 eV    ::
         :: SCC energy              -425.992166459445 Eh    ::
         :: repulsion energy           6.115281162334 Eh    ::

    * Orbital Energies and Occupations

         #    Occupation            Energy/Eh            Energy/eV
      -------------------------------------------------------------
         1        2.0000           -1.0386532             -28.2632
       ...           ...                  ...                  ...
       354        2.0000           -0.4140525             -11.2669
       355        1.9989           -0.4102769             -11.1642
       356        1.9929           -0.4084687             -11.1150
       357        1.9928           -0.4084582             -11.1147
       358        1.9927           -0.4084483             -11.1144
       359        1.9794           -0.4074540             -11.0874
       360        1.9473           -0.4065471             -11.0627
       361        1.9394           -0.4064099             -11.0590
       362        1.9351           -0.4063433             -11.0572
       363        1.9267           -0.4062235             -11.0539
       364        1.9232           -0.4061772             -11.0526
       365        1.9153           -0.4060794             -11.0500
       366        1.7250           -0.4048618             -11.0169 (HOMO)
       367        0.2939           -0.4014463             -10.9239 (LUMO)
       368        0.2244           -0.4011521             -10.9159
       369        0.2129           -0.4010958             -10.9144
       370                         -0.3605764              -9.8118
       371                         -0.3522036              -9.5839
       372                         -0.3517742              -9.5723
       373                         -0.3505996              -9.5403
       374                         -0.3478789              -9.4663
       375                         -0.3471144              -9.4455
       376                         -0.3334910              -9.0748
       377                         -0.3236621              -8.8073
       ...                                ...                  ...
       761                          1.5844313              43.1146
      -------------------------------------------------------------
                  HL-Gap            0.0034155 Eh            0.0929 eV

Wiberg/Mayer (AO) data.
largest (>0.10) Wiberg bond orders for each atom

     #   Z sym  total        # sym  WBO       # sym  WBO       # sym  WBO
 ---------------------------------------------------------------------------
     1  26 Fe   3.167 --    45 N    0.679     7 N    0.671    22 N    0.670
                            29 N    0.664
     2   6 C    3.928 --    44 C    1.366     3 C    1.362    46 H    0.970
     3   6 C    3.922 --     2 C    1.362     7 N    1.208     4 C    1.172
     4   6 C    3.959 --     5 C    1.650     3 C    1.172    47 H    0.975
     5   6 C    3.961 --     4 C    1.650     6 C    1.173    48 H    0.973
     6   6 C    3.921 --     8 C    1.316     7 N    1.222     5 C    1.173
     7   7 N    3.384 --     6 C    1.222     3 C    1.208     1 Fe   0.671
     8   6 C    3.929 --    19 C    1.330     6 C    1.316     9 C    1.030
     9   6 C    3.986 --    10 C    1.391    18 C    1.390     8 C    1.030
    10   6 C    3.986 --    11 C    1.450     9 C    1.391    49 H    0.971
                            17 C    0.106
    11   6 C    3.989 --    10 C    1.450    12 C    1.407    50 H    0.967
                            18 C    0.106
    12   6 C    3.930 --    11 C    1.407    17 C    1.407    13 S    0.754
    13  16 S    5.265 --    16 O    1.722    14 O    1.717    15 O    1.013
                            12 C    0.754
    14   8 O    2.076 --    13 S    1.717    16 O    0.139
    15   8 O    2.087 --    13 S    1.013    51 H    0.827
    16   8 O    2.080 --    13 S    1.722    14 O    0.139
    17   6 C    3.989 --    18 C    1.450    12 C    1.407    52 H    0.967
                            10 C    0.106
    18   6 C    3.986 --    17 C    1.450     9 C    1.390    53 H    0.971
                            11 C    0.106
    19   6 C    3.917 --     8 C    1.330    22 N    1.201    20 C    1.179
    20   6 C    3.956 --    21 C    1.639    19 C    1.179    54 H    0.973
    21   6 C    3.959 --    20 C    1.639    23 C    1.187    55 H    0.973
    22   7 N    3.386 --    23 C    1.239    19 C    1.201     1 Fe   0.670
    23   6 C    3.901 --    24 C    1.255    22 N    1.239    21 C    1.187
    24   6 C    3.931 --    23 C    1.255    25 C    1.253   129 C    1.199
    25   6 C    3.901 --    24 C    1.253    29 N    1.240    26 C    1.188
    26   6 C    3.959 --    27 C    1.638    25 C    1.188    56 H    0.973
    27   6 C    3.956 --    26 C    1.638    28 C    1.179    57 H    0.973
    28   6 C    3.917 --    30 C    1.330    29 N    1.201    27 C    1.179
    29   7 N    3.383 --    25 C    1.240    28 C    1.201     1 Fe   0.664
    30   6 C    3.929 --    28 C    1.330    41 C    1.315    31 C    1.030
    31   6 C    3.986 --    32 C    1.390    40 C    1.390    30 C    1.030
    32   6 C    3.986 --    33 C    1.450    31 C    1.390    58 H    0.971
                            39 C    0.106
    33   6 C    3.989 --    32 C    1.450    34 C    1.407    59 H    0.967
                            40 C    0.106
    34   6 C    3.930 --    33 C    1.407    39 C    1.407    35 S    0.754
    35  16 S    5.265 --    38 O    1.723    36 O    1.717    37 O    1.013
                            34 C    0.754
    36   8 O    2.075 --    35 S    1.717    38 O    0.139
    37   8 O    2.087 --    35 S    1.013    60 H    0.828
    38   8 O    2.082 --    35 S    1.723    36 O    0.139
    39   6 C    3.989 --    40 C    1.450    34 C    1.407    61 H    0.967
                            32 C    0.106
    40   6 C    3.986 --    39 C    1.450    31 C    1.390    62 H    0.971
                            33 C    0.106
    41   6 C    3.921 --    30 C    1.315    45 N    1.223    42 C    1.173
    42   6 C    3.961 --    43 C    1.651    41 C    1.173    63 H    0.973
    43   6 C    3.958 --    42 C    1.651    44 C    1.172    64 H    0.974
    44   6 C    3.921 --     2 C    1.366    45 N    1.205    43 C    1.172
    45   7 N    3.386 --    41 C    1.223    44 C    1.205     1 Fe   0.679
    46   1 H    1.000 --     2 C    0.970
    47   1 H    0.997 --     4 C    0.975
    48   1 H    1.003 --     5 C    0.973
    49   1 H    1.003 --    10 C    0.971
    50   1 H    0.999 --    11 C    0.967
    51   1 H    0.854 --    15 O    0.827
    52   1 H    0.999 --    17 C    0.967
    53   1 H    1.003 --    18 C    0.971
    54   1 H    1.003 --    20 C    0.973
    55   1 H    1.001 --    21 C    0.973
    56   1 H    1.001 --    26 C    0.973
    57   1 H    1.003 --    27 C    0.973
    58   1 H    1.003 --    32 C    0.971
    59   1 H    0.999 --    33 C    0.967
    60   1 H    0.854 --    37 O    0.828
    61   1 H    0.999 --    39 C    0.967
    62   1 H    1.003 --    40 C    0.971
    63   1 H    1.003 --    42 C    0.973
    64   1 H    0.997 --    43 C    0.974
    65  26 Fe   3.261 --   109 N    0.690    86 N    0.682    71 N    0.678
                            93 N    0.672
    66   6 C    3.942 --   108 C    1.366    67 C    1.362   110 H    0.970
    67   6 C    3.921 --    66 C    1.362    71 N    1.208    68 C    1.173
    68   6 C    3.959 --    69 C    1.650    67 C    1.173   111 H    0.975
    69   6 C    3.961 --    68 C    1.650    70 C    1.173   112 H    0.973
    70   6 C    3.922 --    72 C    1.318    71 N    1.220    69 C    1.173
    71   7 N    3.391 --    70 C    1.220    67 C    1.208    65 Fe   0.678
    72   6 C    3.943 --    83 C    1.329    70 C    1.318    73 C    1.029
    73   6 C    3.986 --    82 C    1.391    74 C    1.391    72 C    1.029
    74   6 C    3.986 --    75 C    1.450    73 C    1.391   113 H    0.971
                            81 C    0.106
    75   6 C    3.989 --    74 C    1.450    76 C    1.407   114 H    0.967
                            82 C    0.106
    76   6 C    3.931 --    81 C    1.407    75 C    1.407    77 S    0.754
    77  16 S    5.265 --    80 O    1.721    78 O    1.718    79 O    1.013
                            76 C    0.754
    78   8 O    2.077 --    77 S    1.718    80 O    0.139
    79   8 O    2.087 --    77 S    1.013   115 H    0.828
    80   8 O    2.080 --    77 S    1.721    78 O    0.139
    81   6 C    3.989 --    82 C    1.450    76 C    1.407   116 H    0.967
                            74 C    0.106
    82   6 C    3.986 --    81 C    1.450    73 C    1.391   117 H    0.971
                            75 C    0.106
    83   6 C    3.916 --    72 C    1.329    86 N    1.202    84 C    1.179
    84   6 C    3.957 --    85 C    1.639    83 C    1.179   118 H    0.973
    85   6 C    3.959 --    84 C    1.639    87 C    1.187   119 H    0.973
    86   7 N    3.395 --    87 C    1.236    83 C    1.202    65 Fe   0.682
    87   6 C    3.903 --    88 C    1.260    86 N    1.236    85 C    1.187
    88   6 C    3.947 --    87 C    1.260    89 C    1.257   144 C    1.190
    89   6 C    3.903 --    88 C    1.257    93 N    1.237    90 C    1.188
    90   6 C    3.959 --    91 C    1.638    89 C    1.188   120 H    0.973
    91   6 C    3.957 --    90 C    1.638    92 C    1.180   121 H    0.973
    92   6 C    3.916 --    94 C    1.328    93 N    1.202    91 C    1.180
    93   7 N    3.391 --    89 C    1.237    92 C    1.202    65 Fe   0.672
    94   6 C    3.943 --    92 C    1.328   105 C    1.318    95 C    1.029
    95   6 C    3.986 --    96 C    1.391   104 C    1.391    94 C    1.029
    96   6 C    3.986 --    97 C    1.449    95 C    1.391   122 H    0.971
                           103 C    0.106
    97   6 C    3.989 --    96 C    1.449    98 C    1.408   123 H    0.967
                           104 C    0.106
    98   6 C    3.931 --    97 C    1.408   103 C    1.407    99 S    0.754
    99  16 S    5.265 --   102 O    1.723   100 O    1.717   101 O    1.013
                            98 C    0.754
   100   8 O    2.075 --    99 S    1.717   102 O    0.139
   101   8 O    2.087 --    99 S    1.013   124 H    0.828
   102   8 O    2.081 --    99 S    1.723   100 O    0.139
   103   6 C    3.989 --   104 C    1.450    98 C    1.407   125 H    0.967
                            96 C    0.106
   104   6 C    3.986 --   103 C    1.450    95 C    1.391   126 H    0.971
                            97 C    0.106
   105   6 C    3.922 --    94 C    1.318   109 N    1.221   106 C    1.173
   106   6 C    3.961 --   107 C    1.652   105 C    1.173   127 H    0.973
   107   6 C    3.959 --   106 C    1.652   108 C    1.171   128 H    0.974
   108   6 C    3.921 --    66 C    1.366   109 N    1.205   107 C    1.171
   109   7 N    3.395 --   105 C    1.221   108 C    1.205    65 Fe   0.690
   110   1 H    1.000 --    66 C    0.970
   111   1 H    0.997 --    68 C    0.975
   112   1 H    1.003 --    69 C    0.973
   113   1 H    1.003 --    74 C    0.971
   114   1 H    0.999 --    75 C    0.967
   115   1 H    0.854 --    79 O    0.828
   116   1 H    0.999 --    81 C    0.967
   117   1 H    1.003 --    82 C    0.971
   118   1 H    1.003 --    84 C    0.973
   119   1 H    1.001 --    85 C    0.973
   120   1 H    1.001 --    90 C    0.973
   121   1 H    1.003 --    91 C    0.973
   122   1 H    1.003 --    96 C    0.971
   123   1 H    0.999 --    97 C    0.967
   124   1 H    0.854 --   101 O    0.828
   125   1 H    0.999 --   103 C    0.967
   126   1 H    1.003 --   104 C    0.971
   127   1 H    1.003 --   106 C    0.973
   128   1 H    0.997 --   107 C    0.974
   129   6 C    3.865 --   130 C    2.420    24 C    1.199   132 C    0.183
   130   6 C    3.926 --   129 C    2.420   131 C    1.357
   131   6 C    3.880 --   132 C    2.313   130 C    1.357   134 C    0.178
   132   6 C    3.915 --   131 C    2.313   133 C    1.383   129 C    0.183
   133   6 C    3.913 --   134 C    2.311   132 C    1.383   136 C    0.182
   134   6 C    3.881 --   133 C    2.311   135 C    1.359   131 C    0.178
   135   6 C    3.922 --   136 C    2.415   134 C    1.359
   136   6 C    3.867 --   135 C    2.415   146 C    1.205   133 C    0.182
   137   6 C    3.870 --   138 C    2.426   168 C    1.197   140 C    0.183
   138   6 C    3.924 --   137 C    2.426   139 C    1.350
   139   6 C    3.885 --   140 C    2.324   138 C    1.350   142 C    0.179
   140   6 C    3.915 --   139 C    2.324   141 C    1.374   137 C    0.183
   141   6 C    3.918 --   142 C    2.326   140 C    1.374   144 C    0.184
   142   6 C    3.883 --   141 C    2.326   143 C    1.347   139 C    0.179
   143   6 C    3.929 --   144 C    2.433   142 C    1.347
   144   6 C    3.870 --   143 C    2.433    88 C    1.190   141 C    0.184
   145  26 Fe   3.189 --   166 N    0.670   189 N    0.669   173 N    0.660
                           151 N    0.659
   146   6 C    3.924 --   188 C    1.250   147 C    1.249   136 C    1.205
   147   6 C    3.903 --   146 C    1.249   151 N    1.242   148 C    1.190
   148   6 C    3.959 --   149 C    1.635   147 C    1.190   190 H    0.973
   149   6 C    3.958 --   148 C    1.635   150 C    1.182   191 H    0.973
   150   6 C    3.915 --   152 C    1.323   151 N    1.204   149 C    1.182
   151   7 N    3.376 --   147 C    1.242   150 C    1.204   145 Fe   0.659
   152   6 C    3.929 --   150 C    1.323   163 C    1.321   153 C    1.031
   153   6 C    3.986 --   154 C    1.390   162 C    1.390   152 C    1.031
   154   6 C    3.986 --   155 C    1.449   153 C    1.390   192 H    0.971
                           161 C    0.106
   155   6 C    3.989 --   154 C    1.449   156 C    1.408   193 H    0.966
                           162 C    0.106
   156   6 C    3.931 --   155 C    1.408   161 C    1.407   157 S    0.754
   157  16 S    5.267 --   160 O    1.725   158 O    1.716   159 O    1.014
                           156 C    0.754
   158   8 O    2.075 --   157 S    1.716   160 O    0.139
   159   8 O    2.088 --   157 S    1.014   194 H    0.827
   160   8 O    2.084 --   157 S    1.725   158 O    0.139
   161   6 C    3.989 --   162 C    1.450   156 C    1.407   195 H    0.967
                           154 C    0.106
   162   6 C    3.986 --   161 C    1.450   153 C    1.390   196 H    0.971
                           155 C    0.106
   163   6 C    3.915 --   152 C    1.321   166 N    1.205   164 C    1.181
   164   6 C    3.958 --   165 C    1.636   163 C    1.181   197 H    0.973
   165   6 C    3.959 --   164 C    1.636   167 C    1.189   198 H    0.973
   166   7 N    3.382 --   167 C    1.239   163 C    1.205   145 Fe   0.670
   167   6 C    3.903 --   168 C    1.254   166 N    1.239   165 C    1.189
   168   6 C    3.926 --   167 C    1.254   169 C    1.253   137 C    1.197
   169   6 C    3.903 --   168 C    1.253   173 N    1.239   170 C    1.190
   170   6 C    3.959 --   171 C    1.635   169 C    1.190   199 H    0.973
   171   6 C    3.959 --   170 C    1.635   172 C    1.182   200 H    0.973
   172   6 C    3.915 --   174 C    1.319   173 N    1.206   171 C    1.182
   173   7 N    3.377 --   169 C    1.239   172 C    1.206   145 Fe   0.660
   174   6 C    3.929 --   185 C    1.325   172 C    1.319   175 C    1.032
   175   6 C    3.986 --   176 C    1.390   184 C    1.390   174 C    1.032
   176   6 C    3.986 --   177 C    1.449   175 C    1.390   201 H    0.971
                           183 C    0.106
   177   6 C    3.989 --   176 C    1.449   178 C    1.408   202 H    0.966
                           184 C    0.106
   178   6 C    3.931 --   177 C    1.408   183 C    1.407   179 S    0.754
   179  16 S    5.266 --   182 O    1.724   180 O    1.716   181 O    1.014
                           178 C    0.754
   180   8 O    2.076 --   179 S    1.716   182 O    0.139
   181   8 O    2.088 --   179 S    1.014   203 H    0.827
   182   8 O    2.083 --   179 S    1.724   180 O    0.139
   183   6 C    3.989 --   184 C    1.450   178 C    1.407   204 H    0.967
                           176 C    0.106
   184   6 C    3.986 --   183 C    1.450   175 C    1.390   205 H    0.971
                           177 C    0.106
   185   6 C    3.915 --   174 C    1.325   189 N    1.202   186 C    1.181
   186   6 C    3.958 --   187 C    1.636   185 C    1.181   206 H    0.973
   187   6 C    3.959 --   186 C    1.636   188 C    1.189   207 H    0.973
   188   6 C    3.902 --   146 C    1.250   189 N    1.242   187 C    1.189
   189   7 N    3.381 --   188 C    1.242   185 C    1.202   145 Fe   0.669
   190   1 H    1.001 --   148 C    0.973
   191   1 H    1.003 --   149 C    0.973
   192   1 H    1.003 --   154 C    0.971
   193   1 H    0.999 --   155 C    0.966
   194   1 H    0.854 --   159 O    0.827
   195   1 H    0.999 --   161 C    0.967
   196   1 H    1.003 --   162 C    0.971
   197   1 H    1.003 --   164 C    0.973
   198   1 H    1.001 --   165 C    0.973
   199   1 H    1.000 --   170 C    0.973
   200   1 H    1.003 --   171 C    0.973
   201   1 H    1.003 --   176 C    0.971
   202   1 H    0.999 --   177 C    0.966
   203   1 H    0.854 --   181 O    0.827
   204   1 H    0.999 --   183 C    0.967
   205   1 H    1.003 --   184 C    0.971
   206   1 H    1.003 --   186 C    0.973
   207   1 H    1.001 --   187 C    0.973
 ---------------------------------------------------------------------------

           -------------------------------------------------
          | TOTAL ENERGY             -420.066094070927 Eh   |
          | GRADIENT NORM               0.000793403981 Eh/α |
          | HOMO-LUMO GAP               0.092941570049 eV   |
           -------------------------------------------------

 * finished run on 2022/07/29 at 22:41:05.079
