   * xtb version 6.5.1 (b24c23e) compiled by 'conda@728c89f4b128' on 2022-07-12
          program call               : xtb Ph2OMe_C4_2.xyz --gfn 1 --opt -T 48

   ID    Z sym.   atoms
    1    6 C      1-5, 7-10, 12-20, 22-26, 28-32, 35, 36, 38-42, 44, 74-78,
                  80-83, 85-93, 95-99, 101-105, 108, 109, 111-115, 117,
                  147-150
    2    7 N      6, 11, 33, 34, 79, 84, 106, 107
    3    8 O      21, 27, 37, 43, 94, 100, 110, 116
    4    1 H      45-73, 118-146
########################################################################
[WARNING] Please study the warnings concerning your input carefully
-1- prog_main_parseArguments: Unknown option '-T' provided
########################################################################

          :  Hamiltonian                  GFN1-xTB          :
 * total energy  :  -254.0666387 Eh     change       -0.5571906E-08 Eh
 * total energy  :  -254.7115802 Eh     change       -0.6449415E+00 Eh
 * total energy  :  -254.8169402 Eh     change       -0.1053600E+00 Eh
 * total energy  :  -254.8707762 Eh     change       -0.5383599E-01 Eh
 * total energy  :  -254.8883433 Eh     change       -0.1756707E-01 Eh
 * total energy  :  -254.8997029 Eh     change       -0.1135966E-01 Eh
 * total energy  :  -254.9050130 Eh     change       -0.5310096E-02 Eh
 * total energy  :  -254.9091258 Eh     change       -0.4112815E-02 Eh
 * total energy  :  -254.9121890 Eh     change       -0.3063198E-02 Eh
 * total energy  :  -254.9153819 Eh     change       -0.3192909E-02 Eh
 * total energy  :  -254.9372227 Eh     change       -0.6766419E-05 Eh
 * total energy  :  -254.9372315 Eh     change       -0.8726203E-05 Eh
 * total energy  :  -254.9372430 Eh     change       -0.1153814E-04 Eh
 * total energy  :  -254.9372505 Eh     change       -0.7533499E-05 Eh
 * total energy  :  -254.9372576 Eh     change       -0.7077998E-05 Eh
 * total energy  :  -254.9372660 Eh     change       -0.8422836E-05 Eh
 * total energy  :  -254.9372608 Eh     change        0.5219844E-05 Eh
 * total energy  :  -254.9372712 Eh     change       -0.1038209E-04 Eh
 * total energy  :  -254.9372742 Eh     change       -0.2967470E-05 Eh
   *** GEOMETRY OPTIMIZATION CONVERGED AFTER 96 ITERATIONS ***

 final structure:
================
150
 xtb: 6.5.1 (b24c23e)
C           12.13084640160494       -0.00552503821460        0.12392181627937
C           12.74555118679634       -0.00104388328098        1.36936740882909
C           12.10768404134149       -0.04615424130830        2.64129756829815
C           13.07933212425088       -0.01102331773664        3.60145663136249
C           14.34235563442183        0.05530359791445        2.94699738838936
N           14.09040964842297        0.05955506057280        1.60372231966058
C           15.60644147178836        0.10674083495546        3.54200274841368
C           16.82250323359058        0.12856427164165        2.85850387775422
C           18.11411755592170        0.15662821101858        3.51976391186124
C           19.04376243041731        0.17551325954297        2.54190741623871
N           16.98775750977769        0.14555400771458        1.50680587072143
C           18.31753389104606        0.16707454924316        1.28639818861169
C           18.96033873448980        0.18266194555447        0.03135803070703
C           18.31941286689535        0.19520414587216       -1.22197993002003
C           18.95105197751192        0.23110919574823       -2.49363139524497
C           17.97343831484424        0.25045739230538       -3.44976472033901
C           16.71409977742690        0.22420168052462       -2.78929498387513
C           15.44957972848286        0.22924268042438       -3.38362314233046
C           15.41978184462884        0.23795079756618       -4.87749557549296
C           15.59596755523217        1.37636405040797       -5.66852847096079
O           15.78707637688641        2.64201482240009       -5.21048866375609
C           15.39736979714887        3.06875039911140       -3.91783689305916
C           15.60830976830456        1.26247513602619       -7.06464560026861
C           15.43487008921733        0.03381510749074       -7.66812954859371
C           15.23877280307827       -1.10952986598061       -6.90251467987601
C           15.23495868911468       -1.00409047505866       -5.51642353259971
O           15.07282940009629       -2.06597873903142       -4.68160932577428
C           14.85057583697326       -3.35978125441762       -5.20473657821988
C           14.23437094996971        0.15399987152528       -2.69898871353679
C           12.93679082443503        0.12266732803892       -3.35445045691118
C           12.01468873531069        0.05447407372143       -2.37286020646195
C           12.74862759366815        0.05183047828227       -1.11913549560342
N           14.08200429765974        0.11784773887070       -1.35356709318453
N           16.97501449828744        0.19228607431998       -1.44423632199056
C           15.63458931368986        0.06381506152254        5.03495360808083
C           15.33183608218653        1.15027605614169        5.86034418240968
O           15.01145889191297        2.40176793796939        5.43450847270391
C           15.42907453330356        2.92226977172910        4.18496848980498
C           15.31861120761092        0.99066068345604        7.25146405055883
C           15.61702963812390       -0.23222298816503        7.81731368731501
C           15.94239461665581       -1.32153538488440        7.01790456697281
C           15.94698811248417       -1.17158179059960        5.63568894462427
O           16.22706069016152       -2.18338645370273        4.77084026998045
C           16.60304416580725       -3.45629774125461        5.25603139815633
H           11.04683428943427       -0.05622919684874        0.13215858173915
H           11.04056413495756       -0.09833719241614        2.78799242144780
H           12.94428364068262       -0.03147210806313        4.67079167054035
H           14.80528455149729        0.08144411018087        0.88441792375730
H           18.26146138477411        0.15574185923544        4.58782998178036
H           20.11806774864617        0.19549354794109        2.63365870941099
H           20.01834460086824        0.24138951416167       -2.64601099002385
H           18.10420370400789        0.27715228532051       -4.51938599651549
H           16.10931549346272        2.74055354176222       -3.15267233368380
H           15.38927196098645        4.16112682682434       -3.94964274781332
H           14.39554888896578        2.70850197915434       -3.66141004972497
H           15.75427297036862        2.16084375843646       -7.65092339555035
H           15.44476027986443       -0.04291444463480       -8.74951020202395
H           15.09924330600610       -2.06523999846385       -7.38943326756250
H           14.73570776746574       -4.01997019127762       -4.34300732278947
H           13.93709159216104       -3.39631432139180       -5.81061311106349
H           15.70011550871228       -3.70100491729029       -5.80876592067064
H           12.78449818931793        0.14484249728801       -4.42183303485744
H           10.93991908953193        0.01058094736233       -2.45653318824087
H           16.26377169380594        0.14961133775710       -0.72198112817931
H           16.46393747655261        2.64395270413452        3.96037715177646
H           15.35899648408355        4.00970760231764        4.26945271492338
H           14.77725474258873        2.58621013289173        3.37107709355110
H           15.07247435571600        1.84849011885423        7.86432487261576
H           15.60546151551424       -0.34574377990586        8.89543894096110
H           16.17902701930888       -2.27250473819309        7.47578237976032
H           15.79860631579304       -3.91768958495111        5.84170899882894
H           16.80218320699303       -4.07001909935511        4.37550468453628
H           17.51101893043970       -3.39996304049953        5.86857602139619
C           32.39362273760943       -0.01738363678828       -0.12277056712228
C           31.77893512763874       -0.12335135800311       -1.36371893628058
C           32.41680917047343       -0.28205181934752       -2.62651092534681
C           31.44524796289440       -0.33139077892954       -3.58613980571129
C           30.18226939481626       -0.20581166907164       -2.94034853770434
N           30.43414924912162       -0.08248213434103       -1.60272571445326
C           28.91822976700563       -0.20601724682283       -3.53768798770781
C           27.70223160314455       -0.12269536187881       -2.85879755841897
C           26.41058499292611       -0.15194246415591       -3.51993755287330
C           25.48103089797419       -0.04681741173689       -2.54747825265438
N           27.53710268078826        0.01327131043803       -1.51383729614512
C           26.20735318063201        0.05471067903147       -1.29609946223675
C           25.56457002907678        0.18043389713347       -0.04726905568175
C           26.20541093817102        0.30264658759838        1.20019266463520
C           25.57371018205946        0.44939689778498        2.46381849306033
C           26.55128660189572        0.55333625469147        3.41452303966112
C           27.81066003779853        0.47006879915456        2.75886656862734
C           29.07519366357226        0.52837928011696        3.35032910304877
C           29.10509482008370        0.66871677504621        4.83760645739223
C           28.92732656892011        1.87205245237960        5.52545858076822
O           28.73444026886872        3.09224322222808        4.95789469494872
C           29.12334003616047        3.40408629717917        3.63260429920066
C           28.91528710159686        1.88142025656381        6.92618891913412
C           29.09061372145227        0.71088312022357        7.63539547685615
C           29.28831109462735       -0.49510847602216        6.97330404922173
C           29.29179387124092       -0.51202398287910        5.58331712884260
O           29.45533190192512       -1.64300812303883        4.84512334256096
C           29.67953141815639       -2.88546275430751        5.47995186494462
C           30.29037706915298        0.39342103915351        2.67486353687985
C           31.58802158675621        0.42052439541426        3.33037854713238
C           32.51001290529401        0.26505341446767        2.35868184351823
C           31.77595189595385        0.15091295939317        1.11023181710480
N           30.44260975335144        0.23785171469767        1.33795993879578
N           27.54979990976380        0.31992121337920        1.42182241706947
C           28.88992241537112       -0.38143859538740       -5.02090830655376
C           29.19484931827007        0.62656577213927       -5.93974184090065
O           29.51772226887206        1.91037172832503       -5.62696824850012
C           29.10106783372857        2.54085931721987       -4.42880950246555
C           29.20766861516633        0.34371501891325       -7.31112594727534
C           28.90669054902029       -0.92407352251549       -7.76588828828980
C           28.57912652092747       -1.93720512924972       -6.87269676389898
C           28.57494891266384       -1.66478446461140       -5.50932665233193
O           28.29296160001901       -2.59503828740576       -4.55787366543882
C           27.91408680236527       -3.90525598815316       -4.92780797656503
H           33.47759791588099       -0.06943567353459       -0.12642330742057
H           33.48387812414945       -0.34822143724327       -2.76784189639290
H           31.58035362837692       -0.44697366084016       -4.64939860348889
H           29.71922536492819        0.00383701860357       -0.88833122463390
H           26.26314238890906       -0.24637445861525       -4.58380916099034
H           24.40672557801744       -0.03439132632717       -2.64056520659907
H           24.50641139878972        0.47221386589338        2.61477299557615
H           26.42046384599040        0.67373952238230        4.47767288338395
H           28.41177902480412        3.00879144526310        2.89947483028848
H           29.12983599778361        4.49503576827000        3.56812245957777
H           30.12565627022216        3.02410673548144        3.40861780090644
H           28.76807414183751        2.82767548529464        7.43118805204394
H           29.08097353164581        0.72958788228046        8.71933665573269
H           29.42932925681961       -1.40406375086726        7.54238389702482
H           29.79507355341757       -3.61873915079314        4.67958969662110
H           30.59324040518157       -2.86730707333402        6.08631951249656
H           28.83063818667213       -3.17338448715701        6.11199799097456
H           31.74042714922468        0.53766618474053        4.39152892165260
H           33.58478481133633        0.22861734359155        2.44583364540287
H           28.26111010352275        0.21431674045566        0.70611878940700
H           28.06588736374406        2.28504477437662       -4.18019052117620
H           29.17254106602817        3.61631472299737       -4.60999053506134
H           29.75260603080112        2.27783613069278       -3.58824182805799
H           29.45554849310787        1.14305729805969       -7.99790185055551
H           28.91799153236121       -1.13317202605988       -8.82961994451421
H           28.34050085292125       -2.92467702240299       -7.24411223705577
H           28.71730056565354       -4.41867763782512       -5.47026904839616
H           27.71399791516425       -4.43775610314134       -3.99611608440063
H           27.00598240544419       -3.90169062525896       -5.54273568066053
C           21.58786929535095        0.19400762194751        0.00005200356951
C           20.36562194899420        0.19040081868936        0.01546797979591
C           22.93704869528021        0.19372398695856       -0.01532721524532
C           24.15926549698255        0.18781869105801       -0.03196168671903

          :  Hamiltonian                  GFN1-xTB          :
         :: total energy            -254.937274170660 Eh    ::
         :: gradient norm              0.000342238074 Eh/a0 ::
         :: HOMO-LUMO gap              0.992569737288 eV    ::
         :: SCC energy              -258.553811566351 Eh    ::
         :: repulsion energy           3.746336758110 Eh    ::

    * Orbital Energies and Occupations

         #    Occupation            Energy/Eh            Energy/eV
      -------------------------------------------------------------
         1        2.0000           -0.8077504             -21.9800
       ...           ...                  ...                  ...
       213        2.0000           -0.4127362             -11.2311
       214        2.0000           -0.4112370             -11.1903
       215        2.0000           -0.4110564             -11.1854
       216        2.0000           -0.4102684             -11.1640
       217        2.0000           -0.4102630             -11.1638
       218        2.0000           -0.4102259             -11.1628
       219        2.0000           -0.4102113             -11.1624
       220        2.0000           -0.4099027             -11.1540
       221        2.0000           -0.4098410             -11.1523
       222        2.0000           -0.3932375             -10.7005
       223        2.0000           -0.3928339             -10.6896
       224        2.0000           -0.3830981             -10.4246
       225        2.0000           -0.3720608             -10.1243 (HOMO)
       226                         -0.3355845              -9.1317 (LUMO)
       227                         -0.3242696              -8.8238
       228                         -0.3242177              -8.8224
       229                         -0.3221894              -8.7672
       230                         -0.2927624              -7.9665
       231                         -0.2847991              -7.7498
       232                         -0.2562489              -6.9729
       233                         -0.2560840              -6.9684
       234                         -0.2560784              -6.9682
       235                         -0.2559433              -6.9646
       236                         -0.2535882              -6.9005
       ...                                ...                  ...
       484                          1.5217727              41.4095
      -------------------------------------------------------------
                  HL-Gap            0.0364763 Eh            0.9926 eV

Wiberg/Mayer (AO) data.
largest (>0.10) Wiberg bond orders for each atom

     #   Z sym  total        # sym  WBO       # sym  WBO       # sym  WBO
 ---------------------------------------------------------------------------
     1   6 C    3.924 --    32 C    1.364     2 C    1.347    45 H    0.971
     2   6 C    3.903 --     1 C    1.347     3 C    1.229     6 N    1.170
     3   6 C    3.954 --     4 C    1.597     2 C    1.229    46 H    0.977
     4   6 C    3.960 --     3 C    1.597     5 C    1.233    47 H    0.975
     5   6 C    3.896 --     7 C    1.305     4 C    1.233     6 N    1.171
     6   7 N    3.467 --     5 C    1.171     2 C    1.170    48 H    0.874
     7   6 C    3.939 --     8 C    1.340     5 C    1.305    35 C    1.007
     8   6 C    3.915 --     7 C    1.340    11 N    1.281     9 C    1.125
     9   6 C    3.966 --    10 C    1.709     8 C    1.125    49 H    0.975
    10   6 C    3.964 --     9 C    1.709    12 C    1.129    50 H    0.975
    11   7 N    3.022 --    12 C    1.347     8 C    1.281
    12   6 C    3.911 --    11 N    1.347    13 C    1.253    10 C    1.129
    13   6 C    3.937 --    12 C    1.253    14 C    1.252   148 C    1.191
    14   6 C    3.886 --    13 C    1.252    15 C    1.249    34 N    1.190
    15   6 C    3.959 --    16 C    1.584    14 C    1.249    51 H    0.975
    16   6 C    3.955 --    15 C    1.584    17 C    1.239    52 H    0.975
    17   6 C    3.898 --    18 C    1.313    16 C    1.239    34 N    1.160
    18   6 C    3.924 --    29 C    1.326    17 C    1.313    19 C    1.005
    19   6 C    3.974 --    20 C    1.370    26 C    1.321    18 C    1.005
    20   6 C    3.904 --    19 C    1.370    23 C    1.339    21 O    1.030
    21   8 O    2.136 --    20 C    1.030    22 C    0.926
    22   6 C    3.902 --    54 H    0.983    55 H    0.979    53 H    0.978
                            21 O    0.926
    23   6 C    3.985 --    24 C    1.473    20 C    1.339    56 H    0.971
    24   6 C    3.994 --    23 C    1.473    25 C    1.418    57 H    0.974
    25   6 C    3.981 --    24 C    1.418    26 C    1.384    58 H    0.969
    26   6 C    3.903 --    25 C    1.384    19 C    1.321    27 O    1.030
    27   8 O    2.143 --    26 C    1.030    28 C    0.935
    28   6 C    3.908 --    59 H    0.983    60 H    0.980    61 H    0.980
                            27 O    0.935
    29   6 C    3.929 --    18 C    1.326    33 N    1.312    30 C    1.118
    30   6 C    3.967 --    31 C    1.722    29 C    1.118    62 H    0.975
    31   6 C    3.966 --    30 C    1.722    32 C    1.117    63 H    0.976
    32   6 C    3.931 --     1 C    1.364    33 N    1.303    31 C    1.117
    33   7 N    3.011 --    29 C    1.312    32 C    1.303
    34   7 N    3.472 --    14 C    1.190    17 C    1.160    64 H    0.874
    35   6 C    3.975 --    36 C    1.369    42 C    1.321     7 C    1.007
    36   6 C    3.904 --    35 C    1.369    39 C    1.342    37 O    1.027
    37   8 O    2.132 --    36 C    1.027    38 C    0.926
    38   6 C    3.902 --    66 H    0.983    65 H    0.980    67 H    0.978
                            37 O    0.926
    39   6 C    3.986 --    40 C    1.471    36 C    1.342    68 H    0.971
    40   6 C    3.994 --    39 C    1.471    41 C    1.419    69 H    0.974
    41   6 C    3.982 --    40 C    1.419    42 C    1.383    70 H    0.969
    42   6 C    3.904 --    41 C    1.383    35 C    1.321    43 O    1.030
    43   8 O    2.143 --    42 C    1.030    44 C    0.935
    44   6 C    3.907 --    72 H    0.983    73 H    0.980    71 H    0.980
                            43 O    0.935
    45   1 H    1.002 --     1 C    0.971
    46   1 H    0.998 --     3 C    0.977
    47   1 H    1.001 --     4 C    0.975
    48   1 H    0.987 --     6 N    0.874
    49   1 H    1.003 --     9 C    0.975
    50   1 H    1.003 --    10 C    0.975
    51   1 H    1.002 --    15 C    0.975
    52   1 H    1.001 --    16 C    0.975
    53   1 H    1.018 --    22 C    0.978
    54   1 H    1.015 --    22 C    0.983
    55   1 H    1.014 --    22 C    0.979
    56   1 H    1.001 --    23 C    0.971
    57   1 H    1.003 --    24 C    0.974
    58   1 H    0.999 --    25 C    0.969
    59   1 H    1.016 --    28 C    0.983
    60   1 H    1.009 --    28 C    0.980
    61   1 H    1.009 --    28 C    0.980
    62   1 H    1.003 --    30 C    0.975
    63   1 H    0.999 --    31 C    0.976
    64   1 H    0.988 --    34 N    0.874
    65   1 H    1.013 --    38 C    0.980
    66   1 H    1.015 --    38 C    0.983
    67   1 H    1.019 --    38 C    0.978
    68   1 H    1.001 --    39 C    0.971
    69   1 H    1.003 --    40 C    0.974
    70   1 H    1.000 --    41 C    0.969
    71   1 H    1.009 --    44 C    0.980
    72   1 H    1.016 --    44 C    0.983
    73   1 H    1.009 --    44 C    0.980
    74   6 C    3.924 --   105 C    1.364    75 C    1.347   118 H    0.971
    75   6 C    3.903 --    74 C    1.347    76 C    1.229    79 N    1.170
    76   6 C    3.954 --    77 C    1.597    75 C    1.229   119 H    0.977
    77   6 C    3.960 --    76 C    1.597    78 C    1.233   120 H    0.975
    78   6 C    3.896 --    80 C    1.305    77 C    1.233    79 N    1.171
    79   7 N    3.467 --    78 C    1.171    75 C    1.170   121 H    0.874
    80   6 C    3.939 --    81 C    1.340    78 C    1.305   108 C    1.007
    81   6 C    3.915 --    80 C    1.340    84 N    1.281    82 C    1.125
    82   6 C    3.966 --    83 C    1.709    81 C    1.125   122 H    0.975
    83   6 C    3.964 --    82 C    1.709    85 C    1.129   123 H    0.975
    84   7 N    3.022 --    85 C    1.347    81 C    1.281
    85   6 C    3.911 --    84 N    1.347    86 C    1.253    83 C    1.129
    86   6 C    3.937 --    85 C    1.253    87 C    1.252   150 C    1.191
    87   6 C    3.886 --    86 C    1.252    88 C    1.249   107 N    1.190
    88   6 C    3.959 --    89 C    1.584    87 C    1.249   124 H    0.975
    89   6 C    3.955 --    88 C    1.584    90 C    1.239   125 H    0.975
    90   6 C    3.898 --    91 C    1.313    89 C    1.239   107 N    1.160
    91   6 C    3.924 --   102 C    1.326    90 C    1.313    92 C    1.005
    92   6 C    3.974 --    93 C    1.370    99 C    1.320    91 C    1.005
    93   6 C    3.904 --    92 C    1.370    96 C    1.339    94 O    1.030
    94   8 O    2.136 --    93 C    1.030    95 C    0.926
    95   6 C    3.902 --   127 H    0.983   128 H    0.979   126 H    0.978
                            94 O    0.926
    96   6 C    3.985 --    97 C    1.473    93 C    1.339   129 H    0.971
    97   6 C    3.994 --    96 C    1.473    98 C    1.418   130 H    0.974
    98   6 C    3.981 --    97 C    1.418    99 C    1.384   131 H    0.969
    99   6 C    3.903 --    98 C    1.384    92 C    1.320   100 O    1.030
   100   8 O    2.143 --    99 C    1.030   101 C    0.935
   101   6 C    3.908 --   132 H    0.983   133 H    0.980   134 H    0.980
                           100 O    0.935
   102   6 C    3.929 --    91 C    1.326   106 N    1.312   103 C    1.118
   103   6 C    3.967 --   104 C    1.722   102 C    1.118   135 H    0.975
   104   6 C    3.966 --   103 C    1.722   105 C    1.117   136 H    0.976
   105   6 C    3.931 --    74 C    1.364   106 N    1.303   104 C    1.117
   106   7 N    3.011 --   102 C    1.312   105 C    1.303
   107   7 N    3.472 --    87 C    1.190    90 C    1.160   137 H    0.873
   108   6 C    3.975 --   109 C    1.369   115 C    1.321    80 C    1.007
   109   6 C    3.904 --   108 C    1.369   112 C    1.342   110 O    1.027
   110   8 O    2.132 --   109 C    1.027   111 C    0.926
   111   6 C    3.902 --   139 H    0.983   138 H    0.980   140 H    0.978
                           110 O    0.926
   112   6 C    3.986 --   113 C    1.471   109 C    1.342   141 H    0.971
   113   6 C    3.994 --   112 C    1.471   114 C    1.419   142 H    0.974
   114   6 C    3.982 --   113 C    1.419   115 C    1.383   143 H    0.969
   115   6 C    3.904 --   114 C    1.383   108 C    1.321   116 O    1.030
   116   8 O    2.143 --   115 C    1.030   117 C    0.935
   117   6 C    3.907 --   145 H    0.983   146 H    0.980   144 H    0.980
                           116 O    0.935
   118   1 H    1.002 --    74 C    0.971
   119   1 H    0.998 --    76 C    0.977
   120   1 H    1.001 --    77 C    0.975
   121   1 H    0.987 --    79 N    0.874
   122   1 H    1.003 --    82 C    0.975
   123   1 H    1.003 --    83 C    0.975
   124   1 H    1.002 --    88 C    0.975
   125   1 H    1.001 --    89 C    0.975
   126   1 H    1.018 --    95 C    0.978
   127   1 H    1.015 --    95 C    0.983
   128   1 H    1.014 --    95 C    0.979
   129   1 H    1.001 --    96 C    0.971
   130   1 H    1.003 --    97 C    0.974
   131   1 H    0.999 --    98 C    0.969
   132   1 H    1.016 --   101 C    0.983
   133   1 H    1.009 --   101 C    0.980
   134   1 H    1.009 --   101 C    0.980
   135   1 H    1.003 --   103 C    0.975
   136   1 H    0.999 --   104 C    0.976
   137   1 H    0.988 --   107 N    0.873
   138   1 H    1.013 --   111 C    0.980
   139   1 H    1.015 --   111 C    0.983
   140   1 H    1.019 --   111 C    0.978
   141   1 H    1.001 --   112 C    0.971
   142   1 H    1.003 --   113 C    0.974
   143   1 H    1.000 --   114 C    0.969
   144   1 H    1.009 --   117 C    0.980
   145   1 H    1.016 --   117 C    0.983
   146   1 H    1.009 --   117 C    0.980
   147   6 C    3.932 --   148 C    2.473   149 C    1.310
   148   6 C    3.925 --   147 C    2.473    13 C    1.191   150 C    0.199
   149   6 C    3.932 --   150 C    2.473   147 C    1.310
   150   6 C    3.925 --   149 C    2.473    86 C    1.191   148 C    0.199
 ---------------------------------------------------------------------------

           -------------------------------------------------
          | TOTAL ENERGY             -254.937274170660 Eh   |
          | GRADIENT NORM               0.000342238074 Eh/α |
          | HOMO-LUMO GAP               0.992569737288 eV   |
           -------------------------------------------------

 * finished run on 2022/07/30 at 03:24:57.329
