   * xtb version 6.5.1 (b24c23e) compiled by 'conda@728c89f4b128' on 2022-07-12
          program call               : xtb Co_PhOH_C4_3.xyz --gfn 1 --opt -T 48

   ID    Z sym.   atoms
    1   27 Co     1, 59, 125
    2    6 C      2-6, 8-12, 14-18, 20-25, 27-31, 33-38, 60-64, 66-70, 72-76,
                  78-83, 85-89, 91-96, 117-124, 126-130, 132-136, 138-142,
                  144-149, 151-155, 157-162
    3    7 N      7, 19, 26, 39, 65, 77, 84, 97, 131, 143, 150, 163
    4    8 O      13, 32, 71, 90, 137, 156
    5    1 H      40-58, 98-116, 164-181

          :  Hamiltonian                  GFN1-xTB          :
 * total energy  :  -326.1102409 Eh     change       -0.1506294E-08 Eh
 * total energy  :  -326.3195877 Eh     change       -0.2093468E+00 Eh
 * total energy  :  -326.3933726 Eh     change       -0.7378490E-01 Eh
 * total energy  :  -326.4381376 Eh     change       -0.4476506E-01 Eh
 * total energy  :  -326.4605719 Eh     change       -0.2243427E-01 Eh
 * total energy  :  -326.4792705 Eh     change       -0.1869861E-01 Eh
 * total energy  :  -326.4957203 Eh     change       -0.1644976E-01 Eh
 * total energy  :  -326.5156839 Eh     change       -0.1996361E-01 Eh
 * total energy  :  -326.5412104 Eh     change       -0.2552655E-01 Eh
 * total energy  :  -326.5673538 Eh     change       -0.2614337E-01 Eh
 * total energy  :  -326.9044235 Eh     change       -0.1518724E-04 Eh
 * total energy  :  -326.9044346 Eh     change       -0.1117848E-04 Eh
 * total energy  :  -326.9044430 Eh     change       -0.8356548E-05 Eh
 * total energy  :  -326.9044497 Eh     change       -0.6727279E-05 Eh
 * total energy  :  -326.9044579 Eh     change       -0.8193204E-05 Eh
 * total energy  :  -326.9044677 Eh     change       -0.9816304E-05 Eh
 * total energy  :  -326.9044764 Eh     change       -0.8625379E-05 Eh
 * total energy  :  -326.9044826 Eh     change       -0.6225226E-05 Eh
 * total energy  :  -326.9044865 Eh     change       -0.3914934E-05 Eh
   *** GEOMETRY OPTIMIZATION CONVERGED AFTER 88 ITERATIONS ***

 final structure:
================
181
 xtb: 6.5.1 (b24c23e)
Co          31.19833813845953       -0.02284014231325       -0.07131831163488
C           27.82934090853133       -0.06142156700616       -0.30494729231563
C           28.50826641979571       -1.25197797029139       -0.44487206411120
C           27.85930822041063       -2.50945473476220       -0.65914111313650
C           28.80842823437966       -3.46386693548080       -0.51914524643647
C           30.04125916775409       -2.78702899958053       -0.24045180902325
N           29.85334227780778       -1.42808484332197       -0.23432541611825
C           31.22042241608403       -3.43249094255164        0.10592457358473
C           31.22679229068111       -4.91159699041654        0.22025059117464
C           31.01118101256615       -5.71299039630640       -0.90036917606641
C           31.01862652333152       -7.09542656536279       -0.79290041837770
C           31.23832436078047       -7.69108055924970        0.44681743123876
O           31.25069818794877       -9.04104482519874        0.59726995679236
C           31.45434251953558       -6.90074215070473        1.57411696052660
C           31.45098925250262       -5.52203847479539        1.45605636448071
C           32.39819114508594       -2.73806275547839        0.33362095111213
C           33.65169265964907       -3.37363194766271        0.61068865235891
C           34.60152485678586       -2.41085109340135        0.54639572680108
N           32.57673633013103       -1.38549959601332        0.14680764869374
C           33.92664242255724       -1.18982544494175        0.23840011367285
C           34.59361473866826        0.00921437732012       -0.01620654359469
C           33.90936762696782        1.20350085265648       -0.24408213575727
C           34.56569365010439        2.44533838975552       -0.50479526621188
C           33.60339485667621        3.39853703940636       -0.51172061474190
C           32.36184662603880        2.73474180725837       -0.25029298344844
N           32.55666693087718        1.37689135195248       -0.14145156333739
C           31.15564790582486        3.39354308967847       -0.06289141544336
C           31.13780976292584        4.87436366489136       -0.06639104639375
C           31.89359546368603        5.59920443144979        0.85845739156446
C           31.88231091453472        6.98274018843847        0.85384962432283
C           31.11505155152712        7.66483108733670       -0.08874852554169
O           31.13102379515072        9.02263720335375       -0.06913046210452
C           30.35898167508088        6.95578704376696       -1.01935013484813
C           30.37092810192030        5.56990316946614       -1.00217746755331
C           29.96226004411891        2.70226399056650        0.09585965286403
C           28.69099894260288        3.33291812787666        0.30084985774500
C           27.75238885729185        2.36229960189690        0.20379985767646
C           28.45261138244947        1.13759942567577       -0.03504400685081
N           29.80883658412563        1.34579975809516       -0.04351997613101
H           26.74862704802587       -0.07315551182834       -0.38397827192916
H           26.80658125574962       -2.62671886391747       -0.86187667209927
H           28.69337691216253       -4.53388086127713       -0.58000204376724
H           30.85320854871443       -5.25046264873253       -1.86829443481371
H           30.85615089027764       -7.71495524247367       -1.66840978328974
H           31.08583147274312       -9.48995382550013       -0.24276558105684
H           31.62164329497361       -7.37773245812838        2.53192312211506
H           31.60883642653972       -4.90617830877147        2.33434222231719
H           33.77956233071283       -4.42683578247000        0.80039508266550
H           35.66703236468835       -2.50339349495599        0.68233301546984
H           35.62770532330639        2.55674705078684       -0.65339841765506
H           33.71272404867281        4.45713443438111       -0.68226553058549
H           32.48177671332583        5.06896929818210        1.59906425634679
H           32.46202064898969        7.54718390580485        1.57369916792686
H           30.56582844726693        9.39100917853335       -0.76142001547661
H           29.76709117901786        7.49071441901603       -1.75434760003141
H           29.79396753877607        5.01943305861358       -1.73697446247279
H           28.54893552702684        4.38440839039837        0.49103687414870
H           26.68037014484501        2.44697021832345        0.28565833548386
Co          57.96300780337923       -0.00793429671175       -0.02343395759436
C           61.33207578386043        0.01974914570146       -0.17766322005385
C           60.65230884760785        1.17415256088220       -0.50171738861578
C           61.29596176905119        2.39233799833820       -0.88870584394796
C           60.33817366000490        3.34883820436563       -0.90361081686875
C           59.10728215760826        2.71086597135141       -0.53812747237024
N           59.30349334329691        1.36868071265327       -0.33760294276479
C           57.92837740434054        3.39316515721484       -0.26338021186464
C           57.91652759123421        4.87333474526569       -0.35451061197967
C           58.11004103283747        5.50835979906530       -1.58098781204749
C           58.09795966047627        6.89186605752818       -1.67053886472032
C           57.89715122355933        7.65685831327705       -0.52396748541708
O           57.88217624517931        9.01404348274830       -0.56574578247479
C           57.70442681542436        7.03364167976180        0.70760301374027
C           57.71135578257014        5.65215204511555        0.78624660588887
C           56.76151565708090        2.73133496754832        0.08572107016478
C           55.51288076353730        3.38851448032605        0.33198005009194
C           54.56816081547678        2.42051071131951        0.40430750223965
N           56.58521896867632        1.36549603284512        0.05571103839714
C           55.24082971056373        1.17652014551400        0.20228640122566
C           54.57243961608444       -0.04034669740872        0.03600925868487
C           55.26143489195540       -1.24629285515773       -0.12190433947742
C           54.61313004827709       -2.50552725047738       -0.30711654229130
C           55.57690059542636       -3.45422287443992       -0.22026921722354
C           56.81026643020147       -2.76927062930732        0.02442954005526
N           56.61036604508276       -1.40738924636326        0.02034460104664
C           58.00857656516614       -3.40211031160560        0.32059747135319
C           58.02861714705692       -4.87465445020481        0.46736969308765
C           57.22374185191254       -5.50614909761253        1.41929394367844
C           57.24213199328877       -6.88191058538298        1.56231805523746
C           58.06550660660575       -7.65162087387276        0.74223749147041
O           58.05611810614876       -8.99905895300201        0.90660800461415
C           58.86917028344318       -7.03673783760917       -0.21520642486446
C           58.85050808933716       -5.65704508025818       -0.34524898995234
C           59.19384031178134       -2.69083121816003        0.46459680097230
C           60.45598684141323       -3.28562009145113        0.79407053549933
C           61.39594459227451       -2.32427029739062        0.63224337651896
C           60.70446235577674       -1.13953678236162        0.22556954531244
N           59.35030122465493       -1.35741026422535        0.18549771425348
H           62.41463906424619        0.02904242422960       -0.22635850326783
H           62.35041595704320        2.48789196732786       -1.09374816396616
H           60.44703527528353        4.39924136477832       -1.11961261214426
H           58.25389925657393        4.91340108417383       -2.47599161103646
H           58.24262036140404        7.38123334586056       -2.62773037853545
H           58.02737140322933        9.34050612948636       -1.46389780421594
H           57.55239789559609        7.64131274324851        1.59103042544092
H           57.57302663046470        5.16701039303856        1.74593046520373
H           55.38271282182394        4.45550451552032        0.41025964311825
H           53.50667970191371        2.52407442680334        0.56197969442056
H           53.55505261956225       -2.63109337052290       -0.47167029457951
H           55.47317022438041       -4.52289542680165       -0.31457775035725
H           56.59267058836492       -4.90691956783239        2.06605210975612
H           56.62557494138710       -7.37339089956904        2.30477853381157
H           58.66132324648373       -9.43383247131255        0.29088738025949
H           59.50404467814615       -7.63992394516266       -0.85534618322292
H           59.46565324594666       -5.18121205795461       -1.10087605443593
H           60.59232611667178       -4.30858425789096        1.10547156950498
H           62.46348643921240       -2.39233407905134        0.76921422274571
C           37.22160326032003        0.01782338943576       -0.02920487715783
C           36.00002367157412        0.01755977999133       -0.02327049405227
C           38.57246976145094        0.02109452047999       -0.03566785728842
C           39.79434766039765        0.02344882948793       -0.04082476789097
C           50.60047525597179       -0.05272958574617        0.01850513815042
C           49.37711158376235       -0.04358342176431        0.00551736726758
C           51.94767822126891       -0.05353323107376        0.02722421979364
C           53.17093774566206       -0.05087830544943        0.03349664878681
Co          44.58781622428319       -0.01194789168246       -0.01234163931760
C           41.19892493104013        0.02369485304123       -0.04724856473941
C           41.88413928294472        0.90612101522600        0.79227302623368
C           41.24429879770737        1.79130116974738        1.71174797169988
C           42.20551009910326        2.62626236994473        2.17932034635946
C           43.42622704867685        2.25363783016286        1.53197387108483
N           43.22712693181440        1.15336176181725        0.73324210959052
C           44.60529493425183        2.98816919351553        1.58850723256757
C           44.61322306284486        4.28065975448108        2.30670291740492
C           45.51009158380764        4.50626045705307        3.35503982740193
C           45.51585081774054        5.70984380820957        4.03622090902686
C           44.62409717345243        6.71669204817004        3.66931219563597
O           44.65996318859734        7.88633351396992        4.35595035891603
C           43.72760688591194        6.50838391848928        2.62313171616769
C           43.72227587481306        5.29550845865475        1.95293911479294
C           45.77637554078151        2.53497366041112        0.99599721483653
C           47.00882925891828        3.26280555403602        0.97365717725758
C           47.96101689090685        2.40514528103974        0.53038656677584
N           45.95940240338876        1.27089423057424        0.48344218341701
C           47.30379372250506        1.16472716787689        0.26877972191080
C           47.97703506197990       -0.02950173329892       -0.01187186736899
C           47.28451519391642       -1.20607568452105       -0.31866571907113
C           47.91767476642859       -2.45851299331944       -0.58057005111716
C           46.95952777495538       -3.28131694411243       -1.07553859005253
C           45.74697071171508       -2.52250351454665       -1.12058127223688
N           45.94734003492496       -1.27046149428000       -0.58904494058860
C           44.57698813215051       -2.93998398951132       -1.74280095441165
C           44.57844144469274       -4.21537055194488       -2.49091523699795
C           43.67266544150557       -5.22946933369155       -2.17506105763678
C           43.67680574082357       -6.42602877361349       -2.87412998007579
C           44.58805145010987       -6.61884417856124       -3.91033078433771
O           44.62349177124380       -7.77243631380865       -4.62387109444462
C           45.49611072375279       -5.61319739389774       -4.23828358458498
C           45.49086458217192       -4.42607425273301       -3.52889786440558
C           43.40729997440204       -2.19290802606260       -1.67511037413261
C           42.18018863815857       -2.54827458380893       -2.32110180427881
C           41.22489400698667       -1.72292739375862       -1.82638799122135
C           41.87544034777607       -0.85529915475232       -0.89736404658685
N           43.22002841652193       -1.09891651583626       -0.86289240899683
H           40.19377122280297        1.76927956417914        1.95311245132290
H           42.10595615166576        3.42317719922736        2.89817949816458
H           46.19314156317163        3.71821558602979        3.65151820430706
H           46.20289694974323        5.88330728253975        4.85515913304310
H           44.00052148036687        8.51113280882378        4.02517643601886
H           43.03931444726026        7.29641045832406        2.33720108981439
H           43.03409128916688        5.14072275281904        1.12955844038284
H           47.12211841016877        4.29433284023623        1.26483240093744
H           49.01635948051768        2.57956892236950        0.39555968555105
H           48.96267443565230       -2.66400179968063       -0.41283609206291
H           47.05571297085606       -4.31009874288422       -1.38236422848584
H           42.97346814029134       -5.08816022263369       -1.35851801440715
H           42.97642474193823       -7.21365470655505       -2.61796784905682
H           43.95365229657793       -8.39850696857263       -4.31742504433732
H           46.19580312347033       -5.77488981542125       -5.04887620467830
H           46.18776925171699       -3.63889652732888       -3.79388427393813
H           42.07198101276071       -3.33085277825101       -3.05427143284416
H           40.17191803313860       -1.69535961572848       -2.05618331782689

          :  Hamiltonian                  GFN1-xTB          :
         :: total energy            -326.904486492528 Eh    ::
         :: gradient norm              0.000495622949 Eh/a0 ::
         :: HOMO-LUMO gap              0.009628008924 eV    ::
         :: SCC energy              -331.933899601436 Eh    ::
         :: repulsion energy           5.192203710975 Eh    ::

    * Orbital Energies and Occupations

         #    Occupation            Energy/Eh            Energy/eV
      -------------------------------------------------------------
         1        2.0000           -0.8082859             -21.9946
       ...           ...                  ...                  ...
       286        2.0000           -0.3933698             -10.7041
       287        2.0000           -0.3931619             -10.6985
       288        2.0000           -0.3930406             -10.6952
       289        1.9999           -0.3902428             -10.6190
       290        1.9998           -0.3900794             -10.6146
       291        1.9998           -0.3899218             -10.6103
       292        1.9998           -0.3898657             -10.6088
       293        1.9998           -0.3897547             -10.6058
       294        1.9998           -0.3896696             -10.6035
       295        1.9983           -0.3878464             -10.5538
       296        1.8012           -0.3831667             -10.4265
       297        1.1471           -0.3812381             -10.3740
       298        1.1116           -0.3811628             -10.3720 (HOMO)
       299        0.9429           -0.3808090             -10.3623 (LUMO)
       300                         -0.3415035              -9.2928
       301                         -0.3307514              -9.0002
       302                         -0.3284918              -8.9387
       303                         -0.3263208              -8.8796
       304                         -0.3252266              -8.8499
       305                         -0.3246864              -8.8352
       306                         -0.3033105              -8.2535
       307                         -0.2929732              -7.9722
       308                         -0.2919974              -7.9457
       309                         -0.2916781              -7.9370
       ...                                ...                  ...
       627                          1.5144891              41.2113
      -------------------------------------------------------------
                  HL-Gap            0.0003538 Eh            0.0096 eV

Wiberg/Mayer (AO) data.
largest (>0.10) Wiberg bond orders for each atom

     #   Z sym  total        # sym  WBO       # sym  WBO       # sym  WBO
 ---------------------------------------------------------------------------
     1  27 Co   3.023 --    39 N    0.638     7 N    0.637    19 N    0.635
                            26 N    0.633
     2   6 C    3.932 --     3 C    1.367    38 C    1.363    40 H    0.970
     3   6 C    3.925 --     2 C    1.367     7 N    1.200     4 C    1.174
     4   6 C    3.960 --     5 C    1.650     3 C    1.174    41 H    0.975
     5   6 C    3.963 --     4 C    1.650     6 C    1.177    42 H    0.973
     6   6 C    3.919 --     8 C    1.321     7 N    1.213     5 C    1.177
     7   7 N    3.348 --     6 C    1.213     3 C    1.200     1 Co   0.637
     8   6 C    3.936 --    16 C    1.336     6 C    1.321     9 C    1.022
     9   6 C    3.988 --    10 C    1.396    15 C    1.386     8 C    1.022
    10   6 C    3.988 --    11 C    1.451     9 C    1.396    43 H    0.973
                            14 C    0.106
    11   6 C    3.988 --    10 C    1.451    12 C    1.373    44 H    0.970
                            15 C    0.103
    12   6 C    3.902 --    11 C    1.373    14 C    1.365    13 O    1.039
    13   8 O    2.043 --    12 C    1.039    45 H    0.865
    14   6 C    3.990 --    15 C    1.465    12 C    1.365    46 H    0.971
                            10 C    0.106
    15   6 C    3.988 --    14 C    1.465     9 C    1.386    47 H    0.973
                            11 C    0.103
    16   6 C    3.916 --     8 C    1.336    19 N    1.193    17 C    1.180
    17   6 C    3.959 --    18 C    1.640    16 C    1.180    48 H    0.973
    18   6 C    3.962 --    17 C    1.640    20 C    1.188    49 H    0.973
    19   7 N    3.350 --    20 C    1.229    16 C    1.193     1 Co   0.635
    20   6 C    3.907 --    21 C    1.266    19 N    1.229    18 C    1.188
    21   6 C    3.937 --    22 C    1.267    20 C    1.266   118 C    1.177
    22   6 C    3.908 --    21 C    1.267    26 N    1.226    23 C    1.189
    23   6 C    3.961 --    24 C    1.637    22 C    1.189    50 H    0.973
    24   6 C    3.960 --    23 C    1.637    25 C    1.182    51 H    0.973
    25   6 C    3.917 --    27 C    1.329    26 N    1.197    24 C    1.182
    26   7 N    3.350 --    22 C    1.226    25 C    1.197     1 Co   0.633
    27   6 C    3.936 --    25 C    1.329    35 C    1.320    28 C    1.031
    28   6 C    3.988 --    34 C    1.391    29 C    1.383    27 C    1.031
    29   6 C    3.986 --    30 C    1.467    28 C    1.383    52 H    0.973
                            33 C    0.102
    30   6 C    3.990 --    29 C    1.467    31 C    1.364    53 H    0.971
                            34 C    0.105
    31   6 C    3.900 --    33 C    1.371    30 C    1.364    32 O    1.040
    32   8 O    2.043 --    31 C    1.040    54 H    0.865
    33   6 C    3.988 --    34 C    1.453    31 C    1.371    55 H    0.970
                            29 C    0.102
    34   6 C    3.987 --    33 C    1.453    28 C    1.391    56 H    0.972
                            30 C    0.105
    35   6 C    3.920 --    27 C    1.320    39 N    1.211    36 C    1.177
    36   6 C    3.963 --    37 C    1.647    35 C    1.177    57 H    0.973
    37   6 C    3.958 --    36 C    1.647    38 C    1.176    58 H    0.975
    38   6 C    3.925 --     2 C    1.363    39 N    1.202    37 C    1.176
    39   7 N    3.348 --    35 C    1.211    38 C    1.202     1 Co   0.638
    40   1 H    1.000 --     2 C    0.970
    41   1 H    0.998 --     4 C    0.975
    42   1 H    1.005 --     5 C    0.973
    43   1 H    1.004 --    10 C    0.973
    44   1 H    0.999 --    11 C    0.970
    45   1 H    0.887 --    13 O    0.865
    46   1 H    0.999 --    14 C    0.971
    47   1 H    1.004 --    15 C    0.973
    48   1 H    1.005 --    17 C    0.973
    49   1 H    1.002 --    18 C    0.973
    50   1 H    1.002 --    23 C    0.973
    51   1 H    1.004 --    24 C    0.973
    52   1 H    1.005 --    29 C    0.973
    53   1 H    0.999 --    30 C    0.971
    54   1 H    0.887 --    32 O    0.865
    55   1 H    0.999 --    33 C    0.970
    56   1 H    1.005 --    34 C    0.972
    57   1 H    1.005 --    36 C    0.973
    58   1 H    0.998 --    37 C    0.975
    59  27 Co   3.020 --    97 N    0.634    65 N    0.634    77 N    0.631
                            84 N    0.630
    60   6 C    3.923 --    61 C    1.366    96 C    1.363    98 H    0.970
    61   6 C    3.925 --    60 C    1.366    65 N    1.201    62 C    1.175
    62   6 C    3.959 --    63 C    1.648    61 C    1.175    99 H    0.975
    63   6 C    3.963 --    62 C    1.648    64 C    1.178   100 H    0.973
    64   6 C    3.918 --    66 C    1.316    65 N    1.216    63 C    1.178
    65   7 N    3.343 --    64 C    1.216    61 C    1.201    59 Co   0.634
    66   6 C    3.928 --    74 C    1.338    64 C    1.316    67 C    1.023
    67   6 C    3.988 --    68 C    1.395    73 C    1.385    66 C    1.023
    68   6 C    3.988 --    69 C    1.451    67 C    1.395   101 H    0.973
                            72 C    0.105
    69   6 C    3.988 --    68 C    1.451    70 C    1.372   102 H    0.970
                            73 C    0.103
    70   6 C    3.902 --    69 C    1.372    72 C    1.365    71 O    1.040
    71   8 O    2.044 --    70 C    1.040   103 H    0.865
    72   6 C    3.990 --    73 C    1.466    70 C    1.365   104 H    0.971
                            68 C    0.105
    73   6 C    3.988 --    72 C    1.466    67 C    1.385   105 H    0.973
                            69 C    0.103
    74   6 C    3.916 --    66 C    1.338    77 N    1.190    75 C    1.181
    75   6 C    3.958 --    76 C    1.638    74 C    1.181   106 H    0.973
    76   6 C    3.962 --    75 C    1.638    78 C    1.190   107 H    0.974
    77   7 N    3.344 --    78 C    1.236    74 C    1.190    59 Co   0.631
    78   6 C    3.904 --    79 C    1.254    77 N    1.236    76 C    1.190
    79   6 C    3.927 --    80 C    1.255    78 C    1.254   124 C    1.197
    80   6 C    3.904 --    79 C    1.255    84 N    1.233    81 C    1.191
    81   6 C    3.961 --    82 C    1.635    80 C    1.191   108 H    0.974
    82   6 C    3.958 --    81 C    1.635    83 C    1.183   109 H    0.973
    83   6 C    3.917 --    85 C    1.331    84 N    1.194    82 C    1.183
    84   7 N    3.344 --    80 C    1.233    83 C    1.194    59 Co   0.630
    85   6 C    3.928 --    83 C    1.331    93 C    1.314    86 C    1.034
    86   6 C    3.988 --    92 C    1.390    87 C    1.381    85 C    1.034
    87   6 C    3.986 --    88 C    1.468    86 C    1.381   110 H    0.972
                            91 C    0.102
    88   6 C    3.990 --    87 C    1.468    89 C    1.363   111 H    0.971
                            92 C    0.104
    89   6 C    3.900 --    91 C    1.370    88 C    1.363    90 O    1.042
    90   8 O    2.044 --    89 C    1.042   112 H    0.865
    91   6 C    3.988 --    92 C    1.454    89 C    1.370   113 H    0.970
                            87 C    0.102
    92   6 C    3.987 --    91 C    1.454    86 C    1.390   114 H    0.972
                            88 C    0.104
    93   6 C    3.919 --    85 C    1.314    97 N    1.215    94 C    1.178
    94   6 C    3.963 --    95 C    1.646    93 C    1.178   115 H    0.973
    95   6 C    3.958 --    94 C    1.646    96 C    1.176   116 H    0.975
    96   6 C    3.925 --    60 C    1.363    97 N    1.202    95 C    1.176
    97   7 N    3.342 --    93 C    1.215    96 C    1.202    59 Co   0.634
    98   1 H    1.000 --    60 C    0.970
    99   1 H    0.998 --    62 C    0.975
   100   1 H    1.005 --    63 C    0.973
   101   1 H    1.004 --    68 C    0.973
   102   1 H    0.999 --    69 C    0.970
   103   1 H    0.887 --    71 O    0.865
   104   1 H    0.999 --    72 C    0.971
   105   1 H    1.004 --    73 C    0.973
   106   1 H    1.005 --    75 C    0.973
   107   1 H    1.002 --    76 C    0.974
   108   1 H    1.002 --    81 C    0.974
   109   1 H    1.004 --    82 C    0.973
   110   1 H    1.005 --    87 C    0.972
   111   1 H    0.999 --    88 C    0.971
   112   1 H    0.886 --    90 O    0.865
   113   1 H    0.999 --    91 C    0.970
   114   1 H    1.005 --    92 C    0.972
   115   1 H    1.004 --    94 C    0.973
   116   1 H    0.998 --    95 C    0.975
   117   6 C    3.932 --   118 C    2.481   119 C    1.302
   118   6 C    3.913 --   117 C    2.481    21 C    1.177   120 C    0.196
   119   6 C    3.924 --   120 C    2.477   117 C    1.302
   120   6 C    3.919 --   119 C    2.477   126 C    1.184   118 C    0.196
   121   6 C    3.923 --   122 C    2.455   123 C    1.321
   122   6 C    3.921 --   121 C    2.455   145 C    1.202   124 C    0.197
   123   6 C    3.928 --   124 C    2.457   121 C    1.321
   124   6 C    3.915 --   123 C    2.457    79 C    1.197   122 C    0.197
   125  27 Co   3.067 --   163 N    0.633   143 N    0.633   131 N    0.627
                           150 N    0.627
   126   6 C    3.921 --   162 C    1.260   127 C    1.259   120 C    1.184
   127   6 C    3.909 --   126 C    1.259   131 N    1.228   128 C    1.194
   128   6 C    3.959 --   129 C    1.630   127 C    1.194   164 H    0.974
   129   6 C    3.961 --   128 C    1.630   130 C    1.187   165 H    0.973
   130   6 C    3.914 --   132 C    1.314   131 N    1.202   129 C    1.187
   131   7 N    3.339 --   127 C    1.228   130 C    1.202   125 Co   0.627
   132   6 C    3.926 --   140 C    1.325   130 C    1.314   133 C    1.038
   133   6 C    3.987 --   139 C    1.388   134 C    1.378   132 C    1.038
   134   6 C    3.985 --   135 C    1.470   133 C    1.378   166 H    0.972
                           138 C    0.101
   135   6 C    3.990 --   134 C    1.470   136 C    1.362   167 H    0.971
                           139 C    0.104
   136   6 C    3.899 --   138 C    1.369   135 C    1.362   137 O    1.043
   137   8 O    2.046 --   136 C    1.043   168 H    0.864
   138   6 C    3.988 --   139 C    1.455   136 C    1.369   169 H    0.970
                           134 C    0.101
   139   6 C    3.984 --   138 C    1.455   133 C    1.388   170 H    0.972
                           135 C    0.104
   140   6 C    3.915 --   132 C    1.325   143 N    1.194   141 C    1.185
   141   6 C    3.960 --   142 C    1.632   140 C    1.185   171 H    0.973
   142   6 C    3.959 --   141 C    1.632   144 C    1.194   172 H    0.974
   143   7 N    3.338 --   144 C    1.235   140 C    1.194   125 Co   0.633
   144   6 C    3.906 --   145 C    1.251   143 N    1.235   142 C    1.194
   145   6 C    3.919 --   144 C    1.251   146 C    1.250   122 C    1.202
   146   6 C    3.906 --   145 C    1.250   150 N    1.233   147 C    1.195
   147   6 C    3.959 --   148 C    1.629   146 C    1.195   173 H    0.974
   148   6 C    3.960 --   147 C    1.629   149 C    1.187   174 H    0.973
   149   6 C    3.915 --   151 C    1.320   150 N    1.197   148 C    1.187
   150   7 N    3.338 --   146 C    1.233   149 C    1.197   125 Co   0.627
   151   6 C    3.926 --   149 C    1.320   159 C    1.319   152 C    1.038
   152   6 C    3.987 --   153 C    1.388   158 C    1.378   151 C    1.038
   153   6 C    3.984 --   154 C    1.455   152 C    1.388   175 H    0.972
                           157 C    0.104
   154   6 C    3.988 --   153 C    1.455   155 C    1.369   176 H    0.970
                           158 C    0.101
   155   6 C    3.899 --   154 C    1.369   157 C    1.362   156 O    1.043
   156   8 O    2.045 --   155 C    1.043   177 H    0.864
   157   6 C    3.990 --   158 C    1.470   155 C    1.362   178 H    0.971
                           153 C    0.104
   158   6 C    3.985 --   157 C    1.470   152 C    1.378   179 H    0.972
                           154 C    0.101
   159   6 C    3.915 --   151 C    1.319   163 N    1.199   160 C    1.185
   160   6 C    3.961 --   161 C    1.632   159 C    1.185   180 H    0.973
   161   6 C    3.959 --   160 C    1.632   162 C    1.193   181 H    0.974
   162   6 C    3.908 --   126 C    1.260   163 N    1.229   161 C    1.193
   163   7 N    3.338 --   162 C    1.229   159 C    1.199   125 Co   0.633
   164   1 H    1.001 --   128 C    0.974
   165   1 H    1.004 --   129 C    0.973
   166   1 H    1.005 --   134 C    0.972
   167   1 H    0.999 --   135 C    0.971
   168   1 H    0.886 --   137 O    0.864
   169   1 H    0.999 --   138 C    0.970
   170   1 H    1.005 --   139 C    0.972
   171   1 H    1.004 --   141 C    0.973
   172   1 H    1.001 --   142 C    0.974
   173   1 H    1.001 --   147 C    0.974
   174   1 H    1.004 --   148 C    0.973
   175   1 H    1.005 --   153 C    0.972
   176   1 H    0.999 --   154 C    0.970
   177   1 H    0.886 --   156 O    0.864
   178   1 H    0.999 --   157 C    0.971
   179   1 H    1.005 --   158 C    0.972
   180   1 H    1.004 --   160 C    0.973
   181   1 H    1.001 --   161 C    0.974
 ---------------------------------------------------------------------------

           -------------------------------------------------
          | TOTAL ENERGY             -326.904486492528 Eh   |
          | GRADIENT NORM               0.000495622949 Eh/α |
          | HOMO-LUMO GAP               0.009628008924 eV   |
           -------------------------------------------------

 * finished run on 2022/07/30 at 02:18:30.002
