   * xtb version 6.5.1 (b24c23e) compiled by 'conda@728c89f4b128' on 2022-07-12
          program call               : xtb Zn_PhCN_C8_2.xyz --gfn 1 --opt -T 48

   ID    Z sym.   atoms
    1   30 Zn     1, 59
    2    6 C      2-6, 8-13, 15-19, 21-26, 28-33, 35-40, 60-64, 66-71, 73-77,
                  79-84, 86-91, 93-98, 117-124
    3    7 N      7, 14, 20, 27, 34, 41, 65, 72, 78, 85, 92, 99
    4    1 H      42-58, 100-116
########################################################################
[WARNING] Please study the warnings concerning your input carefully
-1- prog_main_parseArguments: Unknown option '-T' provided
########################################################################

          :  Hamiltonian                  GFN1-xTB          :
 * total energy  :  -218.2042505 Eh     change       -0.8297718E-09 Eh
 * total energy  :  -218.4075391 Eh     change       -0.2032886E+00 Eh
 * total energy  :  -218.4682005 Eh     change       -0.6066137E-01 Eh
 * total energy  :  -218.4866975 Eh     change       -0.1849706E-01 Eh
 * total energy  :  -218.4945253 Eh     change       -0.7827820E-02 Eh
 * total energy  :  -218.4987351 Eh     change       -0.4209732E-02 Eh
 * total energy  :  -218.5003069 Eh     change       -0.1571772E-02 Eh
 * total energy  :  -218.5032338 Eh     change       -0.2926970E-02 Eh
 * total energy  :  -218.5041297 Eh     change       -0.8959043E-03 Eh
 * total energy  :  -218.5055410 Eh     change       -0.1411272E-02 Eh
 * total energy  :  -218.5102330 Eh     change       -0.3462518E-04 Eh
 * total energy  :  -218.5102609 Eh     change       -0.2793759E-04 Eh
 * total energy  :  -218.5102813 Eh     change       -0.2043047E-04 Eh
 * total energy  :  -218.5102970 Eh     change       -0.1566407E-04 Eh
 * total energy  :  -218.5103071 Eh     change       -0.1010434E-04 Eh
 * total energy  :  -218.5103142 Eh     change       -0.7109312E-05 Eh
 * total energy  :  -218.5103212 Eh     change       -0.6950275E-05 Eh
 * total energy  :  -218.5103279 Eh     change       -0.6769409E-05 Eh
 * total energy  :  -218.5103312 Eh     change       -0.3314906E-05 Eh
   *** GEOMETRY OPTIMIZATION CONVERGED AFTER 39 ITERATIONS ***

 final structure:
================
124
 xtb: 6.5.1 (b24c23e)
Zn          14.31691135077788        0.01321175861144        0.00915363616714
C           10.91056725806082        0.03813852218314        0.14567313093433
C           11.54613643797682        1.25821151783041        0.34177397962114
C           10.87835875085557        2.51043128552990        0.56228516976051
C           11.84188683921371        3.45363306858008        0.70944210050443
C           13.11162097887009        2.78614091342000        0.59148722251021
N           12.89669916113617        1.45967745235116        0.35845650145718
C           14.36638151870159        3.40275247803896        0.67650268488555
C           14.38747688434104        4.85655928379521        0.96897624138141
C           13.84948001471527        5.34655438428470        2.16156546521850
C           13.87036607056338        6.70108527071015        2.44122605508747
C           14.42888968714146        7.59733667450236        1.52494598304407
C           14.45035749352611        8.99208603580436        1.80798423036481
N           14.46761866606287       10.11983999401914        2.03612474975562
C           14.96626841662130        7.11298304243111        0.32847797797293
C           14.94609061415290        5.75652109820483        0.05810562391790
C           15.60178123584472        2.76580178262145        0.51337015409705
C           16.88603460165947        3.39476296500790        0.65559723402452
C           17.82548735788740        2.44093527708257        0.43208615009793
N           15.78600053358525        1.44062739375610        0.22213910946589
C           17.12632887997763        1.21918054370514        0.16159847715121
C           17.74976407892231       -0.01326374414930       -0.12051899520767
C           17.08896333774212       -1.23556122917904       -0.35682864315642
C           17.74689040470228       -2.46816005753654       -0.67667346645057
C           16.77841077545072       -3.40703006687477       -0.82886809354354
C           15.51832828589041       -2.75780897906705       -0.59220007231568
N           15.74441735885409       -1.43566689939409       -0.31762707079260
C           14.26430466600225       -3.37540334607574       -0.65994457238358
C           14.23947733329940       -4.82904143554799       -0.95357604311386
C           13.60792795158134       -5.30744295473261       -2.10415698084438
C           13.58371802337193       -6.66175343160312       -2.38462392909487
C           14.18989476013416       -7.56935301784213       -1.51086354899120
C           14.16290041005131       -8.96387765625092       -1.79471609398441
N           14.14087922642156      -10.09153954303942       -2.02303001845820
C           14.82129272004850       -7.09649209857249       -0.35646891519577
C           14.84604138637000       -5.74020256246687       -0.08555173860525
C           13.02949592330280       -2.74013810797788       -0.47706204039253
C           11.74463224517603       -3.38861067012217       -0.49589584029370
C           10.80984137653715       -2.43213140842224       -0.27041829811801
C           11.51128970076754       -1.19035334201961       -0.10111990474132
N           12.85315411067119       -1.41129328031552       -0.22538472387091
H            9.82586817308975        0.04565436215395        0.18929735897668
H            9.80795938567637        2.64130099386974        0.59030255308516
H           11.70880419995625        4.51139077677918        0.87095743024145
H           13.42743648292598        4.65368666235596        2.88087431636588
H           13.45624002576898        7.07225243384948        3.37144220272216
H           15.39695321174118        7.80503958235011       -0.38576375774848
H           15.35255472456431        5.38658158791452       -0.87647219437789
H           17.04777430685665        4.43028166540891        0.90811295906609
H           18.89839733201087        2.54651544244724        0.45454102914822
H           18.81352847761694       -2.59013576201400       -0.77841750291831
H           16.90428065537245       -4.44522668445054       -1.09080386695974
H           13.14755259253264       -4.60593075213922       -2.79077676235524
H           13.09677779088859       -7.02411418211413       -3.28245554199521
H           15.28917040232680       -7.79729153662695        0.32508732245417
H           15.32591515481583       -5.37895418827389        0.81707746150756
H           11.58367024191793       -4.44365176328282       -0.64956794243372
H            9.73873732461916       -2.54690461629465       -0.21371671045784
Zn          32.92348978820703       -0.01587537032118        0.00926216950637
C           36.32974242085700       -0.03242027721249        0.14749795375257
C           35.69460411229918       -1.24077264380452        0.40713584003293
C           36.36280651480763       -2.47961623617310        0.69243309467259
C           35.39956942541863       -3.41372574916206        0.89060172359391
C           34.12959614957065       -2.75333679998281        0.73965033830158
N           34.34410304213798       -1.44116072707411        0.43606688122465
C           32.87481918558189       -3.36389743971631        0.86078593674594
C           32.85376060232866       -4.79966959893070        1.23147686145727
C           33.39743893501996       -5.22572463461469        2.44586047563916
C           33.37697408767905       -6.56334886303826        2.79758799651073
C           32.81307921169610       -7.50683693286118        1.93343995253783
C           32.79348330592301       -8.88439896691884        2.29093618658767
N           32.78009848441688       -9.99805214117317        2.58087958854620
C           32.26946982490592       -7.08659084197229        0.71579573636094
C           32.28944740013448       -5.74657168665321        0.37315264865013
C           31.63924152181965       -2.73616226352199        0.66579445456518
C           30.35515551433942       -3.35563194902387        0.84609530718959
C           29.41540077125667       -2.41582800800078        0.57043056368723
N           31.45467017446695       -1.42949824201077        0.30062114264686
C           30.11420135963788       -1.21160327679350        0.22969006460478
C           29.49059527246899        0.00273295348793       -0.12185462380658
C           30.15129349612847        1.20971979910652       -0.42720736695690
C           29.49318310031767        2.42187488873138       -0.81718972681597
C           30.46135155978304        3.35146361769278       -1.01990363784063
C           31.72137319133906        2.71754459614947       -0.74451996069131
N           31.49561103159430        1.41259779699732       -0.39711102108264
C           32.97514981842867        3.33154735053004       -0.84260162478802
C           33.00019771885329        4.76715233721817       -1.21418135992570
C           33.63807718958228        5.18348342964592       -2.38530247378444
C           33.66394135185224        6.52080289076236       -2.73782820219819
C           33.05270686471474        7.47366265640310       -1.91738278762048
C           33.08011718319946        8.85126570865841       -2.27438081825596
N           33.10162331968329        9.96498217678498       -2.56358223488564
C           32.41459068938313        7.06304567878956       -0.74305119644207
C           32.38847854163047        5.72325745614245       -0.39983095304951
C           34.20992235680557        2.70798862783529       -0.62257249475781
C           35.49435545227801        3.35565644221869       -0.67265379536868
C           36.42941880366343        2.41299552818707       -0.39592967435417
C           35.72854626606216        1.18123610393113       -0.16325459241067
N           34.38670836261562        1.39438533910626       -0.30092479773990
H           37.41443544775289       -0.03716277039026        0.19161222301017
H           37.43326700016252       -2.60876111062377        0.72564061953282
H           35.53306605813896       -4.46149981855467        1.10737839889363
H           33.82367401508472       -4.49586608950211        3.12498590608969
H           33.79563935466572       -6.88484260897801        3.74413030946112
H           31.83422906801471       -7.81523299207648        0.04183735721921
H           31.87841241433102       -5.42677804061681       -0.57779887474393
H           30.19363569194946       -4.37492283885495        1.15786346037269
H           28.34254146437061       -2.51987377749062        0.60088210426487
H           28.42666456738057        2.53692808869750       -0.92790124439547
H           30.33534678543453        4.37319148135035       -1.34001615152741
H           34.10234321533463        4.44629615596331       -3.03069118501849
H           34.15616056331233        6.83455579837901       -3.65098280944575
H           31.94270535598689        7.79926293659091       -0.10288726672794
H           31.90368669013447        5.41086117495645        0.51825926504182
H           35.65492494426773        4.40142422612329       -0.88051864210574
H           37.50032108303562        2.53152671398193       -0.34337564966547
C           19.15405619659660       -0.02251621456418       -0.16427471800467
C           20.37838192752364       -0.02287959905699       -0.19357566644558
C           21.72069353364774       -0.02015082187663       -0.21664179077099
C           22.95129974234861       -0.01130039920499       -0.22848239863999
C           24.28903869730139       -0.00377067278286       -0.22759874846720
C           25.51966734859503        0.00351325302116       -0.21687872768018
C           26.86198106062647        0.00783190152407       -0.19451442712622
C           28.08630806148772        0.00980736157545       -0.16574715923275

          :  Hamiltonian                  GFN1-xTB          :
         :: total energy            -218.510331241550 Eh    ::
         :: gradient norm              0.000657062421 Eh/a0 ::
         :: HOMO-LUMO gap              1.135910627160 eV    ::
         :: SCC energy              -222.353234758909 Eh    ::
         :: repulsion energy           3.953755594260 Eh    ::

    * Orbital Energies and Occupations

         #    Occupation            Energy/Eh            Energy/eV
      -------------------------------------------------------------
         1        2.0000           -0.7705614             -20.9680
       ...           ...                  ...                  ...
       189        2.0000           -0.4322389             -11.7618
       190        2.0000           -0.4322373             -11.7618
       191        2.0000           -0.4317671             -11.7490
       192        2.0000           -0.4316939             -11.7470
       193        2.0000           -0.4313693             -11.7382
       194        2.0000           -0.4313673             -11.7381
       195        2.0000           -0.4311318             -11.7317
       196        2.0000           -0.4210640             -11.4577
       197        2.0000           -0.4135501             -11.2533
       198        2.0000           -0.4040335             -10.9943
       199        2.0000           -0.4040327             -10.9943
       200        2.0000           -0.3958358             -10.7712
       201        2.0000           -0.3878690             -10.5545 (HOMO)
       202                         -0.3461251              -9.4185 (LUMO)
       203                         -0.3384425              -9.2095
       204                         -0.3384143              -9.2087
       205                         -0.3371561              -9.1745
       206                         -0.3128716              -8.5137
       207                         -0.3103683              -8.4456
       208                         -0.3036714              -8.2633
       209                         -0.3012316              -8.1969
       210                         -0.3012068              -8.1963
       211                         -0.2997504              -8.1566
       212                         -0.2934575              -7.9854
       ...                                ...                  ...
       428                          1.6008713              43.5619
      -------------------------------------------------------------
                  HL-Gap            0.0417439 Eh            1.1359 eV

Wiberg/Mayer (AO) data.
largest (>0.10) Wiberg bond orders for each atom

     #   Z sym  total        # sym  WBO       # sym  WBO       # sym  WBO
 ---------------------------------------------------------------------------
     1  30 Zn   1.994 --    41 N    0.460     7 N    0.459    20 N    0.455
                            27 N    0.455
     2   6 C    3.928 --    40 C    1.358     3 C    1.358    42 H    0.971
     3   6 C    3.921 --     2 C    1.358     7 N    1.232     4 C    1.170
     4   6 C    3.960 --     5 C    1.659     3 C    1.170    43 H    0.975
     5   6 C    3.963 --     4 C    1.659     6 C    1.171    44 H    0.973
     6   6 C    3.918 --     8 C    1.312     7 N    1.246     5 C    1.171
     7   7 N    3.294 --     6 C    1.246     3 C    1.232     1 Zn   0.459
     8   6 C    3.932 --    17 C    1.322     6 C    1.312     9 C    1.032
     9   6 C    3.963 --    16 C    1.385    10 C    1.385     8 C    1.032
    10   6 C    3.987 --    11 C    1.464     9 C    1.385    45 H    0.971
                            15 C    0.102
    11   6 C    3.993 --    10 C    1.464    12 C    1.364    46 H    0.972
                            16 C    0.102
    12   6 C    3.984 --    11 C    1.364    15 C    1.364    13 C    1.099
    13   6 C    3.957 --    14 N    2.819    12 C    1.099
    14   7 N    2.972 --    13 C    2.819
    15   6 C    3.993 --    16 C    1.464    12 C    1.364    47 H    0.972
                            10 C    0.102
    16   6 C    3.987 --    15 C    1.464     9 C    1.385    48 H    0.971
                            11 C    0.102
    17   6 C    3.912 --     8 C    1.322    20 N    1.226    18 C    1.178
    18   6 C    3.959 --    19 C    1.647    17 C    1.178    49 H    0.973
    19   6 C    3.962 --    18 C    1.647    21 C    1.186    50 H    0.974
    20   7 N    3.297 --    21 C    1.263    17 C    1.226     1 Zn   0.455
    21   6 C    3.900 --    20 N    1.263    22 C    1.253    19 C    1.186
    22   6 C    3.940 --    23 C    1.254    21 C    1.253   117 C    1.193
    23   6 C    3.900 --    27 N    1.262    22 C    1.254    24 C    1.186
    24   6 C    3.962 --    25 C    1.647    23 C    1.186    51 H    0.974
    25   6 C    3.959 --    24 C    1.647    26 C    1.178    52 H    0.973
    26   6 C    3.912 --    28 C    1.322    27 N    1.227    25 C    1.178
    27   7 N    3.296 --    23 C    1.262    26 C    1.227     1 Zn   0.455
    28   6 C    3.932 --    26 C    1.322    37 C    1.312    29 C    1.031
    29   6 C    3.963 --    36 C    1.385    30 C    1.385    28 C    1.031
    30   6 C    3.987 --    31 C    1.464    29 C    1.385    53 H    0.971
                            35 C    0.102
    31   6 C    3.993 --    30 C    1.464    32 C    1.364    54 H    0.972
                            36 C    0.102
    32   6 C    3.984 --    31 C    1.364    35 C    1.364    33 C    1.098
    33   6 C    3.957 --    34 N    2.819    32 C    1.098
    34   7 N    2.972 --    33 C    2.819
    35   6 C    3.993 --    36 C    1.464    32 C    1.364    55 H    0.972
                            30 C    0.102
    36   6 C    3.987 --    35 C    1.464    29 C    1.385    56 H    0.971
                            31 C    0.102
    37   6 C    3.918 --    28 C    1.312    41 N    1.246    38 C    1.171
    38   6 C    3.963 --    39 C    1.659    37 C    1.171    57 H    0.973
    39   6 C    3.960 --    38 C    1.659    40 C    1.170    58 H    0.975
    40   6 C    3.921 --     2 C    1.358    41 N    1.232    39 C    1.170
    41   7 N    3.294 --    37 C    1.246    40 C    1.232     1 Zn   0.460
    42   1 H    1.001 --     2 C    0.971
    43   1 H    0.998 --     4 C    0.975
    44   1 H    1.004 --     5 C    0.973
    45   1 H    1.004 --    10 C    0.971
    46   1 H    1.000 --    11 C    0.972
    47   1 H    1.000 --    15 C    0.972
    48   1 H    1.004 --    16 C    0.971
    49   1 H    1.004 --    18 C    0.973
    50   1 H    1.002 --    19 C    0.974
    51   1 H    1.002 --    24 C    0.974
    52   1 H    1.004 --    25 C    0.973
    53   1 H    1.004 --    30 C    0.971
    54   1 H    1.000 --    31 C    0.972
    55   1 H    1.000 --    35 C    0.972
    56   1 H    1.004 --    36 C    0.971
    57   1 H    1.004 --    38 C    0.973
    58   1 H    0.998 --    39 C    0.975
    59  30 Zn   1.994 --    99 N    0.460    65 N    0.459    78 N    0.455
                            85 N    0.455
    60   6 C    3.928 --    98 C    1.358    61 C    1.358   100 H    0.971
    61   6 C    3.921 --    60 C    1.358    65 N    1.232    62 C    1.170
    62   6 C    3.960 --    63 C    1.659    61 C    1.170   101 H    0.975
    63   6 C    3.963 --    62 C    1.659    64 C    1.171   102 H    0.973
    64   6 C    3.918 --    66 C    1.312    65 N    1.246    63 C    1.171
    65   7 N    3.294 --    64 C    1.246    61 C    1.232    59 Zn   0.459
    66   6 C    3.932 --    75 C    1.322    64 C    1.312    67 C    1.032
    67   6 C    3.963 --    74 C    1.385    68 C    1.384    66 C    1.032
    68   6 C    3.987 --    69 C    1.464    67 C    1.384   103 H    0.971
                            73 C    0.102
    69   6 C    3.993 --    68 C    1.464    70 C    1.363   104 H    0.972
                            74 C    0.102
    70   6 C    3.984 --    73 C    1.364    69 C    1.363    71 C    1.099
    71   6 C    3.957 --    72 N    2.819    70 C    1.099
    72   7 N    2.972 --    71 C    2.819
    73   6 C    3.993 --    74 C    1.464    70 C    1.364   105 H    0.972
                            68 C    0.102
    74   6 C    3.987 --    73 C    1.464    67 C    1.385   106 H    0.971
                            69 C    0.102
    75   6 C    3.912 --    66 C    1.322    78 N    1.226    76 C    1.178
    76   6 C    3.959 --    77 C    1.647    75 C    1.178   107 H    0.973
    77   6 C    3.962 --    76 C    1.647    79 C    1.186   108 H    0.974
    78   7 N    3.297 --    79 C    1.262    75 C    1.226    59 Zn   0.455
    79   6 C    3.900 --    78 N    1.262    80 C    1.253    77 C    1.186
    80   6 C    3.940 --    81 C    1.254    79 C    1.253   124 C    1.193
    81   6 C    3.900 --    85 N    1.262    80 C    1.254    82 C    1.186
    82   6 C    3.962 --    83 C    1.647    81 C    1.186   109 H    0.974
    83   6 C    3.959 --    82 C    1.647    84 C    1.178   110 H    0.973
    84   6 C    3.912 --    86 C    1.322    85 N    1.227    83 C    1.178
    85   7 N    3.296 --    81 C    1.262    84 C    1.227    59 Zn   0.455
    86   6 C    3.932 --    84 C    1.322    95 C    1.312    87 C    1.031
    87   6 C    3.963 --    94 C    1.385    88 C    1.385    86 C    1.031
    88   6 C    3.987 --    89 C    1.464    87 C    1.385   111 H    0.971
                            93 C    0.102
    89   6 C    3.993 --    88 C    1.464    90 C    1.364   112 H    0.972
                            94 C    0.102
    90   6 C    3.984 --    93 C    1.364    89 C    1.364    91 C    1.099
    91   6 C    3.957 --    92 N    2.819    90 C    1.099
    92   7 N    2.972 --    91 C    2.819
    93   6 C    3.993 --    94 C    1.464    90 C    1.364   113 H    0.972
                            88 C    0.102
    94   6 C    3.987 --    93 C    1.464    87 C    1.385   114 H    0.971
                            89 C    0.102
    95   6 C    3.918 --    86 C    1.312    99 N    1.246    96 C    1.171
    96   6 C    3.963 --    97 C    1.659    95 C    1.171   115 H    0.973
    97   6 C    3.960 --    96 C    1.659    98 C    1.170   116 H    0.975
    98   6 C    3.921 --    60 C    1.358    99 N    1.232    97 C    1.170
    99   7 N    3.294 --    95 C    1.246    98 C    1.232    59 Zn   0.460
   100   1 H    1.001 --    60 C    0.971
   101   1 H    0.998 --    62 C    0.975
   102   1 H    1.004 --    63 C    0.973
   103   1 H    1.004 --    68 C    0.971
   104   1 H    1.000 --    69 C    0.972
   105   1 H    1.000 --    73 C    0.972
   106   1 H    1.004 --    74 C    0.971
   107   1 H    1.004 --    76 C    0.973
   108   1 H    1.002 --    77 C    0.974
   109   1 H    1.002 --    82 C    0.974
   110   1 H    1.004 --    83 C    0.973
   111   1 H    1.004 --    88 C    0.971
   112   1 H    1.000 --    89 C    0.972
   113   1 H    1.000 --    93 C    0.972
   114   1 H    1.004 --    94 C    0.971
   115   1 H    1.004 --    96 C    0.973
   116   1 H    0.998 --    97 C    0.975
   117   6 C    3.877 --   118 C    2.438    22 C    1.193   120 C    0.186
   118   6 C    3.934 --   117 C    2.438   119 C    1.344
   119   6 C    3.893 --   120 C    2.336   118 C    1.344   122 C    0.182
   120   6 C    3.925 --   119 C    2.336   121 C    1.369   117 C    0.186
   121   6 C    3.925 --   122 C    2.336   120 C    1.369   124 C    0.186
   122   6 C    3.893 --   121 C    2.336   123 C    1.344   119 C    0.182
   123   6 C    3.934 --   124 C    2.438   122 C    1.344
   124   6 C    3.877 --   123 C    2.438    80 C    1.193   121 C    0.186
 ---------------------------------------------------------------------------

           -------------------------------------------------
          | TOTAL ENERGY             -218.510331241550 Eh   |
          | GRADIENT NORM               0.000657062421 Eh/α |
          | HOMO-LUMO GAP               1.135910627160 eV   |
           -------------------------------------------------

 * finished run on 2022/07/30 at 16:35:29.204
