   * xtb version 6.5.1 (b24c23e) compiled by 'conda@728c89f4b128' on 2022-07-12
          program call               : xtb Fe_H_C6_3.xyz --gfn 1 --opt -T 48

   ID    Z sym.   atoms
    1   26 Fe     1, 37, 85
    2    6 C      2-6, 8-11, 13-18, 20-24, 38-42, 44-47, 49-54, 56-60, 73-84,
                  86-90, 92-95, 97-102, 104-108
    3    7 N      7, 12, 19, 25, 43, 48, 55, 61, 91, 96, 103, 109
    4    1 H      26-36, 62-72, 110-119

          :  Hamiltonian                  GFN1-xTB          :
 * total energy  :  -215.6603966 Eh     change        0.3900425E-08 Eh
 * total energy  :  -215.8997969 Eh     change       -0.2394003E+00 Eh
 * total energy  :  -215.9795574 Eh     change       -0.7976051E-01 Eh
 * total energy  :  -216.0162346 Eh     change       -0.3667718E-01 Eh
 * total energy  :  -216.0308964 Eh     change       -0.1466185E-01 Eh
 * total energy  :  -216.0451648 Eh     change       -0.1426837E-01 Eh
 * total energy  :  -216.0635053 Eh     change       -0.1834053E-01 Eh
 * total energy  :  -216.0870659 Eh     change       -0.2356062E-01 Eh
 * total energy  :  -216.1194708 Eh     change       -0.3240484E-01 Eh
 * total energy  :  -216.1604228 Eh     change       -0.4095207E-01 Eh
 * total energy  :  -216.4506134 Eh     change       -0.2383447E-02 Eh
 * total energy  :  -216.4524371 Eh     change       -0.1823715E-02 Eh
 * total energy  :  -216.4537410 Eh     change       -0.1303919E-02 Eh
 * total energy  :  -216.4545993 Eh     change       -0.8582761E-03 Eh
 * total energy  :  -216.4552580 Eh     change       -0.6587364E-03 Eh
 * total energy  :  -216.4554190 Eh     change       -0.1609941E-03 Eh
 * total energy  :  -216.4554546 Eh     change       -0.3554628E-04 Eh
 * total energy  :  -216.4554679 Eh     change       -0.1333702E-04 Eh
 * total energy  :  -216.4554705 Eh     change       -0.2643133E-05 Eh
   *** GEOMETRY OPTIMIZATION CONVERGED AFTER 44 ITERATIONS ***

 final structure:
================
119
 xtb: 6.5.1 (b24c23e)
Fe          13.60140888781507       -0.02271331665314       -0.00988360165762
C           10.18897888572242       -0.02743654446806       -0.05690915224305
C           10.84988689496991       -0.88597582219503       -0.91147516033812
C           10.18524637142817       -1.77951735364270       -1.81471219849507
C           11.15407016902388       -2.45645064161250       -2.47476547588895
C           12.40753834197953       -1.97338184474896       -1.97396229202012
N           12.20902589257873       -1.01406652342810       -1.01915864652901
C           13.63498029514507       -2.42959066991844       -2.41336411270524
C           14.84734454313108       -1.97174865312011       -1.94548405829850
C           16.11188551739195       -2.45278742812804       -2.41518029590254
C           17.06334277256320       -1.77311995343442       -1.73156736121918
N           15.02631732385425       -1.00705697614046       -0.98304105686904
C           16.37567192151924       -0.88110496663480       -0.84777942328997
C           17.03419878099211       -0.00811085153715        0.02759076219777
C           16.34953741008643        0.85970550958387        0.88769400016630
C           17.01019317684286        1.75581354339171        1.78775868613694
C           16.03827611097714        2.42181473525260        2.45593301926455
C           14.78835115597817        1.92929058769070        1.95966278679770
N           14.99647868595643        0.97132591577554        0.99639325415348
C           13.56210799370087        2.37224890108795        2.40531420239021
C           12.34848096661207        1.91150698777528        1.93341810302114
C           11.08027769786429        2.38677122039065        2.40372458350310
C           10.13196061685449        1.71470466875695        1.70978166059842
C           10.82376623764144        0.82961726898232        0.81871242064929
N           12.17903568600153        0.95927729882926        0.96597505510643
H            9.10494708403647       -0.02814880033910       -0.07258087823602
H            9.11436083386346       -1.86189444178353       -1.91348431783015
H           11.05236546722278       -3.21581600997056       -3.23395793030481
H           13.64519674396493       -3.19793381138719       -3.17835425894551
H           16.23460336390437       -3.21215310768503       -3.17103089499310
H           18.13592725853639       -1.85437427285029       -1.80583437144442
H           18.08024859034809        1.84909888895486        1.88201881625725
H           16.13798275250687        3.17939375366385        3.21695679024245
H           13.54895611571253        3.13447966659391        3.17635929371967
H           10.95542682544988        3.13883975877836        3.16671819790358
H            9.05853120719310        1.79431976322222        1.77875329625510
Fe          45.67297366592368       -0.00275157787585        0.00524061074300
C           49.08495521369969        0.04574343313702       -0.05935966327146
C           48.41878178459875        1.25361808395423       -0.09394495432713
C           49.07785753545379        2.52589075352884       -0.14797775967772
C           48.10532500931539        3.46744910172625       -0.15716094017243
C           46.85470484302559        2.76786586876189       -0.11283289867743
N           47.05906454491942        1.41548196888137       -0.07387859042916
C           45.62498930316448        3.39599101627249       -0.11930904068580
C           44.41543957571869        2.73625329463554       -0.09102678765790
C           43.14801737527731        3.40271597788652       -0.11129173120091
C           42.20055740461046        2.43539577742222       -0.07785319370595
N           44.24249084960073        1.37379948326443       -0.04501335929739
C           42.89315836570901        1.18314535100690       -0.03536614195319
C           42.24079269371030       -0.05460773491622        0.00237797836021
C           42.93024362976349       -1.27161630210160        0.05146015437357
C           42.27551823162439       -2.54308503723583        0.11707541083510
C           43.25150245602567       -3.47998054825700        0.18168010091064
C           44.49833308032269       -2.77615169852448        0.15012851915063
N           44.28463445249533       -1.42109339138248        0.06975376270295
C           45.72718961851875       -3.39877457316199        0.18586816180746
C           46.93745770613953       -2.73593251017159        0.13405515359826
C           48.20854610499500       -3.39887394242088        0.14957454684241
C           49.15232157993424       -2.43162063039186        0.07114751624848
C           48.45530384163272       -1.17991074315362        0.01315389213245
N           47.10106188532443       -1.38001137254362        0.05065843100351
H           50.16872633770769        0.06099084866233       -0.08224185192050
H           50.14809062251236        2.65772596692533       -0.17232277413773
H           48.20272388174817        4.54108727604683       -0.19180233278587
H           45.60985964539876        4.47958745410063       -0.15410648378664
H           43.02085016708702        4.47300140740991       -0.14816785890832
H           41.12747879057645        2.54075372187699       -0.08164854411267
H           41.20609700421351       -2.68077035359936        0.11636131030138
H           43.15643057916162       -4.55240935557733        0.24407479871313
H           45.74467219380641       -4.48096297641325        0.25047195643308
H           48.33815669938750       -4.46790623233472        0.21080531768599
H           50.22601485692732       -2.53305780915776        0.05493394705800
C           22.23130463593949       -0.04338433812131        0.08642937707110
C           21.00078669986770       -0.02942539913631        0.07653845117640
C           19.66008951505902       -0.01880669702059        0.06215889290816
C           18.43441553709039       -0.00779308120470        0.04573741004895
C           23.57187945767241       -0.04648079005046        0.08455588546622
C           24.79798219389366       -0.04841927798010        0.07495823373608
C           38.27165551144284       -0.10485241239904        0.01695991085381
C           37.04190502255464       -0.11381756193362        0.02699767450168
C           35.69993334454667       -0.11469848077778        0.02367615810204
C           34.47451021303765       -0.10354452526792        0.02228164800583
C           39.61383673406729       -0.09248883744872        0.00913696278005
C           40.83879132639218       -0.07557883511444        0.00308247582274
Fe          29.63561824744835        0.00205581892891       -0.04005080790711
C           26.19689667344464       -0.03706803718397        0.04600553698081
C           26.87993686999355        0.88943606726881        0.84543418070473
C           26.21767332002089        1.83979863510662        1.68585340369150
C           27.18757768447175        2.59261674100880        2.25911700356060
C           28.43619530639891        2.08990354277273        1.77212964299724
N           28.23146835446793        1.04230467442578        0.90818737366537
C           29.66244770140471        2.59895186159078        2.14523378586059
C           30.87928866596830        2.10385521303833        1.72387489692803
C           32.13972525809731        2.62365977206546        2.15961914664434
C           33.09533705489525        1.86365666447475        1.57201760829883
N           31.06229349072116        1.04366946626805        0.87116820845976
C           32.41241605736555        0.89096521289564        0.77481658874094
C           33.07401421895207       -0.07576388796396        0.00664920339992
C           32.39128860407190       -0.99167713442312       -0.80379626575427
C           33.05331567180863       -1.94482532188948       -1.64124356848303
C           32.08358977708069       -2.60382260730369       -2.32053537004343
C           30.83517860263943       -2.05628948124461       -1.88416952215663
N           31.03933935992409       -1.07035992173022       -0.95105123895944
C           29.60871394186605       -2.49014957448977       -2.34352231877241
C           28.39205900828139       -2.01493940669669       -1.90096785885875
C           27.13154137156267       -2.51705310356290       -2.35692822899152
C           26.17627753190931       -1.84387378605973       -1.67107310793299
C           26.85943260507559       -0.92821550909236       -0.80914664879770
N           28.20881301707843       -1.03762194879668       -0.95373164907313
H           25.14843971687642        1.91097976713977        1.80478685776702
H           27.08650916428325        3.41347173542891        2.95113899169889
H           29.67127386430277        3.43840329421029        2.83176722280945
H           32.25789121507520        3.45827814880382        2.83218357058305
H           34.16729093230061        1.94109456968929        1.65780448008888
H           34.12243528253382       -2.07340708888818       -1.69529089985142
H           32.18471098035037       -3.39144724581831       -3.05014752762513
H           29.60060627835021       -3.27455987444265       -3.09233640721627
H           27.01309500919471       -3.28823867714246       -3.10134544542133
H           25.10440986079819       -1.94265081720741       -1.73274702099033

          :  Hamiltonian                  GFN1-xTB          :
         :: total energy            -216.455470540459 Eh    ::
         :: gradient norm              0.000738159781 Eh/a0 ::
         :: HOMO-LUMO gap              0.061175094667 eV    ::
         :: SCC energy              -220.098576349000 Eh    ::
         :: repulsion energy           3.745484843653 Eh    ::

    * Orbital Energies and Occupations

         #    Occupation            Energy/Eh            Energy/eV
      -------------------------------------------------------------
         1        2.0000           -0.7745440             -21.0764
       ...           ...                  ...                  ...
       190        2.0000           -0.3990429             -10.8585
       191        2.0000           -0.3980862             -10.8325
       192        1.9983           -0.3943414             -10.7306
       193        1.9920           -0.3928482             -10.6899
       194        1.9913           -0.3927711             -10.6878
       195        1.9912           -0.3927521             -10.6873
       196        1.9674           -0.3915021             -10.6533
       197        1.9477           -0.3910436             -10.6408
       198        1.9459           -0.3910102             -10.6399
       199        1.9386           -0.3908853             -10.6365
       200        1.9333           -0.3908041             -10.6343
       201        1.9244           -0.3906808             -10.6310
       202        1.3806           -0.3883674             -10.5680 (HOMO)
       203        0.3459           -0.3861192             -10.5068 (LUMO)
       204        0.3243           -0.3860457             -10.5048
       205        0.3192           -0.3860277             -10.5043
       206                         -0.3470838              -9.4446
       207                         -0.3363959              -9.1538
       208                         -0.3325155              -9.0482
       209                         -0.3310190              -9.0075
       210                         -0.3295472              -8.9674
       211                         -0.3285842              -8.9412
       212                         -0.3099608              -8.4345
       213                         -0.3068499              -8.3498
       ...                                ...                  ...
       427                          1.5693673              42.7047
      -------------------------------------------------------------
                  HL-Gap            0.0022481 Eh            0.0612 eV

Wiberg/Mayer (AO) data.
largest (>0.10) Wiberg bond orders for each atom

     #   Z sym  total        # sym  WBO       # sym  WBO       # sym  WBO
 ---------------------------------------------------------------------------
     1  26 Fe   3.100 --    25 N    0.668     7 N    0.668    12 N    0.661
                            19 N    0.661
     2   6 C    3.922 --     3 C    1.364    24 C    1.364    26 H    0.971
     3   6 C    3.924 --     2 C    1.364     7 N    1.214     4 C    1.169
     4   6 C    3.958 --     5 C    1.655     3 C    1.169    27 H    0.975
     5   6 C    3.961 --     4 C    1.655     6 C    1.170    28 H    0.975
     6   6 C    3.920 --     8 C    1.354     7 N    1.219     5 C    1.170
     7   7 N    3.384 --     6 C    1.219     3 C    1.214     1 Fe   0.668
     8   6 C    3.928 --     9 C    1.378     6 C    1.354    29 H    0.970
     9   6 C    3.917 --     8 C    1.378    12 N    1.193    10 C    1.173
    10   6 C    3.955 --    11 C    1.645     9 C    1.173    30 H    0.975
    11   6 C    3.959 --    10 C    1.645    13 C    1.183    31 H    0.973
    12   7 N    3.383 --    13 C    1.252     9 C    1.193     1 Fe   0.661
    13   6 C    3.902 --    12 N    1.252    14 C    1.250    11 C    1.183
    14   6 C    3.923 --    15 C    1.251    13 C    1.250    76 C    1.205
    15   6 C    3.902 --    19 N    1.251    14 C    1.251    16 C    1.183
    16   6 C    3.959 --    17 C    1.645    15 C    1.183    32 H    0.973
    17   6 C    3.955 --    16 C    1.645    18 C    1.173    33 H    0.975
    18   6 C    3.917 --    20 C    1.377    19 N    1.193    17 C    1.173
    19   7 N    3.383 --    15 C    1.251    18 C    1.193     1 Fe   0.661
    20   6 C    3.928 --    18 C    1.377    21 C    1.354    34 H    0.970
    21   6 C    3.920 --    20 C    1.354    25 N    1.219    22 C    1.170
    22   6 C    3.961 --    23 C    1.655    21 C    1.170    35 H    0.975
    23   6 C    3.958 --    22 C    1.655    24 C    1.169    36 H    0.975
    24   6 C    3.924 --     2 C    1.364    25 N    1.214    23 C    1.169
    25   7 N    3.384 --    21 C    1.219    24 C    1.214     1 Fe   0.668
    26   1 H    1.000 --     2 C    0.971
    27   1 H    0.998 --     4 C    0.975
    28   1 H    0.997 --     5 C    0.975
    29   1 H    1.000 --     8 C    0.970
    30   1 H    0.997 --    10 C    0.975
    31   1 H    1.002 --    11 C    0.973
    32   1 H    1.002 --    16 C    0.973
    33   1 H    0.997 --    17 C    0.975
    34   1 H    1.000 --    20 C    0.970
    35   1 H    0.997 --    22 C    0.975
    36   1 H    0.998 --    23 C    0.975
    37  26 Fe   3.109 --    61 N    0.671    43 N    0.671    55 N    0.665
                            48 N    0.665
    38   6 C    3.925 --    60 C    1.364    39 C    1.364    62 H    0.971
    39   6 C    3.924 --    38 C    1.364    43 N    1.213    40 C    1.169
    40   6 C    3.958 --    41 C    1.655    39 C    1.169    63 H    0.975
    41   6 C    3.960 --    40 C    1.655    42 C    1.170    64 H    0.975
    42   6 C    3.920 --    44 C    1.356    43 N    1.217    41 C    1.170
    43   7 N    3.387 --    42 C    1.217    39 C    1.213    37 Fe   0.671
    44   6 C    3.931 --    45 C    1.376    42 C    1.356    65 H    0.970
    45   6 C    3.917 --    44 C    1.376    48 N    1.194    46 C    1.173
    46   6 C    3.955 --    47 C    1.645    45 C    1.173    66 H    0.975
    47   6 C    3.959 --    46 C    1.645    49 C    1.183    67 H    0.973
    48   7 N    3.386 --    49 C    1.248    45 C    1.194    37 Fe   0.665
    49   6 C    3.903 --    50 C    1.255    48 N    1.248    47 C    1.183
    50   6 C    3.928 --    51 C    1.255    49 C    1.255    84 C    1.197
    51   6 C    3.903 --    50 C    1.255    55 N    1.248    52 C    1.182
    52   6 C    3.959 --    53 C    1.645    51 C    1.182    68 H    0.973
    53   6 C    3.955 --    52 C    1.645    54 C    1.173    69 H    0.975
    54   6 C    3.917 --    56 C    1.376    55 N    1.194    53 C    1.173
    55   7 N    3.386 --    51 C    1.248    54 C    1.194    37 Fe   0.665
    56   6 C    3.931 --    54 C    1.376    57 C    1.356    70 H    0.970
    57   6 C    3.920 --    56 C    1.356    61 N    1.217    58 C    1.170
    58   6 C    3.960 --    59 C    1.655    57 C    1.170    71 H    0.975
    59   6 C    3.958 --    58 C    1.655    60 C    1.169    72 H    0.975
    60   6 C    3.924 --    38 C    1.364    61 N    1.213    59 C    1.169
    61   7 N    3.387 --    57 C    1.217    60 C    1.213    37 Fe   0.671
    62   1 H    1.000 --    38 C    0.971
    63   1 H    0.998 --    40 C    0.975
    64   1 H    0.998 --    41 C    0.975
    65   1 H    1.000 --    44 C    0.970
    66   1 H    0.997 --    46 C    0.975
    67   1 H    1.001 --    47 C    0.973
    68   1 H    1.001 --    52 C    0.973
    69   1 H    0.997 --    53 C    0.975
    70   1 H    1.000 --    56 C    0.970
    71   1 H    0.998 --    58 C    0.975
    72   1 H    0.998 --    59 C    0.975
    73   6 C    3.915 --    74 C    2.336    77 C    1.356    76 C    0.186
    74   6 C    3.912 --    73 C    2.336    75 C    1.355    78 C    0.186
    75   6 C    3.924 --    76 C    2.420    74 C    1.355
    76   6 C    3.875 --    75 C    2.420    14 C    1.205    73 C    0.186
    77   6 C    3.919 --    78 C    2.416    73 C    1.356
    78   6 C    3.877 --    77 C    2.416    86 C    1.210    74 C    0.186
    79   6 C    3.913 --    80 C    2.346    83 C    1.347    82 C    0.186
    80   6 C    3.916 --    79 C    2.346    81 C    1.348    84 C    0.186
    81   6 C    3.920 --    82 C    2.426    80 C    1.348
    82   6 C    3.879 --    81 C    2.426    98 C    1.203    79 C    0.186
    83   6 C    3.927 --    84 C    2.431    79 C    1.347
    84   6 C    3.876 --    83 C    2.431    50 C    1.197    80 C    0.186
    85  26 Fe   3.061 --   103 N    0.652    96 N    0.652    91 N    0.652
                           109 N    0.652
    86   6 C    3.908 --    87 C    1.246   108 C    1.246    78 C    1.210
    87   6 C    3.904 --    91 N    1.254    86 C    1.246    88 C    1.185
    88   6 C    3.959 --    89 C    1.641    87 C    1.185   110 H    0.973
    89   6 C    3.957 --    88 C    1.641    90 C    1.177   111 H    0.975
    90   6 C    3.915 --    92 C    1.367    91 N    1.198    89 C    1.177
    91   7 N    3.372 --    87 C    1.254    90 C    1.198    85 Fe   0.652
    92   6 C    3.920 --    90 C    1.367    93 C    1.364   112 H    0.970
    93   6 C    3.915 --    92 C    1.364    96 N    1.200    94 C    1.177
    94   6 C    3.957 --    95 C    1.641    93 C    1.177   113 H    0.975
    95   6 C    3.959 --    94 C    1.641    97 C    1.185   114 H    0.973
    96   7 N    3.373 --    97 C    1.251    93 C    1.200    85 Fe   0.652
    97   6 C    3.905 --    96 N    1.251    98 C    1.250    95 C    1.185
    98   6 C    3.909 --    99 C    1.250    97 C    1.250    82 C    1.203
    99   6 C    3.904 --   103 N    1.251    98 C    1.250   100 C    1.185
   100   6 C    3.959 --   101 C    1.641    99 C    1.185   115 H    0.973
   101   6 C    3.957 --   100 C    1.641   102 C    1.177   116 H    0.975
   102   6 C    3.915 --   104 C    1.364   103 N    1.200   101 C    1.177
   103   7 N    3.373 --    99 C    1.251   102 C    1.200    85 Fe   0.652
   104   6 C    3.920 --   105 C    1.367   102 C    1.364   117 H    0.970
   105   6 C    3.915 --   104 C    1.367   109 N    1.198   106 C    1.177
   106   6 C    3.957 --   107 C    1.641   105 C    1.177   118 H    0.975
   107   6 C    3.959 --   106 C    1.641   108 C    1.185   119 H    0.973
   108   6 C    3.904 --   109 N    1.254    86 C    1.246   107 C    1.185
   109   7 N    3.372 --   108 C    1.254   105 C    1.198    85 Fe   0.652
   110   1 H    1.001 --    88 C    0.973
   111   1 H    0.997 --    89 C    0.975
   112   1 H    1.001 --    92 C    0.970
   113   1 H    0.997 --    94 C    0.975
   114   1 H    1.001 --    95 C    0.973
   115   1 H    1.001 --   100 C    0.973
   116   1 H    0.997 --   101 C    0.975
   117   1 H    1.001 --   104 C    0.970
   118   1 H    0.997 --   106 C    0.975
   119   1 H    1.001 --   107 C    0.973
 ---------------------------------------------------------------------------

           -------------------------------------------------
          | TOTAL ENERGY             -216.455470540459 Eh   |
          | GRADIENT NORM               0.000738159781 Eh/α |
          | HOMO-LUMO GAP               0.061175094667 eV   |
           -------------------------------------------------

 * finished run on 2022/07/29 at 16:06:51.466
