   * xtb version 6.5.1 (b24c23e) compiled by 'conda@728c89f4b128' on 2022-07-12
          program call               : xtb PhCHO_C4_3.xyz --gfn 1 --opt -T 48

   ID    Z sym.   atoms
    1    6 C      1-5, 7-12, 14-18, 20-25, 27-32, 34-39, 62-66, 68-73, 75-79,
                  81-86, 88-93, 95-100, 123-135, 137-142, 144-148, 150-155,
                  157-162, 164-169
    2    7 N      6, 19, 26, 40, 67, 80, 87, 101, 136, 149, 156, 170
    3    8 O      13, 33, 74, 94, 143, 163
    4    1 H      41-61, 102-122, 171-190
########################################################################
[WARNING] Please study the warnings concerning your input carefully
-1- prog_main_parseArguments: Unknown option '-T' provided
########################################################################

          :  Hamiltonian                  GFN1-xTB          :
 * total energy  :  -329.8455260 Eh     change       -0.1421085E-08 Eh
 * total energy  :  -331.4207921 Eh     change       -0.1575266E+01 Eh
 * total energy  :  -331.6691239 Eh     change       -0.2483318E+00 Eh
 * total energy  :  -331.8103204 Eh     change       -0.1411964E+00 Eh
 * total energy  :  -331.8802776 Eh     change       -0.6995724E-01 Eh
 * total energy  :  -331.9205228 Eh     change       -0.4024522E-01 Eh
 * total energy  :  -331.9458947 Eh     change       -0.2537183E-01 Eh
 * total energy  :  -331.9630443 Eh     change       -0.1714965E-01 Eh
 * total energy  :  -331.9745454 Eh     change       -0.1150110E-01 Eh
 * total energy  :  -331.9833669 Eh     change       -0.8821508E-02 Eh
 * total energy  :  -332.0190336 Eh     change       -0.1034354E-04 Eh
 * total energy  :  -332.0190334 Eh     change        0.1136814E-06 Eh
 * total energy  :  -332.0190415 Eh     change       -0.8011163E-05 Eh
 * total energy  :  -332.0190393 Eh     change        0.2128342E-05 Eh
 * total energy  :  -332.0190434 Eh     change       -0.4060140E-05 Eh
 * total energy  :  -332.0190373 Eh     change        0.6072997E-05 Eh
 * total energy  :  -332.0190463 Eh     change       -0.8959595E-05 Eh
 * total energy  :  -332.0190518 Eh     change       -0.5568137E-05 Eh
 * total energy  :  -332.0190553 Eh     change       -0.3417076E-05 Eh
   *** GEOMETRY OPTIMIZATION CONVERGED AFTER 75 ITERATIONS ***

 final structure:
================
190
 xtb: 6.5.1 (b24c23e)
C           29.11744850567806       -0.08395048796604       -0.09185344894998
C           29.73550378020932       -1.29314177412080       -0.38267058754040
C           29.09287536249836       -2.51809084970664       -0.71792851651926
C           30.06054519550877       -3.46472380204983       -0.90251386196502
C           31.32579450905885       -2.85072500993226       -0.67567370863728
N           31.07936710137619       -1.54058150026805       -0.37947050359000
C           32.59268905408844       -3.44104020359726       -0.75236029255033
C           32.63570782950507       -4.89096753456390       -1.05146991763410
C           33.30390412291775       -5.36002663459170       -2.18708150241249
C           33.34128728471088       -6.71227367573885       -2.46652996276091
C           32.71541746320322       -7.62886545107649       -1.61497431416490
C           32.77200823827019       -9.06716815270002       -1.93314294082076
O           33.33128575836869       -9.51723769705011       -2.90024219382371
C           32.04911712390375       -7.16228573954889       -0.47925025951567
C           32.00768136726207       -5.80737363688454       -0.20282884556169
C           33.80331315183128       -2.76637084481801       -0.56903453131625
C           35.10381057648296       -3.41275969650653       -0.58508581293997
C           36.01651544508530       -2.43926768705998       -0.38851796237182
N           33.94657087765346       -1.43334746350668       -0.33900622346610
C           35.27237587422119       -1.20311061671081       -0.24100286366027
C           35.89873514134703        0.04345964612013       -0.04847065646256
C           35.25547938806065        1.27692335694224        0.15999432511913
C           35.89121607176649        2.53343295578070        0.34527867504902
C           34.91935521041774        3.46987605389331        0.56361615358658
C           33.65893081009805        2.81095720472608        0.52490154949790
N           33.91319682097865        1.49108213898838        0.26453819241951
C           32.39311245791232        3.38474858965765        0.69033017544840
C           32.35452874638921        4.82757589164262        1.01994766069878
C           32.97925496678962        5.30458990821915        2.17704695813402
C           32.94250189549187        6.65014464319909        2.48683495064270
C           32.28499810560501        7.55269785906702        1.64419565945462
C           32.26457206070806        8.98446719217146        1.99425617050413
O           32.79147709907198        9.44059421623017        2.97668050352756
C           31.66229308959912        7.07840155407263        0.48703029088654
C           31.69516991519460        5.72991606949797        0.18001640664146
C           31.18089663283662        2.69606166538210        0.56881824315989
C           29.87223800218928        3.29203565514889        0.79104100674662
C           28.96649608884484        2.31992979183251        0.56357043094179
C           29.72075403535253        1.12740240839170        0.21892877791396
N           31.05092371866894        1.38854657783355        0.24362640847521
H           28.03229998889431       -0.09815589834235       -0.10611921906514
H           28.02581593324144       -2.64380065968544       -0.80876051388856
H           29.91673961080761       -4.49601066387894       -1.18115766591952
H           31.79971556150436       -0.85287682244956       -0.18612826501967
H           33.77827917061276       -4.65141227634211       -2.85647853579314
H           33.85307715165667       -7.08305959063669       -3.34813051309385
H           32.24947804455164       -9.71722499226967       -1.19921485257821
H           31.56460443398197       -7.86652275498732        0.18928184148526
H           31.50308299069198       -5.45070217842917        0.68814217269757
H           35.27323831990888       -4.46937994061889       -0.71410170550711
H           37.09000000973752       -2.52426209834792       -0.33492498632434
H           36.95715063902869        2.69087337391126        0.31110359404640
H           35.05958600582665        4.52596892206342        0.72640249058317
H           33.19570971688356        0.78054603735528        0.16465767608635
H           33.47688772759943        4.60620456951836        2.84049463587007
H           33.41926681943753        7.02613004130866        3.38570797033099
H           31.71648868389477        9.62342197202078        1.26937898614531
H           31.15365318624065        7.77220908556734       -0.17442435891808
H           31.22437520441841        5.36779867206638       -0.72694366994808
H           29.69567303274960        4.31180474557952        1.09294067852732
H           27.89083579861698        2.37088810466561        0.62600502258190
C           62.74847365115615        0.09560895669162       -0.04413570714587
C           62.13032909957251        1.26456026385629        0.38028089747431
C           62.77257801263562        2.47645041690219        0.76075593580329
C           61.80509632539260        3.36922378565628        1.12604432616820
C           60.54036976791233        2.72821577398739        0.98866589182562
N           60.78695268466050        1.46690048253997        0.52698097328496
C           59.27360460854000        3.26792834996618        1.23969551856518
C           59.23180649265741        4.65089593970156        1.76899809680657
C           58.57617966937060        5.66274552928404        1.06046391488039
C           58.53759036222505        6.95087799268161        1.55796550288841
C           59.14969569965821        7.25743602528388        2.77793419884232
C           59.09045368481205        8.63835688711617        3.29044694310643
O           58.54133226606478        9.54297302906436        2.71532872059944
C           59.80483281150863        6.24775473992981        3.48704899825999
C           59.84769941960515        4.95914408729608        2.98553121922016
C           58.06256972990358        2.60172707076080        1.03091393772170
C           56.76139009354699        3.16393302067702        1.34769196383788
C           55.84898016206653        2.23182553774048        1.00466952916718
N           57.91973719339938        1.34471208657653        0.53096239143232
C           56.59393478764129        1.09697285173973        0.49368384234442
C           55.96809980550806       -0.08005800729559        0.04013097394105
C           56.60999492692369       -1.24716422587126       -0.41075577998129
C           55.97223043203477       -2.42478877157777       -0.88443483256035
C           56.94439877040584       -3.32409336541611       -1.22317445021701
C           58.20764038750747       -2.72497865725619       -0.95843836027531
N           57.95360829625039       -1.46901991446635       -0.47588374534393
C           59.47451446250656       -3.27730174523559       -1.17771117927045
C           59.51705321709624       -4.66556996090712       -1.69117741474484
C           58.94668914216297       -5.71154688675848       -0.95859897096685
C           58.98766857780829       -7.00538590147360       -1.44086401124168
C           59.59463920216505       -7.28390121653269       -2.67006475123138
C           59.62073779223014       -8.67197683841590       -3.16549735269933
O           59.14137715748078       -9.60377538270752       -2.57149442739126
C           60.16327326871130       -6.23994726241806       -3.40394728209221
C           60.12669385458275       -4.94540372329500       -2.91783389276519
C           60.68655437132632       -2.61476190453894       -0.95242479459848
C           61.99730412690844       -3.22027833670878       -1.13284973033100
C           62.90234413976476       -2.27228385683719       -0.81787317417195
C           62.14613188197580       -1.09329854560575       -0.43320057137598
N           60.81546239268681       -1.33964381427121       -0.51731874755374
H           63.83325037965591        0.12220146349525       -0.06698439187124
H           63.83924220872237        2.63362310254077        0.74647282439588
H           61.94826146121152        4.38658565724356        1.45220024084192
H           60.06687649851904        0.78280009366307        0.32017953857421
H           58.11208355284364        5.43154651738969        0.10841629956802
H           58.03492837677848        7.74202303098542        1.01203321681424
H           59.60033883840211        8.78429598261371        4.26668029765782
H           60.27917044823788        6.47571759787154        4.43609575997500
H           60.34369904144826        4.17485199057713        3.54638387940829
H           56.59099661842045        4.13385374406383        1.78581906614078
H           54.77523380471857        2.27810993945379        1.09034901213694
H           54.90463450735356       -2.55472543400637       -0.95879154543145
H           56.80226617879099       -4.31117187045864       -1.63176167545867
H           58.67233400375905       -0.80053940753659       -0.21853183298861
H           58.48850413407695       -5.50221511632489        0.00148321193764
H           58.55309124215403       -7.82264532642703       -0.87528803238589
H           60.12526374510795       -8.79610897666144       -4.14745400222456
H           60.63258312234137       -6.44637289069101       -4.36037870960304
H           60.55564437092256       -4.13541338914988       -3.49688697384167
H           62.17574008966456       -4.23710970713996       -1.44346630772053
H           63.97904353764967       -2.33714971943942       -0.82537518522520
C           38.52819642563291        0.08998423776243       -0.06378195053994
C           37.30700505831714        0.06982114673458       -0.05631796553703
C           39.87928794277097        0.09713358934647       -0.06623945606989
C           41.10073628843208        0.09190129321671       -0.06329670026462
C           51.98627885092102       -0.10546416533461        0.00722187603409
C           50.76522994838259       -0.08921271533671       -0.00634512919491
C           53.33787706825932       -0.10934566116032        0.02051537562054
C           54.55894410855456       -0.10214636124768        0.03337330521084
C           42.50839802658653        0.07334211431244       -0.05423732111179
C           43.15378182240085        1.02145097869172       -0.86880327003893
C           42.52419023165375        1.96748298597263       -1.71923828980702
C           43.50357409134281        2.69792904997926       -2.33404524781078
C           44.76111267609226        2.22525929644977       -1.86772461138554
N           44.49877269924956        1.20718432357427       -0.99123064560377
C           46.03141886698067        2.68140620621755       -2.23972621845969
C           46.07432886339070        3.81218391883273       -3.19717241774133
C           46.68376461650226        3.65471207516937       -4.44591143581447
C           46.72019100395702        4.70521780051427       -5.34215897958635
C           46.15415976869251        5.94015927778004       -5.00848571803987
C           46.20814254567343        7.04651715937930       -5.98161891223573
O           46.70994163842877        6.95391272779734       -7.07250539970071
C           45.54859758782589        6.10004923456224       -3.75987641390655
C           45.50609868589081        5.04524210759764       -2.86544039798617
C           47.24534367716820        2.15883325303463       -1.78745566639922
C           48.54345607312137        2.70650862185665       -2.14102719594967
C           49.46300979314577        1.94354204610465       -1.51559525674179
N           47.39693588369679        1.09855161107427       -0.94925570840773
C           48.72575095193489        0.93671006363639       -0.77708560968499
C           49.35693593685596       -0.06546247637208       -0.01664750010952
C           48.71035823206685       -1.05451363295647        0.74657076051976
C           49.33847191173864       -2.08064196665458        1.49980537340838
C           48.35932896342379       -2.80746304157856        2.11901294104693
C           47.10367841736510       -2.23969314970219        1.76788168572324
N           47.36607327454584       -1.19201331230081        0.92736434561276
C           45.83460270409703       -2.66936174286674        2.17459764662191
C           45.79650883781764       -3.80057110007845        3.13140466469782
C           45.15822312764315       -4.99628173657198        2.79018038573999
C           45.12129884162710       -6.05123545920332        3.68449307827854
C           45.71861358460863       -5.92986346230989        4.94145707535220
C           45.68984259087689       -7.03710143597085        5.91457024525333
O           46.19136978283186       -6.97954145165688        7.00804298291091
C           46.35643538179907       -4.73298804389591        5.28396446582320
C           46.39765898829327       -3.68196641929286        4.38846815527740
C           44.62057212725355       -2.11684710741506        1.76038041631667
C           43.32362663895618       -2.55361004520059        2.24692556168359
C           42.40410122911190       -1.79227116628927        1.61933474418244
C           43.14074990850823       -0.88398274017099        0.76210196686969
N           44.46846601893051       -1.09532817688942        0.87480882219540
H           41.45780137157612        2.06432398990051       -1.84401442035525
H           43.36898439908668        3.48769077870067       -3.05491147214074
H           45.20931818203377        0.66395080191867       -0.51238041506845
H           47.11314038849327        2.69536356225590       -4.71152016406736
H           47.18523037623392        4.58909331324793       -6.31522300644843
H           45.74132178258978        7.98975694935014       -5.62601000125812
H           45.11136489196369        7.05613248023261       -3.49095803490032
H           45.04715249260777        5.17704279290234       -1.89200426785700
H           48.70626781709810        3.56688751830419       -2.76950535448521
H           50.53716990803485        2.03497670989695       -1.53094012578161
H           50.40371708291866       -2.23744778470109        1.55193882485809
H           48.49238743987141       -3.66700002946443        2.75533339665671
H           46.65664598857818       -0.60427756259732        0.50245799720323
H           44.70491744266523       -5.09802147679420        1.81066821671831
H           44.62808376438880       -6.97771894041733        3.40906464268058
H           45.16051598685622       -7.94560997053038        5.55626117944500
H           46.81396308682654       -4.64595322814670        6.26359959468173
H           46.88005178153582       -2.75058924470553        4.66298267275696
H           43.16064201447278       -3.32726483167597        2.97948973358154
H           41.33066230950625       -1.81549273795429        1.71735184319477

          :  Hamiltonian                  GFN1-xTB          :
         :: total energy            -332.019055257235 Eh    ::
         :: gradient norm              0.000229425241 Eh/a0 ::
         :: HOMO-LUMO gap              0.994174207371 eV    ::
         :: SCC energy              -337.341384371521 Eh    ::
         :: repulsion energy           5.484510379865 Eh    ::

    * Orbital Energies and Occupations

         #    Occupation            Energy/Eh            Energy/eV
      -------------------------------------------------------------
         1        2.0000           -0.8184946             -22.2724
       ...           ...                  ...                  ...
       287        2.0000           -0.4311113             -11.7311
       288        2.0000           -0.4309095             -11.7256
       289        2.0000           -0.4306796             -11.7194
       290        2.0000           -0.4296189             -11.6905
       291        2.0000           -0.4286885             -11.6652
       292        2.0000           -0.4284432             -11.6585
       293        2.0000           -0.4278848             -11.6433
       294        2.0000           -0.4130748             -11.2403
       295        2.0000           -0.4125775             -11.2268
       296        2.0000           -0.4116757             -11.2023
       297        2.0000           -0.4007715             -10.9055
       298        2.0000           -0.3969359             -10.8012
       299        2.0000           -0.3920158             -10.6673 (HOMO)
       300                         -0.3554806              -9.6731 (LUMO)
       301                         -0.3492398              -9.5033
       302                         -0.3480197              -9.4701
       303                         -0.3474795              -9.4554
       304                         -0.3463490              -9.4246
       305                         -0.3437512              -9.3539
       306                         -0.3299246              -8.9777
       307                         -0.3291915              -8.9578
       308                         -0.3285078              -8.9392
       309                         -0.3241496              -8.8206
       310                         -0.3241086              -8.8194
       ...                                ...                  ...
       636                          1.5038134              40.9208
      -------------------------------------------------------------
                  HL-Gap            0.0365352 Eh            0.9942 eV

Wiberg/Mayer (AO) data.
largest (>0.10) Wiberg bond orders for each atom

     #   Z sym  total        # sym  WBO       # sym  WBO       # sym  WBO
 ---------------------------------------------------------------------------
     1   6 C    3.928 --    39 C    1.367     2 C    1.347    41 H    0.970
     2   6 C    3.901 --     1 C    1.347     3 C    1.229     6 N    1.169
     3   6 C    3.954 --     4 C    1.597     2 C    1.229    42 H    0.976
     4   6 C    3.959 --     3 C    1.597     5 C    1.233    43 H    0.974
     5   6 C    3.897 --     7 C    1.301     4 C    1.233     6 N    1.179
     6   7 N    3.471 --     5 C    1.179     2 C    1.169    44 H    0.873
     7   6 C    3.938 --    16 C    1.330     5 C    1.301     8 C    1.036
     8   6 C    3.986 --    15 C    1.382     9 C    1.379     7 C    1.036
     9   6 C    3.987 --    10 C    1.472     8 C    1.379    45 H    0.971
    10   6 C    3.988 --     9 C    1.472    11 C    1.369    46 H    0.968
    11   6 C    3.982 --    14 C    1.378    10 C    1.369    12 C    1.049
    12   6 C    3.864 --    13 O    1.808    11 C    1.049    47 H    0.942
    13   8 O    2.003 --    12 C    1.808
    14   6 C    3.993 --    15 C    1.466    11 C    1.378    48 H    0.971
    15   6 C    3.986 --    14 C    1.466     8 C    1.382    49 H    0.972
    16   6 C    3.914 --     7 C    1.330    19 N    1.291    17 C    1.124
    17   6 C    3.966 --    18 C    1.712    16 C    1.124    50 H    0.973
    18   6 C    3.964 --    17 C    1.712    20 C    1.127    51 H    0.974
    19   7 N    3.022 --    20 C    1.338    16 C    1.291
    20   6 C    3.910 --    19 N    1.338    21 C    1.261    18 C    1.127
    21   6 C    3.938 --    20 C    1.261    22 C    1.257   124 C    1.179
    22   6 C    3.886 --    21 C    1.257    23 C    1.247    26 N    1.187
    23   6 C    3.959 --    24 C    1.585    22 C    1.247    52 H    0.975
    24   6 C    3.955 --    23 C    1.585    25 C    1.239    53 H    0.974
    25   6 C    3.898 --    27 C    1.306    24 C    1.239    26 N    1.168
    26   7 N    3.475 --    22 C    1.187    25 C    1.168    54 H    0.872
    27   6 C    3.925 --    36 C    1.318    25 C    1.306    28 C    1.037
    28   6 C    3.986 --    35 C    1.381    29 C    1.378    27 C    1.037
    29   6 C    3.986 --    30 C    1.472    28 C    1.378    55 H    0.972
    30   6 C    3.988 --    29 C    1.472    31 C    1.369    56 H    0.968
    31   6 C    3.982 --    34 C    1.378    30 C    1.369    32 C    1.050
    32   6 C    3.864 --    33 O    1.807    31 C    1.050    57 H    0.942
    33   8 O    2.003 --    32 C    1.807
    34   6 C    3.993 --    35 C    1.466    31 C    1.378    58 H    0.971
    35   6 C    3.986 --    34 C    1.466    28 C    1.381    59 H    0.971
    36   6 C    3.928 --    40 N    1.319    27 C    1.318    37 C    1.116
    37   6 C    3.967 --    38 C    1.724    36 C    1.116    60 H    0.973
    38   6 C    3.966 --    37 C    1.724    39 C    1.116    61 H    0.975
    39   6 C    3.928 --     1 C    1.367    40 N    1.299    38 C    1.116
    40   7 N    3.014 --    36 C    1.319    39 C    1.299
    41   1 H    1.002 --     1 C    0.970
    42   1 H    0.997 --     3 C    0.976
    43   1 H    1.004 --     4 C    0.974
    44   1 H    0.986 --     6 N    0.873
    45   1 H    1.004 --     9 C    0.971
    46   1 H    1.005 --    10 C    0.968
    47   1 H    1.010 --    12 C    0.942
    48   1 H    1.000 --    14 C    0.971
    49   1 H    1.004 --    15 C    0.972
    50   1 H    1.004 --    17 C    0.973
    51   1 H    1.002 --    18 C    0.974
    52   1 H    1.002 --    23 C    0.975
    53   1 H    1.004 --    24 C    0.974
    54   1 H    0.987 --    26 N    0.872
    55   1 H    1.004 --    29 C    0.972
    56   1 H    1.005 --    30 C    0.968
    57   1 H    1.010 --    32 C    0.942
    58   1 H    1.000 --    34 C    0.971
    59   1 H    1.004 --    35 C    0.971
    60   1 H    1.004 --    37 C    0.973
    61   1 H    0.998 --    38 C    0.975
    62   6 C    3.928 --   100 C    1.367    63 C    1.347   102 H    0.970
    63   6 C    3.901 --    62 C    1.347    64 C    1.229    67 N    1.169
    64   6 C    3.954 --    65 C    1.597    63 C    1.229   103 H    0.976
    65   6 C    3.959 --    64 C    1.597    66 C    1.233   104 H    0.974
    66   6 C    3.897 --    68 C    1.302    65 C    1.233    67 N    1.179
    67   7 N    3.471 --    66 C    1.179    63 C    1.169   105 H    0.873
    68   6 C    3.938 --    77 C    1.330    66 C    1.302    69 C    1.035
    69   6 C    3.986 --    76 C    1.382    70 C    1.379    68 C    1.035
    70   6 C    3.987 --    71 C    1.471    69 C    1.379   106 H    0.971
    71   6 C    3.988 --    70 C    1.471    72 C    1.369   107 H    0.968
                            76 C    0.100
    72   6 C    3.982 --    75 C    1.378    71 C    1.369    73 C    1.049
    73   6 C    3.864 --    74 O    1.808    72 C    1.049   108 H    0.942
    74   8 O    2.003 --    73 C    1.808
    75   6 C    3.993 --    76 C    1.466    72 C    1.378   109 H    0.971
    76   6 C    3.986 --    75 C    1.466    69 C    1.382   110 H    0.972
                            71 C    0.100
    77   6 C    3.915 --    68 C    1.330    80 N    1.291    78 C    1.123
    78   6 C    3.966 --    79 C    1.712    77 C    1.123   111 H    0.973
    79   6 C    3.965 --    78 C    1.712    81 C    1.126   112 H    0.974
    80   7 N    3.023 --    81 C    1.338    77 C    1.291
    81   6 C    3.910 --    80 N    1.338    82 C    1.262    79 C    1.126
    82   6 C    3.938 --    81 C    1.262    83 C    1.259   130 C    1.175
    83   6 C    3.887 --    82 C    1.259    84 C    1.246    87 N    1.186
    84   6 C    3.959 --    85 C    1.586    83 C    1.246   113 H    0.975
    85   6 C    3.956 --    84 C    1.586    86 C    1.239   114 H    0.974
    86   6 C    3.898 --    88 C    1.307    85 C    1.239    87 N    1.168
    87   7 N    3.475 --    83 C    1.186    86 C    1.168   115 H    0.872
    88   6 C    3.926 --    97 C    1.317    86 C    1.307    89 C    1.037
    89   6 C    3.986 --    96 C    1.381    90 C    1.379    88 C    1.037
    90   6 C    3.986 --    91 C    1.472    89 C    1.379   116 H    0.972
    91   6 C    3.988 --    90 C    1.472    92 C    1.369   117 H    0.968
                            96 C    0.100
    92   6 C    3.982 --    95 C    1.377    91 C    1.369    93 C    1.050
    93   6 C    3.864 --    94 O    1.807    92 C    1.050   118 H    0.942
    94   8 O    2.003 --    93 C    1.807
    95   6 C    3.993 --    96 C    1.466    92 C    1.377   119 H    0.971
    96   6 C    3.987 --    95 C    1.466    89 C    1.381   120 H    0.971
                            91 C    0.100
    97   6 C    3.928 --   101 N    1.320    88 C    1.317    98 C    1.116
    98   6 C    3.967 --    99 C    1.724    97 C    1.116   121 H    0.973
    99   6 C    3.966 --    98 C    1.724   100 C    1.116   122 H    0.975
   100   6 C    3.928 --    62 C    1.367   101 N    1.299    99 C    1.116
   101   7 N    3.015 --    97 C    1.320   100 C    1.299
   102   1 H    1.002 --    62 C    0.970
   103   1 H    0.997 --    64 C    0.976
   104   1 H    1.004 --    65 C    0.974
   105   1 H    0.986 --    67 N    0.873
   106   1 H    1.004 --    70 C    0.971
   107   1 H    1.005 --    71 C    0.968
   108   1 H    1.010 --    73 C    0.942
   109   1 H    1.000 --    75 C    0.971
   110   1 H    1.004 --    76 C    0.972
   111   1 H    1.004 --    78 C    0.973
   112   1 H    1.002 --    79 C    0.974
   113   1 H    1.002 --    84 C    0.975
   114   1 H    1.004 --    85 C    0.974
   115   1 H    0.987 --    87 N    0.872
   116   1 H    1.004 --    90 C    0.972
   117   1 H    1.005 --    91 C    0.968
   118   1 H    1.010 --    93 C    0.942
   119   1 H    1.000 --    95 C    0.971
   120   1 H    1.004 --    96 C    0.971
   121   1 H    1.004 --    98 C    0.973
   122   1 H    0.998 --    99 C    0.975
   123   6 C    3.932 --   124 C    2.484   125 C    1.300
   124   6 C    3.920 --   123 C    2.484    21 C    1.179   126 C    0.197
   125   6 C    3.929 --   126 C    2.483   123 C    1.300
   126   6 C    3.921 --   125 C    2.483   131 C    1.181   124 C    0.197
   127   6 C    3.929 --   128 C    2.486   129 C    1.297
   128   6 C    3.920 --   127 C    2.486   151 C    1.178   130 C    0.197
   129   6 C    3.932 --   130 C    2.487   127 C    1.297
   130   6 C    3.919 --   129 C    2.487    82 C    1.175   128 C    0.197
   131   6 C    3.928 --   169 C    1.260   132 C    1.254   126 C    1.181
   132   6 C    3.887 --   131 C    1.254   133 C    1.250   136 N    1.187
   133   6 C    3.956 --   134 C    1.580   132 C    1.250   171 H    0.975
   134   6 C    3.956 --   133 C    1.580   135 C    1.243   172 H    0.974
   135   6 C    3.894 --   137 C    1.300   134 C    1.243   136 N    1.168
   136   7 N    3.472 --   132 C    1.187   135 C    1.168   173 H    0.873
   137   6 C    3.927 --   146 C    1.332   135 C    1.300   138 C    1.033
   138   6 C    3.986 --   145 C    1.384   139 C    1.380   137 C    1.033
   139   6 C    3.987 --   140 C    1.471   138 C    1.380   174 H    0.972
   140   6 C    3.988 --   139 C    1.471   141 C    1.370   175 H    0.968
                           145 C    0.100
   141   6 C    3.983 --   144 C    1.379   140 C    1.370   142 C    1.049
   142   6 C    3.864 --   143 O    1.808   141 C    1.049   176 H    0.942
   143   8 O    2.004 --   142 C    1.808
   144   6 C    3.993 --   145 C    1.465   141 C    1.379   177 H    0.971
   145   6 C    3.987 --   144 C    1.465   138 C    1.384   178 H    0.972
                           140 C    0.100
   146   6 C    3.916 --   137 C    1.332   149 N    1.291   147 C    1.123
   147   6 C    3.967 --   148 C    1.713   146 C    1.123   179 H    0.973
   148   6 C    3.965 --   147 C    1.713   150 C    1.127   180 H    0.974
   149   7 N    3.012 --   150 C    1.337   146 C    1.291
   150   6 C    3.911 --   149 N    1.337   151 C    1.263   148 C    1.127
   151   6 C    3.928 --   150 C    1.263   152 C    1.254   128 C    1.178
   152   6 C    3.887 --   151 C    1.254   153 C    1.250   156 N    1.187
   153   6 C    3.956 --   154 C    1.581   152 C    1.250   181 H    0.975
   154   6 C    3.956 --   153 C    1.581   155 C    1.243   182 H    0.974
   155   6 C    3.894 --   157 C    1.299   154 C    1.243   156 N    1.169
   156   7 N    3.472 --   152 C    1.187   155 C    1.169   183 H    0.873
   157   6 C    3.928 --   166 C    1.333   155 C    1.299   158 C    1.034
   158   6 C    3.986 --   159 C    1.383   165 C    1.380   157 C    1.034
   159   6 C    3.987 --   160 C    1.465   158 C    1.383   184 H    0.972
                           164 C    0.100
   160   6 C    3.993 --   159 C    1.465   161 C    1.378   185 H    0.971
   161   6 C    3.982 --   160 C    1.378   164 C    1.370   162 C    1.049
   162   6 C    3.864 --   163 O    1.808   161 C    1.049   186 H    0.942
   163   8 O    2.004 --   162 C    1.808
   164   6 C    3.988 --   165 C    1.471   161 C    1.370   187 H    0.968
                           159 C    0.100
   165   6 C    3.986 --   164 C    1.471   158 C    1.380   188 H    0.972
   166   6 C    3.916 --   157 C    1.333   170 N    1.289   167 C    1.123
   167   6 C    3.966 --   168 C    1.712   166 C    1.123   189 H    0.973
   168   6 C    3.964 --   167 C    1.712   169 C    1.127   190 H    0.974
   169   6 C    3.910 --   170 N    1.339   131 C    1.260   168 C    1.127
   170   7 N    3.012 --   169 C    1.339   166 C    1.289
   171   1 H    1.002 --   133 C    0.975
   172   1 H    1.004 --   134 C    0.974
   173   1 H    0.987 --   136 N    0.873
   174   1 H    1.004 --   139 C    0.972
   175   1 H    1.005 --   140 C    0.968
   176   1 H    1.010 --   142 C    0.942
   177   1 H    1.000 --   144 C    0.971
   178   1 H    1.004 --   145 C    0.972
   179   1 H    1.004 --   147 C    0.973
   180   1 H    1.002 --   148 C    0.974
   181   1 H    1.001 --   153 C    0.975
   182   1 H    1.004 --   154 C    0.974
   183   1 H    0.987 --   156 N    0.873
   184   1 H    1.004 --   159 C    0.972
   185   1 H    1.000 --   160 C    0.971
   186   1 H    1.010 --   162 C    0.942
   187   1 H    1.005 --   164 C    0.968
   188   1 H    1.004 --   165 C    0.972
   189   1 H    1.004 --   167 C    0.973
   190   1 H    1.002 --   168 C    0.974
 ---------------------------------------------------------------------------

           -------------------------------------------------
          | TOTAL ENERGY             -332.019055257235 Eh   |
          | GRADIENT NORM               0.000229425241 Eh/α |
          | HOMO-LUMO GAP               0.994174207371 eV   |
           -------------------------------------------------

 * finished run on 2022/07/30 at 07:07:57.250
