   * xtb version 6.5.1 (b24c23e) compiled by 'conda@728c89f4b128' on 2022-07-12
          program call               : xtb Ni_H_C2_4.xyz --gfn 1 --opt -T 48

   ID    Z sym.   atoms
    1   28 Ni     1, 37, 79, 114
    2    6 C      2-6, 8-11, 13-18, 20-24, 38-42, 44-47, 49-54, 56-60, 73-78,
                  80-84, 86-89, 91-96, 98-102, 115-119, 121-124, 126-131,
                  133-137
    3    7 N      7, 12, 19, 25, 43, 48, 55, 61, 85, 90, 97, 103, 120, 125,
                  132, 138
    4    1 H      26-36, 62-72, 104-113, 139-148

          :  Hamiltonian                  GFN1-xTB          :
 * total energy  :  -270.6846669 Eh     change       -0.1484767E-07 Eh
 * total energy  :  -271.3731606 Eh     change       -0.6884937E+00 Eh
 * total energy  :  -271.6014733 Eh     change       -0.2283127E+00 Eh
 * total energy  :  -271.7476829 Eh     change       -0.1462096E+00 Eh
 * total energy  :  -271.8314072 Eh     change       -0.8372429E-01 Eh
 * total energy  :  -271.8754055 Eh     change       -0.4399838E-01 Eh
 * total energy  :  -271.9058014 Eh     change       -0.3039589E-01 Eh
 * total energy  :  -271.9278691 Eh     change       -0.2206772E-01 Eh
 * total energy  :  -271.9439708 Eh     change       -0.1610164E-01 Eh
 * total energy  :  -271.9550466 Eh     change       -0.1107584E-01 Eh
 * total energy  :  -271.9718094 Eh     change       -0.8459177E-05 Eh
 * total energy  :  -271.9718218 Eh     change       -0.1240761E-04 Eh
 * total energy  :  -271.9718357 Eh     change       -0.1387684E-04 Eh
 * total energy  :  -271.9718486 Eh     change       -0.1289026E-04 Eh
 * total energy  :  -271.9718612 Eh     change       -0.1263283E-04 Eh
 * total energy  :  -271.9718716 Eh     change       -0.1041187E-04 Eh
 * total energy  :  -271.9718810 Eh     change       -0.9408817E-05 Eh
 * total energy  :  -271.9718895 Eh     change       -0.8496345E-05 Eh
 * total energy  :  -271.9718928 Eh     change       -0.3258239E-05 Eh
   *** GEOMETRY OPTIMIZATION CONVERGED AFTER 94 ITERATIONS ***

 final structure:
================
148
 xtb: 6.5.1 (b24c23e)
Ni          28.10064011462336       -0.01902697453472       -0.03093740152991
C           24.69080852018868       -0.10185339282319        0.01605612849895
C           25.34666177124505       -0.85375103513746       -0.93681798220047
C           24.67461592103933       -1.66275083636361       -1.91070293826687
C           25.63431846694712       -2.19788908832702       -2.70072509065093
C           26.89043659007383       -1.71979197922424       -2.20342880616238
N           26.70550098351668       -0.90396831143572       -1.11665348759411
C           28.10807367850765       -2.03691070804074       -2.76853770109421
C           29.32256503348240       -1.60339547645614       -2.27948462407267
C           30.57939859657026       -1.95229630742334       -2.86735922190449
C           31.53793181636798       -1.39015597148367       -2.09321428247557
N           29.50787501129489       -0.82272307920897       -1.16226196775395
C           30.86424978076809       -0.70033787057199       -1.03651296835976
C           31.53190354104254       -0.01019920187887       -0.02162568792059
C           30.85490873413335        0.69230093573790        0.97841137182606
C           31.51914459156297        1.41221953981083        2.02086123863223
C           30.55424984154389        2.00747355381029        2.76171241476140
C           29.30263653964900        1.63981136916135        2.17422793356134
N           29.49747107281965        0.82122309532681        1.08619830691107
C           28.08285812437505        2.07517377376412        2.64849332821629
C           26.86782112665702        1.69600248148530        2.11714960945439
C           25.60366398056662        2.12972073516317        2.63428118212318
C           24.65040366003297        1.50676093645688        1.90297736548818
C           25.33475921452975        0.69965736888896        0.93618712839122
N           26.69368671732871        0.82933047000787        1.06838000621781
H           23.60768500310844       -0.13318613517534        0.03518034021408
H           23.60454357082776       -1.78535394443654       -1.96710954828908
H           25.52537814751621       -2.85741947123136       -3.54714904815217
H           28.11220062163072       -2.67301367833592       -3.64612683615879
H           30.69292698428956       -2.55284625066579       -3.75580517212492
H           32.60820562629881       -1.42589561850856       -2.21562216820323
H           32.58807661946918        1.44732268778614        2.15478396657712
H           30.66013112686615        2.63766698275927        3.63036206600903
H           28.07956540753923        2.74620633215304        3.49968785639517
H           25.48525133947630        2.81815813548416        3.45605974393242
H           23.57752165681123        1.57286868863179        1.99140787039755
Ni          60.80826341465881        0.00046707454085       -0.03722389108439
C           64.21828162265362        0.01208240446941        0.06939261622906
C           63.56172502984978        1.22406759916711        0.12862894594069
C           64.23317349514416        2.48693876032096        0.22240939635749
C           63.27061400233968        3.43769234294521        0.25431398641772
C           62.01354526847685        2.75277061226650        0.18791287709319
N           62.20129539668539        1.39677046319063        0.10386691791682
C           60.79162287073220        3.39093099734297        0.23321146466839
C           59.57736655887881        2.73764389897760        0.20223377260174
C           58.31756129510443        3.41130063220185        0.28101992981325
C           57.36202142593199        2.45367908687074        0.21857658665042
N           59.39676002883681        1.37856211844378        0.09310943330276
C           58.04066307361562        1.19999224675895        0.09812918072215
C           57.37669927571020       -0.02168930698408       -0.03584963828009
C           58.05593382526590       -1.23201070928477       -0.19403790870752
C           57.39352260966304       -2.49012927476254       -0.35185835030067
C           58.36155470048596       -3.42979222446875       -0.47018307326130
C           59.61266287860045       -2.74222767797631       -0.37444854259563
N           59.41429416980970       -1.39126175231837       -0.20935320110585
C           60.83501429060601       -3.37955041953705       -0.41715895399698
C           62.04762032992291       -2.73436818208070       -0.29153130306889
C           63.31186887263914       -3.40908031383109       -0.30343621169715
C           64.26178938435501       -2.45702493573127       -0.15264355408472
C           63.57563800529803       -1.20225938759166       -0.05658396018531
N           62.21825482132154       -1.38241318954753       -0.13605143720581
H           65.30125448685465        0.01513010860847        0.11051216059125
H           65.30460100019351        2.60628212948627        0.25534276166912
H           63.37808884992656        4.50879573835724        0.32117777524318
H           60.78431992638865        4.47203161973199        0.31058348363414
H           58.20039947411863        4.47941148143662        0.37223646017201
H           56.29052976438345        2.56940157932818        0.24145481246423
H           56.32357003520201       -2.62052919455583       -0.36515029425845
H           58.25832605581224       -4.49492779861105       -0.60343544292693
H           60.84174861420510       -4.45595099553491       -0.54429042787880
H           63.43252392282167       -4.47533364271296       -0.41218392171627
H           65.33366969484022       -2.56992199191752       -0.11243677684188
C           32.94198089653573       -0.01196064416397       -0.01484262742134
C           34.15799975383779       -0.01155225658612       -0.01460494191683
C           43.84446013664787       -0.02587694906433       -0.01348707565784
C           45.06075204240522       -0.02037297705708       -0.00578953630816
C           54.75049772933336       -0.03071121062850       -0.01880490851340
C           55.96635823231206       -0.03061966652400       -0.02563912843773
Ni          39.00135836018165       -0.02220843706692       -0.01067954837529
C           35.56762661316049       -0.01421058478804       -0.01348986890569
C           36.24416389789624        1.01295111529117        0.64982060385676
C           35.58229390417463        2.09154193656594        1.31628415019718
C           36.54563284676217        2.83038597524432        1.91734064617250
C           37.79321286557693        2.20212344691245        1.61003344662541
N           37.59961406584913        1.10180420366400        0.80803855228642
C           39.00542761590417        2.62093258522858        2.11717831050368
C           40.21626264024458        2.03544201536547        1.81276255935838
C           41.46597398244163        2.47027359352452        2.35564180079608
C           42.42713539847986        1.72662598938702        1.75706647731096
N           40.40670310310928        1.01741167083972        0.90760830093597
C           41.76179273158944        0.84457206553519        0.84886291740359
C           42.43520976604821       -0.02558331990048       -0.01309067214951
C           41.75889573502916       -0.89742403881325       -0.87101120767465
C           42.42136225041381       -1.78618906861729       -1.77477325526758
C           41.45814726412463       -2.53356449884711       -2.36543818986210
C           40.20991911248021       -2.09277375084760       -1.82395490997015
N           40.40344163768609       -1.06910970783241       -0.92587161846690
C           38.99701798530216       -2.67470685283106       -2.12723194032219
C           37.78531683077117       -2.24627244270265       -1.62696537317284
C           36.53492423840567       -2.86709561106744       -1.93796134008780
C           35.57393974571374       -2.12059971601848       -1.34257129969190
C           36.24010513187118       -1.04512673807861       -0.67538074278826
N           37.59539178724292       -1.14232246394660       -0.82905536316079
H           34.51591852180495        2.24842187022689        1.31548068019360
H           36.44061094068096        3.71901754904390        2.51914389633338
H           39.00648731158361        3.46478647581834        2.79751018993186
H           41.57422026589152        3.24770793673857        3.09505638992848
H           43.49414186008548        1.76026644010019        1.90553411835838
H           43.48803704586475       -1.82209150009435       -1.92524589879383
H           41.56402184462979       -3.31681235090021       -3.09905063827794
H           38.99566581763470       -3.52231780395966       -2.80288830126186
H           36.42614593620952       -3.75607132597735       -2.53858802258811
H           34.50660721424413       -2.27073561839127       -1.34615004441180
Ni          49.90551398512898       -0.03617095226874        0.00779163238487
C           46.47002923171124       -0.02454805994585       -0.00059732914242
C           47.14712071662478        1.09371530675080        0.49359442228964
C           46.48437929991175        2.26216130969625        0.98464651541125
C           47.44793656108962        3.09076428975675        1.45358603228370
C           48.69667477919675        2.42712382766777        1.23928058967604
N           48.50290962189224        1.21013537218037        0.62841085493089
C           49.91154729864790        2.93713002461391        1.64603006931580
C           51.12514801188874        2.32150920001018        1.42239539301135
C           52.37788562699223        2.86199274970949        1.85174680612140
C           53.33885786977983        2.03002124300290        1.38334674706377
N           51.31363175506639        1.15723313579044        0.71519410981432
C           52.66975663719843        0.98693843042483        0.66913674070689
C           53.34055571575237       -0.03360177781400       -0.00950916455566
C           52.66411834777924       -1.05850671453227       -0.67575783765839
C           53.32727436155374       -2.10644486656825       -1.38833494708320
C           52.36337545824350       -2.94844581405931       -1.83216822864669
C           51.11450978038810       -2.40702488906051       -1.39300620178446
N           51.30802148887634       -1.23385283278744       -0.70219931762330
C           49.89950935132612       -3.02576459203325       -1.59999165552383
C           48.68661651690422       -2.50564196390455       -1.20054932460545
C           47.43449171132001       -3.16280347666845       -1.41457808378745
C           46.47388228794018       -2.31966102494224       -0.96601187019660
C           47.14215927330569       -1.15063236540907       -0.48401116596183
N           48.49788739947628       -1.27919637791402       -0.60693118976141
H           45.41731166437286        2.41296573737947        0.96629179854960
H           47.34243571567216        4.06363069186078        1.90665671771538
H           49.91318178463994        3.88532683780366        2.17126867467849
H           52.48768195863458        3.76420125595818        2.43210672325927
H           54.40786159731807        2.10155833451512        1.50220440464362
H           54.39470745819020       -2.17489501891186       -1.52193897042965
H           52.46885128039101       -3.85701396478943       -2.40332700506159
H           49.89790105077042       -3.98117104786613       -2.11197658924817
H           47.32445639425034       -4.14079098296244       -1.85531309840489
H           45.40551794379760       -2.46158901184293       -0.95463243615719

          :  Hamiltonian                  GFN1-xTB          :
         :: total energy            -271.971892769008 Eh    ::
         :: gradient norm              0.000541813283 Eh/a0 ::
         :: HOMO-LUMO gap              1.010610351839 eV    ::
         :: SCC energy              -276.135936692517 Eh    ::
         :: repulsion energy           4.301506012161 Eh    ::

    * Orbital Energies and Occupations

         #    Occupation            Energy/Eh            Energy/eV
      -------------------------------------------------------------
         1        2.0000           -0.7827137             -21.2987
       ...           ...                  ...                  ...
       241        2.0000           -0.3983261             -10.8390
       242        2.0000           -0.3982108             -10.8359
       243        2.0000           -0.3981398             -10.8339
       244        2.0000           -0.3978976             -10.8273
       245        2.0000           -0.3978902             -10.8271
       246        2.0000           -0.3978634             -10.8264
       247        2.0000           -0.3978136             -10.8251
       248        2.0000           -0.3969841             -10.8025
       249        2.0000           -0.3969490             -10.8015
       250        2.0000           -0.3968626             -10.7992
       251        2.0000           -0.3968261             -10.7982
       252        2.0000           -0.3902936             -10.6204
       253        2.0000           -0.3833157             -10.4306 (HOMO)
       254                         -0.3461765              -9.4199 (LUMO)
       255                         -0.3382046              -9.2030
       256                         -0.3310805              -9.0092
       257                         -0.3310556              -9.0085
       258                         -0.3308880              -9.0039
       259                         -0.3305181              -8.9939
       260                         -0.3302199              -8.9857
       261                         -0.3302052              -8.9853
       262                         -0.3297001              -8.9716
       263                         -0.3295600              -8.9678
       264                         -0.3291218              -8.9559
       ...                                ...                  ...
       528                          1.3416202              36.5073
      -------------------------------------------------------------
                  HL-Gap            0.0371392 Eh            1.0106 eV

Wiberg/Mayer (AO) data.
largest (>0.10) Wiberg bond orders for each atom

     #   Z sym  total        # sym  WBO       # sym  WBO       # sym  WBO
 ---------------------------------------------------------------------------
     1  28 Ni   3.014 --    25 N    0.665     7 N    0.665    19 N    0.662
                            12 N    0.662
     2   6 C    3.940 --     3 C    1.365    24 C    1.364    26 H    0.970
     3   6 C    3.923 --     2 C    1.365     7 N    1.218     4 C    1.170
     4   6 C    3.960 --     5 C    1.656     3 C    1.170    27 H    0.975
     5   6 C    3.962 --     4 C    1.656     6 C    1.171    28 H    0.975
     6   6 C    3.921 --     8 C    1.364     7 N    1.217     5 C    1.171
     7   7 N    3.406 --     3 C    1.218     6 C    1.217     1 Ni   0.665
     8   6 C    3.944 --     9 C    1.368     6 C    1.364    29 H    0.970
     9   6 C    3.916 --     8 C    1.368    12 N    1.203    10 C    1.178
    10   6 C    3.958 --    11 C    1.642     9 C    1.178    30 H    0.975
    11   6 C    3.962 --    10 C    1.642    13 C    1.186    31 H    0.970
    12   7 N    3.410 --    13 C    1.241     9 C    1.203     1 Ni   0.662
    13   6 C    3.910 --    14 C    1.270    12 N    1.241    11 C    1.186
    14   6 C    3.949 --    15 C    1.271    13 C    1.270    73 C    1.168
    15   6 C    3.910 --    14 C    1.271    19 N    1.241    16 C    1.186
    16   6 C    3.962 --    17 C    1.642    15 C    1.186    32 H    0.970
    17   6 C    3.958 --    16 C    1.642    18 C    1.178    33 H    0.975
    18   6 C    3.916 --    20 C    1.368    19 N    1.204    17 C    1.178
    19   7 N    3.410 --    15 C    1.241    18 C    1.204     1 Ni   0.662
    20   6 C    3.944 --    18 C    1.368    21 C    1.364    34 H    0.970
    21   6 C    3.921 --    20 C    1.364    25 N    1.217    22 C    1.171
    22   6 C    3.962 --    23 C    1.656    21 C    1.171    35 H    0.975
    23   6 C    3.960 --    22 C    1.656    24 C    1.170    36 H    0.975
    24   6 C    3.923 --     2 C    1.364    25 N    1.219    23 C    1.170
    25   7 N    3.406 --    24 C    1.219    21 C    1.217     1 Ni   0.665
    26   1 H    1.000 --     2 C    0.970
    27   1 H    0.998 --     4 C    0.975
    28   1 H    0.998 --     5 C    0.975
    29   1 H    1.000 --     8 C    0.970
    30   1 H    0.998 --    10 C    0.975
    31   1 H    1.005 --    11 C    0.970
    32   1 H    1.005 --    16 C    0.970
    33   1 H    0.998 --    17 C    0.975
    34   1 H    1.000 --    20 C    0.970
    35   1 H    0.998 --    22 C    0.975
    36   1 H    0.998 --    23 C    0.975
    37  28 Ni   3.013 --    43 N    0.665    61 N    0.665    48 N    0.662
                            55 N    0.662
    38   6 C    3.940 --    60 C    1.365    39 C    1.365    62 H    0.970
    39   6 C    3.923 --    38 C    1.365    43 N    1.218    40 C    1.170
    40   6 C    3.960 --    41 C    1.656    39 C    1.170    63 H    0.975
    41   6 C    3.962 --    40 C    1.656    42 C    1.171    64 H    0.975
    42   6 C    3.921 --    44 C    1.364    43 N    1.217    41 C    1.171
    43   7 N    3.406 --    39 C    1.218    42 C    1.217    37 Ni   0.665
    44   6 C    3.944 --    45 C    1.368    42 C    1.364    65 H    0.970
    45   6 C    3.916 --    44 C    1.368    48 N    1.204    46 C    1.178
    46   6 C    3.959 --    47 C    1.643    45 C    1.178    66 H    0.975
    47   6 C    3.962 --    46 C    1.643    49 C    1.185    67 H    0.970
    48   7 N    3.410 --    49 C    1.241    45 C    1.204    37 Ni   0.662
    49   6 C    3.910 --    50 C    1.271    48 N    1.241    47 C    1.185
    50   6 C    3.949 --    51 C    1.272    49 C    1.271    78 C    1.166
    51   6 C    3.910 --    50 C    1.272    55 N    1.241    52 C    1.186
    52   6 C    3.962 --    53 C    1.642    51 C    1.186    68 H    0.970
    53   6 C    3.959 --    52 C    1.642    54 C    1.177    69 H    0.975
    54   6 C    3.916 --    56 C    1.368    55 N    1.204    53 C    1.177
    55   7 N    3.410 --    51 C    1.241    54 C    1.204    37 Ni   0.662
    56   6 C    3.944 --    54 C    1.368    57 C    1.364    70 H    0.970
    57   6 C    3.921 --    56 C    1.364    61 N    1.217    58 C    1.171
    58   6 C    3.962 --    59 C    1.656    57 C    1.171    71 H    0.975
    59   6 C    3.960 --    58 C    1.656    60 C    1.170    72 H    0.975
    60   6 C    3.923 --    38 C    1.365    61 N    1.218    59 C    1.170
    61   7 N    3.406 --    60 C    1.218    57 C    1.217    37 Ni   0.665
    62   1 H    1.000 --    38 C    0.970
    63   1 H    0.998 --    40 C    0.975
    64   1 H    0.998 --    41 C    0.975
    65   1 H    1.000 --    44 C    0.970
    66   1 H    0.997 --    46 C    0.975
    67   1 H    1.005 --    47 C    0.970
    68   1 H    1.005 --    52 C    0.970
    69   1 H    0.998 --    53 C    0.975
    70   1 H    1.000 --    56 C    0.970
    71   1 H    0.998 --    58 C    0.975
    72   1 H    0.998 --    59 C    0.975
    73   6 C    3.935 --    74 C    2.589    14 C    1.168
    74   6 C    3.938 --    73 C    2.589    80 C    1.169
    75   6 C    3.936 --    76 C    2.586    92 C    1.171
    76   6 C    3.936 --    75 C    2.586   115 C    1.171
    77   6 C    3.938 --    78 C    2.590   127 C    1.167
    78   6 C    3.935 --    77 C    2.590    50 C    1.166
    79  28 Ni   3.007 --    85 N    0.662    90 N    0.662    97 N    0.662
                           103 N    0.661
    80   6 C    3.939 --    81 C    1.269   102 C    1.269    74 C    1.169
    81   6 C    3.910 --    80 C    1.269    85 N    1.242    82 C    1.187
    82   6 C    3.960 --    83 C    1.640    81 C    1.187   104 H    0.970
    83   6 C    3.959 --    82 C    1.640    84 C    1.179   105 H    0.975
    84   6 C    3.915 --    86 C    1.366    85 N    1.202    83 C    1.179
    85   7 N    3.404 --    81 C    1.242    84 C    1.202    79 Ni   0.662
    86   6 C    3.939 --    87 C    1.367    84 C    1.366   106 H    0.970
    87   6 C    3.915 --    86 C    1.367    90 N    1.201    88 C    1.179
    88   6 C    3.959 --    89 C    1.640    87 C    1.179   107 H    0.975
    89   6 C    3.960 --    88 C    1.640    91 C    1.187   108 H    0.970
    90   7 N    3.404 --    91 C    1.243    87 C    1.201    79 Ni   0.662
    91   6 C    3.909 --    92 C    1.268    90 N    1.243    89 C    1.187
    92   6 C    3.939 --    93 C    1.268    91 C    1.268    75 C    1.171
    93   6 C    3.909 --    92 C    1.268    97 N    1.242    94 C    1.187
    94   6 C    3.960 --    95 C    1.640    93 C    1.187   109 H    0.970
    95   6 C    3.959 --    94 C    1.640    96 C    1.179   110 H    0.975
    96   6 C    3.915 --    98 C    1.367    97 N    1.202    95 C    1.179
    97   7 N    3.403 --    93 C    1.242    96 C    1.202    79 Ni   0.662
    98   6 C    3.939 --    96 C    1.367    99 C    1.366   111 H    0.970
    99   6 C    3.915 --    98 C    1.366   103 N    1.202   100 C    1.179
   100   6 C    3.959 --   101 C    1.640    99 C    1.179   112 H    0.975
   101   6 C    3.960 --   100 C    1.640   102 C    1.187   113 H    0.970
   102   6 C    3.910 --    80 C    1.269   103 N    1.242   101 C    1.187
   103   7 N    3.404 --   102 C    1.242    99 C    1.202    79 Ni   0.661
   104   1 H    1.005 --    82 C    0.970
   105   1 H    0.997 --    83 C    0.975
   106   1 H    1.000 --    86 C    0.970
   107   1 H    0.997 --    88 C    0.975
   108   1 H    1.005 --    89 C    0.970
   109   1 H    1.005 --    94 C    0.970
   110   1 H    0.997 --    95 C    0.975
   111   1 H    1.000 --    98 C    0.970
   112   1 H    0.997 --   100 C    0.975
   113   1 H    1.005 --   101 C    0.970
   114  28 Ni   3.004 --   138 N    0.661   132 N    0.661   120 N    0.661
                           125 N    0.661
   115   6 C    3.939 --   116 C    1.268   137 C    1.268    76 C    1.171
   116   6 C    3.909 --   115 C    1.268   120 N    1.243   117 C    1.187
   117   6 C    3.960 --   118 C    1.640   116 C    1.187   139 H    0.970
   118   6 C    3.959 --   117 C    1.640   119 C    1.179   140 H    0.975
   119   6 C    3.915 --   121 C    1.367   120 N    1.202   118 C    1.179
   120   7 N    3.404 --   116 C    1.243   119 C    1.202   114 Ni   0.661
   121   6 C    3.939 --   119 C    1.367   122 C    1.366   141 H    0.970
   122   6 C    3.915 --   121 C    1.366   125 N    1.203   123 C    1.179
   123   6 C    3.959 --   124 C    1.640   122 C    1.179   142 H    0.975
   124   6 C    3.960 --   123 C    1.640   126 C    1.187   143 H    0.970
   125   7 N    3.404 --   126 C    1.242   122 C    1.203   114 Ni   0.661
   126   6 C    3.910 --   127 C    1.270   125 N    1.242   124 C    1.187
   127   6 C    3.939 --   128 C    1.270   126 C    1.270    77 C    1.167
   128   6 C    3.910 --   127 C    1.270   132 N    1.241   129 C    1.187
   129   6 C    3.960 --   130 C    1.640   128 C    1.187   144 H    0.970
   130   6 C    3.959 --   129 C    1.640   131 C    1.179   145 H    0.975
   131   6 C    3.915 --   133 C    1.365   132 N    1.203   130 C    1.179
   132   7 N    3.404 --   128 C    1.241   131 C    1.203   114 Ni   0.661
   133   6 C    3.939 --   134 C    1.367   131 C    1.365   146 H    0.970
   134   6 C    3.915 --   133 C    1.367   138 N    1.202   135 C    1.179
   135   6 C    3.959 --   136 C    1.640   134 C    1.179   147 H    0.975
   136   6 C    3.960 --   135 C    1.640   137 C    1.187   148 H    0.970
   137   6 C    3.909 --   115 C    1.268   138 N    1.243   136 C    1.187
   138   7 N    3.404 --   137 C    1.243   134 C    1.202   114 Ni   0.661
   139   1 H    1.005 --   117 C    0.970
   140   1 H    0.997 --   118 C    0.975
   141   1 H    1.000 --   121 C    0.970
   142   1 H    0.997 --   123 C    0.975
   143   1 H    1.004 --   124 C    0.970
   144   1 H    1.004 --   129 C    0.970
   145   1 H    0.997 --   130 C    0.975
   146   1 H    1.000 --   133 C    0.970
   147   1 H    0.997 --   135 C    0.975
   148   1 H    1.005 --   136 C    0.970
 ---------------------------------------------------------------------------

           -------------------------------------------------
          | TOTAL ENERGY             -271.971892769008 Eh   |
          | GRADIENT NORM               0.000541813283 Eh/α |
          | HOMO-LUMO GAP               1.010610351839 eV   |
           -------------------------------------------------

 * finished run on 2022/07/30 at 02:07:51.209
