   * xtb version 6.5.1 (b24c23e) compiled by 'conda@728c89f4b128' on 2022-07-12
          program call               : xtb m-CP_C6_3.xyz --gfn 1 --opt -T 48

   ID    Z sym.   atoms
    1    6 C      1-5, 7-11, 14-19, 21-26, 28-34, 37-41, 64-68, 70-74, 77-82,
                  84-89, 91-97, 100-104, 127-143, 145-149, 152-157, 159-164,
                  166-172, 175-179
    2    7 N      6, 20, 27, 42, 69, 83, 90, 105, 144, 158, 165, 180
    3    8 O      12, 13, 35, 36, 75, 76, 98, 99, 150, 151, 173, 174
    4    1 H      43-63, 106-126, 181-200

          :  Hamiltonian                  GFN1-xTB          :
 * total energy  :  -367.9589268 Eh     change       -0.9466703E-09 Eh
 * total energy  :  -368.2576447 Eh     change       -0.2987179E+00 Eh
 * total energy  :  -368.3793172 Eh     change       -0.1216726E+00 Eh
 * total energy  :  -368.4480020 Eh     change       -0.6868482E-01 Eh
 * total energy  :  -368.5062730 Eh     change       -0.5827098E-01 Eh
 * total energy  :  -368.5673766 Eh     change       -0.6110355E-01 Eh
 * total energy  :  -368.6055259 Eh     change       -0.3814929E-01 Eh
 * total energy  :  -368.6336826 Eh     change       -0.2815677E-01 Eh
 * total energy  :  -368.6584019 Eh     change       -0.2471929E-01 Eh
 * total energy  :  -368.6788863 Eh     change       -0.2048443E-01 Eh
 * total energy  :  -368.7996945 Eh     change       -0.2741203E-04 Eh
 * total energy  :  -368.7997156 Eh     change       -0.2108897E-04 Eh
 * total energy  :  -368.7997349 Eh     change       -0.1921471E-04 Eh
 * total energy  :  -368.7997504 Eh     change       -0.1550233E-04 Eh
 * total energy  :  -368.7997629 Eh     change       -0.1253392E-04 Eh
 * total energy  :  -368.7997747 Eh     change       -0.1176756E-04 Eh
 * total energy  :  -368.7997825 Eh     change       -0.7852775E-05 Eh
 * total energy  :  -368.7997878 Eh     change       -0.5288707E-05 Eh
 * total energy  :  -368.7997921 Eh     change       -0.4258991E-05 Eh
   *** GEOMETRY OPTIMIZATION CONVERGED AFTER 113 ITERATIONS ***

 final structure:
================
200
 xtb: 6.5.1 (b24c23e)
C           26.19515872139718       -0.15886774774302       -0.37816665627913
C           26.76878433049397        1.07620959868492       -0.65112225061252
C           26.08133070352712        2.28673003069821       -0.94737375349812
C           27.01555204310952        3.26267120352827       -1.15190834417579
C           28.30471719170240        2.67699387730344       -0.99782228788738
N           28.10450891429036        1.36166019254622       -0.68920121447115
C           29.55058134640057        3.30399119654043       -1.11178516012176
C           29.54156691519641        4.74349496926638       -1.47290128292752
C           30.07995370240961        5.69191290077075       -0.60770351552534
C           30.07292725856120        7.04408068220479       -0.94744987032800
C           30.66009104378136        8.00720703753158        0.01796525536560
O           30.60754654169621        9.28119124203022       -0.39698390708040
O           31.14292302778576        7.69920480005916        1.07730951568184
C           29.52631296478194        7.45705703820952       -2.16249234758033
C           28.98961123655006        6.51486326594394       -3.02560403313637
C           28.99438106621995        5.16931194341259       -2.68553511244649
C           30.78500532500167        2.68084702578367       -0.91558329124801
C           32.06551807458098        3.34122079396919       -1.09809369633059
C           33.01251242764322        2.41980530080384       -0.82709458246849
N           30.97610417259181        1.38122994623991       -0.55747975921171
C           32.30979360830961        1.19729216599864       -0.48772790680074
C           32.97999658847925        0.00782127063669       -0.13758655984200
C           32.37818028556235       -1.22421265274377        0.18274065377539
C           33.05473633248783       -2.40974575848143        0.57443996778588
C           32.11516594476551       -3.37784066657465        0.79706376756706
C           30.83516347349820       -2.81427153125385        0.53744644815117
N           31.04576534492833       -1.50947221730991        0.17751659660008
C           29.59094568636742       -3.44398652060703        0.64524055291038
C           29.59974226979800       -4.87486096381265        1.03792690211465
C           30.23244773474903       -5.82775789687168        0.23648600094780
C           30.24361411333779       -7.16620859582465        0.60412284016239
C           29.62808918820193       -7.56936776262771        1.77721837644415
C           28.99350901560270       -6.62640292008823        2.58731252050685
C           28.34899631342986       -7.09779809844737        3.83906910989932
O           27.76683771966463       -6.11804859459927        4.54516561941856
O           28.33703873383908       -8.24487611834174        4.20606311973789
C           28.97826117249546       -5.28358334400299        2.21618447762613
C           28.35729010320890       -2.82752142011161        0.41336944347449
C           27.07516636704267       -3.51222289804654        0.47644027798866
C           26.13528003968399       -2.58980707769771        0.18833843611744
C           26.84234937930706       -1.34511856769375       -0.05835261399671
N           28.17861521048129       -1.52814610234715        0.07721835723098
H           25.11104636582561       -0.19061420728307       -0.41900037582121
H           25.00838521127636        2.38605468109786       -0.98842370641277
H           26.83316819548168        4.30021174470344       -1.38050277731391
H           28.84954115492207        0.69807799244062       -0.50520081051572
H           30.49818872066666        5.39033552842725        0.34636973901424
H           31.00911250178370        9.84358867842508        0.28500180803537
H           29.52399907580597        8.50775658349776       -2.42596244055937
H           28.56612796741089        6.82821081956754       -3.97316127396721
H           28.58630588174301        4.43658722140732       -3.37281112342797
H           32.20000158766067        4.36556759730379       -1.40541262997855
H           34.08488114136735        2.52878554334587       -0.85305114702395
H           34.12411631287750       -2.49874373370139        0.67744699783276
H           32.28984827685645       -4.39037162867185        1.12238762118832
H           30.30560615766505       -0.85321369650458       -0.04864444027410
H           30.70385737813677       -5.51661066683574       -0.68913117062319
H           30.73455402873576       -7.89489101834528       -0.03078765858564
H           29.62914129543883       -8.61021892856501        2.08042575417405
H           27.37231842592039       -6.50548095945105        5.34337913607067
H           28.49672315377256       -4.55150539611209        2.85348322196564
H           26.93945138846156       -4.55831986915414        0.69924718339538
H           25.06472579322342       -2.71050189386335        0.13381076578316
C           64.97168307802676       -0.05054778662187       -0.05481000264791
C           64.36278301908946       -1.28572702733328        0.12438846589497
C           65.01563441545349       -2.53798396505961        0.30387873269104
C           64.05448498862748       -3.50308637310134        0.40842543581863
C           62.78247232383627       -2.86988525806030        0.30709168922915
N           63.01969851655556       -1.53595520866736        0.13398556502596
C           61.51972945848897       -3.47136752897449        0.33945225048448
C           61.48446696648568       -4.94122450066097        0.54047368391361
C           62.00533689661246       -5.51250630683421        1.69782295076230
C           61.96332401615878       -6.89365968988156        1.88546672288878
C           62.53058935702793       -7.44150393619041        3.14333528009621
O           62.41946740654502       -8.77368560564426        3.24600007415099
O           63.04731836416570       -6.77438699717548        4.00290613431156
C           61.40087409600811       -7.71549464702855        0.90901006759343
C           60.88554666746806       -7.14933039588408       -0.24655119399413
C           60.92440965150868       -5.77464725949239       -0.43105615810233
C           60.30400611373066       -2.79703379277428        0.20291785265864
C           59.00595909677042       -3.43676785193176        0.32178409521828
C           58.08474740842934       -2.46431185905436        0.16232272964973
N           60.14894714065287       -1.46239395908824       -0.01626048550834
C           58.82091298937525       -1.23305775273891       -0.04990416372619
C           58.18292975435264        0.00902269096184       -0.24489735541972
C           58.81850494567829        1.25067350219072       -0.43504534236110
C           58.17408816136673        2.50342940584220       -0.61335711230589
C           59.14168546031844        3.45908966215090       -0.75550089614456
C           60.40812887488654        2.81642015303327       -0.67338421565522
N           60.16057199443377        1.48373566665532       -0.47618209879872
C           61.67057775609150        3.41534798493116       -0.73756060118134
C           61.70232104230830        4.87834008289244       -0.98305990220873
C           61.17115882824730        5.41097374821340       -2.15990933691900
C           61.20174365982584        6.77874696037405       -2.39433623479748
C           61.75801809853954        7.63180328220987       -1.45608688101755
C           62.28934993998249        7.11206880052145       -0.27466917647528
C           62.87286197291085        8.05988800366337        0.70783739055967
O           63.35656071720682        7.46389468885594        1.80713490311814
O           62.91916422413925        9.25363090877330        0.55444246968870
C           62.26253189328018        5.73877134523306       -0.04105560421885
C           62.88690670292226        2.74220054345632       -0.58462755946982
C           64.19264719277530        3.37405014229527       -0.69733290107113
C           65.10546049974739        2.40226387493247       -0.49865922145754
C           64.35919174656247        1.17598745950912       -0.27635630248824
N           63.02692613226476        1.41784958142570       -0.33955037269126
H           66.05678192612446       -0.05630628559341       -0.03311819123539
H           66.08522184469673       -2.67004221154435        0.33841888976065
H           64.20720934442818       -4.56246183008558        0.53586249786090
H           62.29394934995877       -0.83606585456035        0.02159672603566
H           62.43209151433255       -4.88853727902963        2.47555568314913
H           62.80915925249143       -9.05137781755443        4.09103149936763
H           61.36991786568461       -8.78819443269518        1.05644210949772
H           60.45014934011425       -7.78224502715455       -1.01158295578327
H           60.52956304422503       -5.33910431475329       -1.34214283875825
H           58.84285077734104       -4.48361642417227        0.52053969092842
H           57.00995679345984       -2.54529822772044        0.18880532345499
H           57.10554617203714        2.64584316471362       -0.62384755068761
H           58.99442452876958        4.51804149836208       -0.89176275403763
H           60.88249452513507        0.77938839533518       -0.36460277885962
H           60.74704497677453        4.74387877797515       -2.90213369971703
H           60.79050032175399        7.17661508226770       -3.31505146574010
H           61.78922278510398        8.70263201600863       -1.62252092666989
H           63.71753212254944        8.14729247022506        2.39495243791302
H           62.66359697345560        5.33928082525676        0.88284569537612
H           64.36263460907713        4.41659390200824       -0.91302589896304
H           66.18170797999917        2.47486828176946       -0.50528413399748
C           38.18032157046731        0.03898785060481       -0.01649953237354
C           36.95201998790318        0.04684352550710       -0.03972793431821
C           35.60839615874183        0.04246619851761       -0.06866104288828
C           34.38473228157779        0.03622754118699       -0.09917790526233
C           39.52393812780899        0.03144863209649        0.00205413361790
C           40.74795622170340        0.01610274948023        0.01508328426465
C           54.20963665439647        0.02818825850333       -0.21790710835747
C           52.98128575104661        0.02171343390091       -0.19504126023219
C           51.63786263474471        0.01634455710968       -0.16581377771051
C           50.41406145432163        0.01388798317089       -0.13441077464588
C           55.55348928539337        0.02756429172470       -0.23227892410448
C           56.77750565077325        0.02291850067033       -0.24116404276969
C           42.15236181117820        0.01139482769058        0.02012407533251
C           42.78131409950390        1.26148207370300        0.17889393740308
C           42.13371541007454        2.51524165369295        0.32657170055105
C           43.09935400912835        3.47142728760265        0.48484343829426
C           44.36540302580739        2.82638364186959        0.44388400487201
N           44.12242899814692        1.49349312375282        0.24703805745545
C           45.62589540545604        3.42466334026490        0.56142411711386
C           45.63848107571647        4.88576181570418        0.82379254306851
C           46.22635861432639        5.76432662678718       -0.08172580090295
C           46.23596645903412        7.13595762040143        0.16871933877978
C           46.87589022642724        8.02220762090443       -0.83610938655967
O           46.84054444713315        9.32094392887805       -0.50418754024430
O           47.38469302732723        7.63653673579603       -1.85718933933087
C           45.65663211060443        7.63859294658776        1.33368938764479
C           45.07126023043307        6.76569297225758        2.23720978880460
C           45.05928587623639        5.40095081315057        1.98600358332444
C           46.85098889668415        2.76544258552318        0.45347728500130
C           48.13898142300580        3.41461671765332        0.62305817946721
C           49.07477458040808        2.46248676877044        0.43088824635834
N           47.02571740620360        1.44113337336608        0.18897359553892
C           48.35720268147598        1.23240545557177        0.15882723579662
C           49.01009287134973        0.00938751871958       -0.09569078881793
C           48.38092374158238       -1.23260704688684       -0.30796414689637
C           49.02675740256195       -2.46703578909818       -0.57684428697229
C           48.06176161441326       -3.42910948111351       -0.69860792425809
C           46.79781401802739       -2.80955415248825       -0.49943996036794
N           47.04126951278597       -1.48075192896287       -0.27663001899908
C           45.53827097915835       -3.41981724120313       -0.53878629523069
C           45.52385939944860       -4.88703570101252       -0.76550832615546
C           44.89897539362627       -5.42268420469498       -1.89399290356619
C           44.88732724596871       -6.79331998840383       -2.11207251341563
C           45.49683079568653       -7.64608861359631       -1.20700881260644
C           46.12367170254618       -7.12311127175071       -0.07502266545011
C           46.76643254109911       -8.06931318476488        0.87131114480441
O           47.34588537510351       -7.46856636302199        1.92084497843297
O           46.78192349820967       -9.26528887095708        0.73019794820447
C           46.13716779575320       -5.74685709714581        0.14300086353775
C           44.31419118712687       -2.76690638819982       -0.38640232366315
C           43.02990771949115       -3.44454831086781       -0.37809288752655
C           42.09294655491351       -2.48572615437721       -0.22658747422601
C           42.80683911523602       -1.22781529763146       -0.13047045460867
N           44.13725981815966       -1.42759255868581       -0.21743621946007
H           41.06548113484919        2.65879446740458        0.31016831014011
H           42.94981577932916        4.53162540229369        0.60798834288069
H           44.84389470928571        0.78576783092980        0.15842514811941
H           46.67034704830053        5.39301780346307       -0.99886402392644
H           47.27724131112643        9.83052874936703       -1.20597702481280
H           45.66645892812480        8.70432602730676        1.52727718632614
H           44.62172942124155        7.14865822024424        3.14637130930850
H           44.61155218323542        4.72292634182161        2.70407577009368
H           48.28533549931954        4.45419891051758        0.86708222558590
H           50.14808159632442        2.55516648985685        0.47351830790091
H           50.09343481765461       -2.59324529385478       -0.66797623022913
H           48.21021308265219       -4.47422466000293       -0.91570216187800
H           46.32135090027855       -0.78395103058305       -0.11728201689804
H           44.43285576108229       -4.75584712517543       -2.61064143106083
H           44.40167427708514       -7.19407753987779       -2.99448697096780
H           45.49703807987584       -8.71907007231735       -1.36212534770047
H           47.73919306706582       -8.15138182983998        2.48827189294686
H           46.61194282977258       -5.34525759348209        1.03043025945577
H           42.88694819717215       -4.50962666962615       -0.46273030830329
H           41.02156122665701       -2.59394067636409       -0.17169623844994

          :  Hamiltonian                  GFN1-xTB          :
         :: total energy            -368.799792059449 Eh    ::
         :: gradient norm              0.000660657354 Eh/a0 ::
         :: HOMO-LUMO gap              0.876263268501 eV    ::
         :: SCC energy              -374.481967232408 Eh    ::
         :: repulsion energy           5.850896197860 Eh    ::

    * Orbital Energies and Occupations

         #    Occupation            Energy/Eh            Energy/eV
      -------------------------------------------------------------
         1        2.0000           -0.8345087             -22.7081
       ...           ...                  ...                  ...
       313        2.0000           -0.4228733             -11.5070
       314        2.0000           -0.4224188             -11.4946
       315        2.0000           -0.4220273             -11.4839
       316        2.0000           -0.4217337             -11.4760
       317        2.0000           -0.4202835             -11.4365
       318        2.0000           -0.4196644             -11.4197
       319        2.0000           -0.4188801             -11.3983
       320        2.0000           -0.4065045             -11.0616
       321        2.0000           -0.4057857             -11.0420
       322        2.0000           -0.4050448             -11.0218
       323        2.0000           -0.3950442             -10.7497
       324        2.0000           -0.3898194             -10.6075
       325        2.0000           -0.3832903             -10.4299 (HOMO)
       326                         -0.3510882              -9.5536 (LUMO)
       327                         -0.3426435              -9.3238
       328                         -0.3391410              -9.2285
       329                         -0.3387030              -9.2166
       330                         -0.3380582              -9.1990
       331                         -0.3363317              -9.1521
       332                         -0.3148592              -8.5678
       333                         -0.3130736              -8.5192
       334                         -0.3125600              -8.5052
       335                         -0.3120886              -8.4924
       336                         -0.3117692              -8.4837
       ...                                ...                  ...
       676                          1.5739110              42.8283
      -------------------------------------------------------------
                  HL-Gap            0.0322021 Eh            0.8763 eV

Wiberg/Mayer (AO) data.
largest (>0.10) Wiberg bond orders for each atom

     #   Z sym  total        # sym  WBO       # sym  WBO       # sym  WBO
 ---------------------------------------------------------------------------
     1   6 C    3.926 --    41 C    1.366     2 C    1.347    43 H    0.971
     2   6 C    3.902 --     1 C    1.347     3 C    1.229     6 N    1.169
     3   6 C    3.954 --     4 C    1.596     2 C    1.229    44 H    0.976
     4   6 C    3.959 --     3 C    1.596     5 C    1.234    45 H    0.974
     5   6 C    3.897 --     7 C    1.303     4 C    1.234     6 N    1.178
     6   7 N    3.470 --     5 C    1.178     2 C    1.169    46 H    0.873
     7   6 C    3.939 --    17 C    1.337     5 C    1.303     8 C    1.027
     8   6 C    3.988 --     9 C    1.408    16 C    1.388     7 C    1.027
                            14 C    0.102
     9   6 C    3.984 --     8 C    1.408    10 C    1.397    47 H    0.968
                            15 C    0.104
    10   6 C    3.988 --     9 C    1.397    14 C    1.391    11 C    1.004
    11   6 C    3.836 --    13 O    1.693    12 O    1.090    10 C    1.004
    12   8 O    2.098 --    11 C    1.090    48 H    0.838    13 O    0.129
    13   8 O    1.962 --    11 C    1.693    12 O    0.129
    14   6 C    3.986 --    15 C    1.448    10 C    1.391    49 H    0.970
                             8 C    0.102
    15   6 C    3.994 --    14 C    1.448    16 C    1.441    50 H    0.972
                             9 C    0.104
    16   6 C    3.987 --    15 C    1.441     8 C    1.388    51 H    0.973
    17   6 C    3.915 --     7 C    1.337    20 N    1.285    18 C    1.123
    18   6 C    3.966 --    19 C    1.712    17 C    1.123    52 H    0.973
    19   6 C    3.964 --    18 C    1.712    21 C    1.127    53 H    0.974
    20   7 N    3.023 --    21 C    1.344    17 C    1.285
    21   6 C    3.907 --    20 N    1.344    22 C    1.255    19 C    1.127
    22   6 C    3.938 --    21 C    1.255    23 C    1.251   130 C    1.191
    23   6 C    3.884 --    22 C    1.251    24 C    1.249    27 N    1.190
    24   6 C    3.959 --    25 C    1.583    23 C    1.249    54 H    0.975
    25   6 C    3.954 --    24 C    1.583    26 C    1.240    55 H    0.974
    26   6 C    3.899 --    28 C    1.310    25 C    1.240    27 N    1.165
    27   7 N    3.475 --    23 C    1.190    26 C    1.165    56 H    0.872
    28   6 C    3.924 --    38 C    1.322    26 C    1.310    29 C    1.028
    29   6 C    3.988 --    37 C    1.405    30 C    1.389    28 C    1.028
                            32 C    0.102
    30   6 C    3.986 --    31 C    1.439    29 C    1.389    57 H    0.973
    31   6 C    3.994 --    32 C    1.450    30 C    1.439    58 H    0.972
                            37 C    0.104
    32   6 C    3.985 --    31 C    1.450    33 C    1.388    59 H    0.969
                            29 C    0.102
    33   6 C    3.988 --    37 C    1.400    32 C    1.388    34 C    1.004
    34   6 C    3.836 --    36 O    1.692    35 O    1.091    33 C    1.004
    35   8 O    2.099 --    34 C    1.091    60 H    0.838    36 O    0.129
    36   8 O    1.961 --    34 C    1.692    35 O    0.129
    37   6 C    3.985 --    29 C    1.405    33 C    1.400    61 H    0.969
                            31 C    0.104
    38   6 C    3.929 --    28 C    1.322    42 N    1.317    39 C    1.117
    39   6 C    3.967 --    40 C    1.724    38 C    1.117    62 H    0.974
    40   6 C    3.966 --    39 C    1.724    41 C    1.116    63 H    0.976
    41   6 C    3.929 --     1 C    1.366    42 N    1.300    40 C    1.116
    42   7 N    3.012 --    38 C    1.317    41 C    1.300
    43   1 H    1.002 --     1 C    0.971
    44   1 H    0.997 --     3 C    0.976
    45   1 H    1.004 --     4 C    0.974
    46   1 H    0.986 --     6 N    0.873
    47   1 H    1.007 --     9 C    0.968
    48   1 H    0.873 --    12 O    0.838
    49   1 H    1.005 --    14 C    0.970
    50   1 H    1.002 --    15 C    0.972
    51   1 H    1.004 --    16 C    0.973
    52   1 H    1.004 --    18 C    0.973
    53   1 H    1.002 --    19 C    0.974
    54   1 H    1.002 --    24 C    0.975
    55   1 H    1.004 --    25 C    0.974
    56   1 H    0.987 --    27 N    0.872
    57   1 H    1.004 --    30 C    0.973
    58   1 H    1.002 --    31 C    0.972
    59   1 H    1.005 --    32 C    0.969
    60   1 H    0.873 --    35 O    0.838
    61   1 H    1.007 --    37 C    0.969
    62   1 H    1.004 --    39 C    0.974
    63   1 H    0.998 --    40 C    0.976
    64   6 C    3.926 --   104 C    1.366    65 C    1.348   106 H    0.971
    65   6 C    3.901 --    64 C    1.348    66 C    1.228    69 N    1.170
    66   6 C    3.954 --    67 C    1.598    65 C    1.228   107 H    0.976
    67   6 C    3.959 --    66 C    1.598    68 C    1.232   108 H    0.974
    68   6 C    3.897 --    70 C    1.304    67 C    1.232    69 N    1.178
    69   7 N    3.470 --    68 C    1.178    65 C    1.170   109 H    0.873
    70   6 C    3.938 --    80 C    1.335    68 C    1.304    71 C    1.028
    71   6 C    3.988 --    72 C    1.409    79 C    1.386    70 C    1.028
                            77 C    0.102
    72   6 C    3.984 --    71 C    1.409    73 C    1.396   110 H    0.968
                            78 C    0.104
    73   6 C    3.988 --    72 C    1.396    77 C    1.392    74 C    1.005
                            79 C    0.100
    74   6 C    3.836 --    76 O    1.692    75 O    1.090    73 C    1.005
    75   8 O    2.099 --    74 C    1.090   111 H    0.838    76 O    0.129
    76   8 O    1.961 --    74 C    1.692    75 O    0.129
    77   6 C    3.986 --    78 C    1.447    73 C    1.392   112 H    0.970
                            71 C    0.102
    78   6 C    3.994 --    77 C    1.447    79 C    1.442   113 H    0.972
                            72 C    0.104
    79   6 C    3.987 --    78 C    1.442    71 C    1.386   114 H    0.972
                            73 C    0.100
    80   6 C    3.915 --    70 C    1.335    83 N    1.286    81 C    1.124
    81   6 C    3.965 --    82 C    1.710    80 C    1.124   115 H    0.973
    82   6 C    3.964 --    81 C    1.710    84 C    1.128   116 H    0.974
    83   7 N    3.022 --    84 C    1.344    80 C    1.286
    84   6 C    3.908 --    83 N    1.344    85 C    1.253    82 C    1.128
    85   6 C    3.938 --    84 C    1.253    86 C    1.251   138 C    1.192
    86   6 C    3.884 --    85 C    1.251    87 C    1.249    90 N    1.189
    87   6 C    3.959 --    88 C    1.583    86 C    1.249   117 H    0.975
    88   6 C    3.954 --    87 C    1.583    89 C    1.240   118 H    0.974
    89   6 C    3.899 --    91 C    1.310    88 C    1.240    90 N    1.166
    90   7 N    3.474 --    86 C    1.189    89 C    1.166   119 H    0.872
    91   6 C    3.924 --   101 C    1.322    89 C    1.310    92 C    1.028
    92   6 C    3.988 --   100 C    1.405    93 C    1.389    91 C    1.028
                            95 C    0.102
    93   6 C    3.986 --    94 C    1.440    92 C    1.389   120 H    0.973
    94   6 C    3.994 --    95 C    1.450    93 C    1.440   121 H    0.972
                           100 C    0.104
    95   6 C    3.985 --    94 C    1.450    96 C    1.388   122 H    0.969
                            92 C    0.102
    96   6 C    3.988 --   100 C    1.400    95 C    1.388    97 C    1.005
    97   6 C    3.836 --    99 O    1.692    98 O    1.090    96 C    1.005
    98   8 O    2.099 --    97 C    1.090   123 H    0.838    99 O    0.129
    99   8 O    1.961 --    97 C    1.692    98 O    0.129
   100   6 C    3.985 --    92 C    1.405    96 C    1.400   124 H    0.969
                            94 C    0.104
   101   6 C    3.929 --    91 C    1.322   105 N    1.317   102 C    1.117
   102   6 C    3.967 --   103 C    1.724   101 C    1.117   125 H    0.973
   103   6 C    3.966 --   102 C    1.724   104 C    1.116   126 H    0.976
   104   6 C    3.928 --    64 C    1.366   105 N    1.301   103 C    1.116
   105   7 N    3.012 --   101 C    1.317   104 C    1.301
   106   1 H    1.002 --    64 C    0.971
   107   1 H    0.997 --    66 C    0.976
   108   1 H    1.004 --    67 C    0.974
   109   1 H    0.986 --    69 N    0.873
   110   1 H    1.007 --    72 C    0.968
   111   1 H    0.873 --    75 O    0.838
   112   1 H    1.005 --    77 C    0.970
   113   1 H    1.002 --    78 C    0.972
   114   1 H    1.005 --    79 C    0.972
   115   1 H    1.004 --    81 C    0.973
   116   1 H    1.003 --    82 C    0.974
   117   1 H    1.002 --    87 C    0.975
   118   1 H    1.004 --    88 C    0.974
   119   1 H    0.987 --    90 N    0.872
   120   1 H    1.004 --    93 C    0.973
   121   1 H    1.001 --    94 C    0.972
   122   1 H    1.005 --    95 C    0.969
   123   1 H    0.873 --    98 O    0.838
   124   1 H    1.007 --   100 C    0.969
   125   1 H    1.004 --   102 C    0.973
   126   1 H    0.998 --   103 C    0.976
   127   6 C    3.925 --   128 C    2.365   131 C    1.337   130 C    0.190
   128   6 C    3.923 --   127 C    2.365   129 C    1.336   132 C    0.190
   129   6 C    3.932 --   130 C    2.447   128 C    1.336
   130   6 C    3.889 --   129 C    2.447    22 C    1.191   127 C    0.190
   131   6 C    3.929 --   132 C    2.444   127 C    1.337
   132   6 C    3.890 --   131 C    2.444   139 C    1.195   128 C    0.190
   133   6 C    3.923 --   134 C    2.365   137 C    1.337   136 C    0.190
   134   6 C    3.925 --   133 C    2.365   135 C    1.337   138 C    0.190
   135   6 C    3.929 --   136 C    2.444   134 C    1.337
   136   6 C    3.890 --   135 C    2.444   160 C    1.195   133 C    0.190
   137   6 C    3.932 --   138 C    2.447   133 C    1.337
   138   6 C    3.889 --   137 C    2.447    85 C    1.192   134 C    0.190
   139   6 C    3.925 --   179 C    1.253   140 C    1.247   132 C    1.195
   140   6 C    3.885 --   141 C    1.253   139 C    1.247   144 N    1.189
   141   6 C    3.955 --   142 C    1.577   140 C    1.253   181 H    0.975
   142   6 C    3.955 --   141 C    1.577   143 C    1.246   182 H    0.974
   143   6 C    3.894 --   145 C    1.299   142 C    1.246   144 N    1.167
   144   7 N    3.472 --   140 C    1.189   143 C    1.167   183 H    0.874
   145   6 C    3.927 --   155 C    1.340   143 C    1.299   146 C    1.027
   146   6 C    3.988 --   147 C    1.408   154 C    1.388   145 C    1.027
                           152 C    0.102
   147   6 C    3.984 --   146 C    1.408   148 C    1.396   184 H    0.968
                           153 C    0.104
   148   6 C    3.988 --   147 C    1.396   152 C    1.391   149 C    1.004
                           154 C    0.100
   149   6 C    3.836 --   151 O    1.693   150 O    1.090   148 C    1.004
   150   8 O    2.099 --   149 C    1.090   185 H    0.838   151 O    0.129
   151   8 O    1.962 --   149 C    1.693   150 O    0.129
   152   6 C    3.986 --   153 C    1.448   148 C    1.391   186 H    0.970
                           146 C    0.102
   153   6 C    3.994 --   152 C    1.448   154 C    1.441   187 H    0.972
                           147 C    0.104
   154   6 C    3.986 --   153 C    1.441   146 C    1.388   188 H    0.973
                           148 C    0.100
   155   6 C    3.916 --   145 C    1.340   158 N    1.283   156 C    1.124
   156   6 C    3.966 --   157 C    1.712   155 C    1.124   189 H    0.973
   157   6 C    3.964 --   156 C    1.712   159 C    1.128   190 H    0.974
   158   7 N    3.010 --   159 C    1.345   155 C    1.283
   159   6 C    3.908 --   158 N    1.345   160 C    1.253   157 C    1.128
   160   6 C    3.925 --   159 C    1.253   161 C    1.247   136 C    1.195
   161   6 C    3.885 --   162 C    1.253   160 C    1.247   165 N    1.189
   162   6 C    3.956 --   163 C    1.578   161 C    1.253   191 H    0.975
   163   6 C    3.955 --   162 C    1.578   164 C    1.245   192 H    0.974
   164   6 C    3.894 --   166 C    1.300   163 C    1.245   165 N    1.167
   165   7 N    3.472 --   161 C    1.189   164 C    1.167   193 H    0.874
   166   6 C    3.927 --   176 C    1.339   164 C    1.300   167 C    1.027
   167   6 C    3.988 --   175 C    1.407   168 C    1.388   166 C    1.027
                           170 C    0.102
   168   6 C    3.987 --   169 C    1.440   167 C    1.388   194 H    0.972
                           171 C    0.100
   169   6 C    3.994 --   170 C    1.450   168 C    1.440   195 H    0.972
                           175 C    0.104
   170   6 C    3.985 --   169 C    1.450   171 C    1.388   196 H    0.969
                           167 C    0.102
   171   6 C    3.988 --   175 C    1.399   170 C    1.388   172 C    1.005
                           168 C    0.100
   172   6 C    3.836 --   174 O    1.693   173 O    1.090   171 C    1.005
   173   8 O    2.099 --   172 C    1.090   197 H    0.838   174 O    0.129
   174   8 O    1.961 --   172 C    1.693   173 O    0.129
   175   6 C    3.985 --   167 C    1.407   171 C    1.399   198 H    0.969
                           169 C    0.104
   176   6 C    3.917 --   166 C    1.339   180 N    1.284   177 C    1.125
   177   6 C    3.966 --   178 C    1.710   176 C    1.125   199 H    0.974
   178   6 C    3.963 --   177 C    1.710   179 C    1.129   200 H    0.974
   179   6 C    3.908 --   180 N    1.345   139 C    1.253   178 C    1.129
   180   7 N    3.009 --   179 C    1.345   176 C    1.284
   181   1 H    1.002 --   141 C    0.975
   182   1 H    1.004 --   142 C    0.974
   183   1 H    0.987 --   144 N    0.874
   184   1 H    1.007 --   147 C    0.968
   185   1 H    0.873 --   150 O    0.838
   186   1 H    1.005 --   152 C    0.970
   187   1 H    1.001 --   153 C    0.972
   188   1 H    1.004 --   154 C    0.973
   189   1 H    1.004 --   156 C    0.973
   190   1 H    1.002 --   157 C    0.974
   191   1 H    1.002 --   162 C    0.975
   192   1 H    1.004 --   163 C    0.974
   193   1 H    0.987 --   165 N    0.874
   194   1 H    1.005 --   168 C    0.972
   195   1 H    1.002 --   169 C    0.972
   196   1 H    1.005 --   170 C    0.969
   197   1 H    0.873 --   173 O    0.838
   198   1 H    1.007 --   175 C    0.969
   199   1 H    1.004 --   177 C    0.974
   200   1 H    1.002 --   178 C    0.974
 ---------------------------------------------------------------------------

           -------------------------------------------------
          | TOTAL ENERGY             -368.799792059449 Eh   |
          | GRADIENT NORM               0.000660657354 Eh/α |
          | HOMO-LUMO GAP               0.876263268501 eV   |
           -------------------------------------------------

 * finished run on 2022/07/27 at 22:21:59.825
