   * xtb version 6.5.1 (b24c23e) compiled by 'conda@728c89f4b128' on 2022-07-12
          program call               : xtb DHP_C8_2.xyz --gfn 1 --opt -T 48

   ID    Z sym.   atoms
    1    6 C      1-5, 7-10, 12-16, 18-23, 25-28, 30-35, 60-64, 66-69, 71-75,
                  77-82, 84-87, 89-94, 119-126
    2    7 N      6, 11, 17, 24, 29, 36, 65, 70, 76, 83, 88, 95
    3    1 H      37-59, 96-118
########################################################################
[WARNING] Please study the warnings concerning your input carefully
-1- prog_main_parseArguments: Unknown option '-T' provided
########################################################################

          :  Hamiltonian                  GFN1-xTB          :
 * total energy  :  -206.1401277 Eh     change        0.1986962E-09 Eh
 * total energy  :  -206.3493562 Eh     change       -0.2092285E+00 Eh
 * total energy  :  -206.4260538 Eh     change       -0.7669757E-01 Eh
 * total energy  :  -206.4518288 Eh     change       -0.2577505E-01 Eh
 * total energy  :  -206.4633434 Eh     change       -0.1151453E-01 Eh
 * total energy  :  -206.4703385 Eh     change       -0.6995123E-02 Eh
 * total energy  :  -206.4738646 Eh     change       -0.3526075E-02 Eh
 * total energy  :  -206.4754277 Eh     change       -0.1563115E-02 Eh
 * total energy  :  -206.4771112 Eh     change       -0.1683548E-02 Eh
 * total energy  :  -206.4786118 Eh     change       -0.1500590E-02 Eh
 * total energy  :  -206.4877268 Eh     change       -0.2408501E-04 Eh
 * total energy  :  -206.4877691 Eh     change       -0.4229592E-04 Eh
 * total energy  :  -206.4877890 Eh     change       -0.1987385E-04 Eh
 * total energy  :  -206.4878016 Eh     change       -0.1256590E-04 Eh
 * total energy  :  -206.4878038 Eh     change       -0.2200453E-05 Eh
 * total energy  :  -206.4878026 Eh     change        0.1121243E-05 Eh
 * total energy  :  -206.4878093 Eh     change       -0.6684743E-05 Eh
 * total energy  :  -206.4878185 Eh     change       -0.9132087E-05 Eh
 * total energy  :  -206.4878224 Eh     change       -0.3908374E-05 Eh
   *** GEOMETRY OPTIMIZATION CONVERGED AFTER 48 ITERATIONS ***

 final structure:
================
126
 xtb: 6.5.1 (b24c23e)
C            8.01659661204766        0.05536690989407        0.08703191648033
C            8.62469913112688        1.23748791478461        0.48943536091191
C            7.97169456328127        2.42460624997144        0.92493126502443
C            8.93268569186692        3.35309947087584        1.21194044824878
C           10.20397435848917        2.76586190220117        0.95427952602301
N            9.96724879267961        1.48840936733589        0.53069709993346
C           11.46572662420695        3.34875846055060        1.11664172591359
C           11.49958304808539        4.76653742573509        1.55251404271566
C           10.95813333288978        5.74332753177886        0.80928187789427
C           10.97308631258631        7.18788934209667        1.23743988953165
N           11.95632519099242        7.41377344641660        2.29994295338280
C           12.32712566748697        6.39150878781689        3.13437117696357
C           12.15886882583280        5.09793683475047        2.80755709039192
C           12.68066824781286        2.69563097176298        0.89744752194050
C           13.97815037328840        3.33093601310338        1.03881472031822
C           14.89921182419899        2.39048847770034        0.74380576955425
N           12.83542205521727        1.39995776405875        0.50667291854624
C           14.16280437708423        1.18598046011526        0.41198141666445
C           14.80053055210765       -0.01724504609316        0.04596528346330
C           14.16582094156433       -1.21317788076414       -0.34164966499472
C           14.81181728153726       -2.42321175811210       -0.70813698813549
C           13.84585453703445       -3.33497675757521       -1.03369827580033
C           12.57935157731756       -2.70689329469147       -0.87998242419829
N           12.82494192626608       -1.42749381847823       -0.45481679995913
C           11.31878325219300       -3.27850815034126       -1.08565860730751
C           11.29640839134946       -4.67957197558869       -1.57020310283944
C           10.72544907945701       -5.66397771132048       -0.85993176004417
C           10.68065632656421       -7.08961222967764       -1.34487390854776
N           11.64650156543557       -7.31266514245005       -2.42423511889574
C           12.05061224199727       -6.27298241665233       -3.22109767508001
C           11.93645993261030       -4.98797154720786       -2.84175412130900
C           10.10196448027789       -2.62405388968372       -0.86745406201982
C            8.79663474618970       -3.21099934359347       -1.12624264290454
C            7.88331020225630       -2.27874094807173       -0.78672121080013
C            8.62931191708575       -1.11728993331301       -0.33639220384633
N            9.96123615838515       -1.35847547364008       -0.40493500713356
H            6.93117481419208        0.05978213252239        0.10059661486982
H            6.90250898204905        2.53885237914900        1.00788623371289
H            8.78117722334087        4.35523624731812        1.57902942111817
H           10.69320549148031        0.82379491449101        0.28466434953749
H           10.47128920015608        5.53814092645258       -0.13710258970591
H            9.96686905560874        7.49618336704758        1.57894808772582
H           11.23828066762914        7.83144003409193        0.38779184779332
H           11.90557219228676        8.33302206862414        2.71455948428252
H           12.84199393123588        6.70488313021084        4.03694733156432
H           12.50260505115994        4.30339125711026        3.45443464865402
H           14.13977768969450        4.35927928716632        1.31884231352932
H           15.97376094207676        2.47994356771193        0.73581814145649
H           15.88005706876961       -2.56857672482414       -0.71561387117402
H           13.99357500468892       -4.35552344346813       -1.34730341707494
H           12.10237024328126       -0.74623394056142       -0.24653736234477
H           10.25277085235338       -5.47742551893020        0.09725464321847
H            9.66072751331365       -7.34377461693464       -1.68967088356145
H           10.92593685175636       -7.77641736670862       -0.52363668529488
H           11.55021143060394       -8.20986973902653       -2.87750095355199
H           12.54542138202047       -6.56987620721074       -4.14041211779651
H           12.30466764683671       -4.18287736765758       -3.46176968462827
H            8.62675109226048       -4.19807479775626       -1.52522889786288
H            6.80712601812198       -2.33779559550730       -0.83638691985564
C           33.32710257904038       -0.09703992455555        0.04832306538380
C           32.71904839374420       -1.31338282418031       -0.23431501505679
C           33.37204457000442       -2.55166325537708       -0.49046214306170
C           32.41109145873657       -3.49152726439433       -0.73783362338942
C           31.13984147070500       -2.85651472039376       -0.64772686926220
N           31.37653997689397       -1.54799088473446       -0.33299699825586
C           29.87814902553305       -3.43730629293350       -0.81789545440290
C           29.84455888361979       -4.87159148225786       -1.19597620531773
C           30.38566330403592       -5.30875170979107       -2.34304429483718
C           30.37114924120722       -6.76169925415079       -2.74186280050424
N           29.38914981468199       -7.51502908657409       -1.95771516662539
C           29.01862077093291       -7.08714720363172       -0.70936039631888
C           29.18616163348765       -5.81573809399811       -0.30451207606133
C           28.66312453879134       -2.76700844760492       -0.65949157070779
C           27.36574158006935       -3.38168740710856       -0.87398012317798
C           26.44450877049923       -2.42726973709922       -0.62848819878099
N           28.50815725870594       -1.46004426242456       -0.30838824876099
C           27.18072951963919       -1.22860915967400       -0.27577992607508
C           26.54282277346213       -0.01310524747159        0.04687140372489
C           27.17751570429378        1.20774122424896        0.34697833972644
C           26.53145762928531        2.42953163621565        0.67195999630402
C           27.49742181788619        3.37605410820068        0.87550952308196
C           28.76395332104476        2.76095169059625        0.67642363155535
N           28.51839741925317        1.44938931923409        0.36424204747437
C           30.02450812009286        3.35495508220893        0.80386873041634
C           30.04666716055478        4.80121579832339        1.12969698840734
C           30.61525429458169        5.26394049459647        2.25312801917120
C           30.65973223693392        6.73130948667663        2.59145254838218
N           29.69515832134131        7.48921018774095        1.78970506803951
C           29.29377904211255        7.02517597685198        0.56380605231917
C           29.40877554320164        5.73305864181334        0.20971592199769
C           31.24139064066617        2.68347583559916        0.64636017007921
C           32.54670333465484        3.31842791988317        0.73773566451700
C           33.46015619419141        2.34699131992019        0.53657661464344
C           32.71425769636257        1.12274259945832        0.30604944389877
N           31.38228952362884        1.36407487372611        0.37287900868676
H           34.41250409815017       -0.10818916427976        0.05897169326829
H           34.44119341718116       -2.69268750143042       -0.47928658023324
H           32.56255608911886       -4.53645582580431       -0.95504581977775
H           30.65064411648831       -0.85343814147415       -0.19181742781525
H           30.87200362699734       -4.63479932591663       -3.03876438376887
H           31.37776681157031       -7.20318542452647       -2.61549806185031
H           30.10502491864705       -6.85996078033832       -3.80296803897172
H           29.44068748543522       -8.51463426963510       -2.09049531834281
H           28.50461732403114       -7.82994478518487       -0.10770734666814
H           28.84263202768251       -5.48236580693011        0.66438298182671
H           27.20425799262534       -4.40318331396582       -1.17811946724388
H           25.36995688538861       -2.49935026143201       -0.68206961691755
H           25.46321441414867        2.55725470709136        0.74157056780892
H           27.34971765588048        4.40887855387582        1.14590495586906
H           29.24084626974878        0.76029672969881        0.18308961909112
H           31.08618053207458        4.60120629810306        2.96966883165072
H           31.67994589998700        7.12880575715258        2.43362998971363
H           30.41283726851532        6.88295781355075        3.65084360579709
H           29.79102208167413        8.49063244790387        1.87726190543748
H           28.80027810929035        7.76170925739547       -0.06236578817768
H           29.04265070355769        5.37515972755277       -0.74213778170259
H           32.71648893508587        4.36755958053687        0.91904355572682
H           34.53637357574455        2.42311721548816        0.52719609431955
C           16.20523061867287       -0.03338935559250        0.05580047301925
C           17.43009274772302       -0.04134881087879        0.06921957300834
C           18.77207430065237       -0.04130322087678        0.08137148618216
C           20.00304260864174       -0.03257965163238        0.08956585276185
C           21.34033213384883       -0.02305299683762        0.09196528414318
C           22.57130310575851       -0.01164693760796        0.08883086031006
C           23.91329043386464       -0.00540174254921        0.07944536607498
C           25.13815676421923       -0.00486771540412        0.06427864350614

          :  Hamiltonian                  GFN1-xTB          :
         :: total energy            -206.487822366418 Eh    ::
         :: gradient norm              0.000402216693 Eh/a0 ::
         :: HOMO-LUMO gap              0.929042272155 eV    ::
         :: SCC energy              -209.910131723727 Eh    ::
         :: repulsion energy           3.524079552101 Eh    ::

    * Orbital Energies and Occupations

         #    Occupation            Energy/Eh            Energy/eV
      -------------------------------------------------------------
         1        2.0000           -0.7957679             -21.6539
       ...           ...                  ...                  ...
       177        2.0000           -0.4085013             -11.1159
       178        2.0000           -0.4072610             -11.0821
       179        2.0000           -0.4072422             -11.0816
       180        2.0000           -0.4046829             -11.0120
       181        2.0000           -0.3992139             -10.8632
       182        2.0000           -0.3909015             -10.6370
       183        2.0000           -0.3906539             -10.6302
       184        2.0000           -0.3796530             -10.3309
       185        2.0000           -0.3733660             -10.1598
       186        2.0000           -0.3704173             -10.0796
       187        2.0000           -0.3703395             -10.0775
       188        2.0000           -0.3690289             -10.0418
       189        2.0000           -0.3673700              -9.9966 (HOMO)
       190                         -0.3332283              -9.0676 (LUMO)
       191                         -0.3238466              -8.8123
       192                         -0.3223109              -8.7705
       193                         -0.3220648              -8.7638
       194                         -0.2953437              -8.0367
       195                         -0.2921973              -7.9511
       196                         -0.2871382              -7.8134
       197                         -0.2698298              -7.3424
       198                         -0.2650400              -7.2121
       199                         -0.2649613              -7.2100
       200                         -0.2636696              -7.1748
       ...                                ...                  ...
       412                          1.6137211              43.9116
      -------------------------------------------------------------
                  HL-Gap            0.0341417 Eh            0.9290 eV

Wiberg/Mayer (AO) data.
largest (>0.10) Wiberg bond orders for each atom

     #   Z sym  total        # sym  WBO       # sym  WBO       # sym  WBO
 ---------------------------------------------------------------------------
     1   6 C    3.922 --    35 C    1.364     2 C    1.347    37 H    0.971
     2   6 C    3.904 --     1 C    1.347     3 C    1.230     6 N    1.170
     3   6 C    3.953 --     4 C    1.593     2 C    1.230    38 H    0.977
     4   6 C    3.960 --     3 C    1.593     5 C    1.236    39 H    0.975
     5   6 C    3.896 --     7 C    1.303     4 C    1.236     6 N    1.176
     6   7 N    3.468 --     5 C    1.176     2 C    1.170    40 H    0.873
     7   6 C    3.940 --    14 C    1.336     5 C    1.303     8 C    1.026
     8   6 C    3.988 --     9 C    1.767    13 C    1.098     7 C    1.026
     9   6 C    3.970 --     8 C    1.767    10 C    1.013    41 H    0.972
    10   6 C    3.961 --     9 C    1.013    43 H    0.976    42 H    0.966
                            11 N    0.949
    11   7 N    3.248 --    12 C    1.161    10 C    0.949    44 H    0.928
                            13 C    0.127
    12   6 C    3.958 --    13 C    1.691    11 N    1.161    45 H    0.971
    13   6 C    3.967 --    12 C    1.691     8 C    1.098    46 H    0.974
                            11 N    0.127
    14   6 C    3.913 --     7 C    1.336    17 N    1.284    15 C    1.126
    15   6 C    3.966 --    16 C    1.710    14 C    1.126    47 H    0.973
    16   6 C    3.964 --    15 C    1.710    18 C    1.128    48 H    0.974
    17   7 N    3.021 --    18 C    1.345    14 C    1.284
    18   6 C    3.907 --    17 N    1.345    19 C    1.252    16 C    1.128
    19   6 C    3.936 --    18 C    1.252    20 C    1.249   119 C    1.194
    20   6 C    3.885 --    21 C    1.250    19 C    1.249    24 N    1.191
    21   6 C    3.959 --    22 C    1.581    20 C    1.250    49 H    0.975
    22   6 C    3.955 --    21 C    1.581    23 C    1.243    50 H    0.974
    23   6 C    3.897 --    25 C    1.308    22 C    1.243    24 N    1.164
    24   7 N    3.474 --    20 C    1.191    23 C    1.164    51 H    0.873
    25   6 C    3.926 --    32 C    1.322    23 C    1.308    26 C    1.029
    26   6 C    3.988 --    27 C    1.766    31 C    1.097    25 C    1.029
    27   6 C    3.970 --    26 C    1.766    28 C    1.013    52 H    0.972
    28   6 C    3.961 --    27 C    1.013    54 H    0.976    53 H    0.966
                            29 N    0.949
    29   7 N    3.248 --    30 C    1.161    28 C    0.949    55 H    0.928
                            31 C    0.127
    30   6 C    3.958 --    31 C    1.692    29 N    1.161    56 H    0.971
    31   6 C    3.967 --    30 C    1.692    26 C    1.097    57 H    0.974
                            29 N    0.127
    32   6 C    3.929 --    25 C    1.322    36 N    1.315    33 C    1.119
    33   6 C    3.967 --    34 C    1.720    32 C    1.119    58 H    0.974
    34   6 C    3.967 --    33 C    1.720    35 C    1.118    59 H    0.976
    35   6 C    3.932 --     1 C    1.364    36 N    1.302    34 C    1.118
    36   7 N    3.011 --    32 C    1.315    35 C    1.302
    37   1 H    1.002 --     1 C    0.971
    38   1 H    0.998 --     3 C    0.977
    39   1 H    1.007 --     4 C    0.975
    40   1 H    0.986 --     6 N    0.873
    41   1 H    1.003 --     9 C    0.972
    42   1 H    1.008 --    10 C    0.966
    43   1 H    1.019 --    10 C    0.976
    44   1 H    0.964 --    11 N    0.928
    45   1 H    1.001 --    12 C    0.971
    46   1 H    1.003 --    13 C    0.974
    47   1 H    1.006 --    15 C    0.973
    48   1 H    1.003 --    16 C    0.974
    49   1 H    1.002 --    21 C    0.975
    50   1 H    1.006 --    22 C    0.974
    51   1 H    0.988 --    24 N    0.873
    52   1 H    1.003 --    27 C    0.972
    53   1 H    1.007 --    28 C    0.966
    54   1 H    1.019 --    28 C    0.976
    55   1 H    0.964 --    29 N    0.928
    56   1 H    1.001 --    30 C    0.971
    57   1 H    1.003 --    31 C    0.974
    58   1 H    1.007 --    33 C    0.974
    59   1 H    0.999 --    34 C    0.976
    60   6 C    3.922 --    94 C    1.364    61 C    1.347    96 H    0.971
    61   6 C    3.904 --    60 C    1.347    62 C    1.230    65 N    1.170
    62   6 C    3.953 --    63 C    1.593    61 C    1.230    97 H    0.977
    63   6 C    3.960 --    62 C    1.593    64 C    1.236    98 H    0.975
    64   6 C    3.896 --    66 C    1.303    63 C    1.236    65 N    1.176
    65   7 N    3.468 --    64 C    1.176    61 C    1.170    99 H    0.873
    66   6 C    3.940 --    73 C    1.336    64 C    1.303    67 C    1.026
    67   6 C    3.988 --    68 C    1.767    72 C    1.098    66 C    1.026
    68   6 C    3.970 --    67 C    1.767    69 C    1.013   100 H    0.972
    69   6 C    3.961 --    68 C    1.013   102 H    0.976   101 H    0.966
                            70 N    0.949
    70   7 N    3.249 --    71 C    1.161    69 C    0.949   103 H    0.928
                            72 C    0.127
    71   6 C    3.958 --    72 C    1.691    70 N    1.161   104 H    0.971
    72   6 C    3.967 --    71 C    1.691    67 C    1.098   105 H    0.974
                            70 N    0.127
    73   6 C    3.913 --    66 C    1.336    76 N    1.284    74 C    1.126
    74   6 C    3.966 --    75 C    1.710    73 C    1.126   106 H    0.973
    75   6 C    3.964 --    74 C    1.710    77 C    1.128   107 H    0.974
    76   7 N    3.021 --    77 C    1.345    73 C    1.284
    77   6 C    3.907 --    76 N    1.345    78 C    1.252    75 C    1.128
    78   6 C    3.936 --    77 C    1.252    79 C    1.249   126 C    1.194
    79   6 C    3.885 --    80 C    1.250    78 C    1.249    83 N    1.191
    80   6 C    3.959 --    81 C    1.581    79 C    1.250   108 H    0.975
    81   6 C    3.955 --    80 C    1.581    82 C    1.243   109 H    0.974
    82   6 C    3.897 --    84 C    1.308    81 C    1.243    83 N    1.164
    83   7 N    3.474 --    79 C    1.191    82 C    1.164   110 H    0.873
    84   6 C    3.926 --    91 C    1.322    82 C    1.308    85 C    1.028
    85   6 C    3.988 --    86 C    1.766    90 C    1.097    84 C    1.028
    86   6 C    3.970 --    85 C    1.766    87 C    1.013   111 H    0.972
    87   6 C    3.961 --    86 C    1.013   113 H    0.976   112 H    0.966
                            88 N    0.949
    88   7 N    3.247 --    89 C    1.161    87 C    0.949   114 H    0.928
                            90 C    0.127
    89   6 C    3.958 --    90 C    1.692    88 N    1.161   115 H    0.971
    90   6 C    3.967 --    89 C    1.692    85 C    1.097   116 H    0.974
                            88 N    0.127
    91   6 C    3.929 --    84 C    1.322    95 N    1.315    92 C    1.119
    92   6 C    3.967 --    93 C    1.720    91 C    1.119   117 H    0.974
    93   6 C    3.967 --    92 C    1.720    94 C    1.118   118 H    0.976
    94   6 C    3.932 --    60 C    1.364    95 N    1.302    93 C    1.118
    95   7 N    3.011 --    91 C    1.315    94 C    1.302
    96   1 H    1.002 --    60 C    0.971
    97   1 H    0.998 --    62 C    0.977
    98   1 H    1.007 --    63 C    0.975
    99   1 H    0.986 --    65 N    0.873
   100   1 H    1.003 --    68 C    0.972
   101   1 H    1.008 --    69 C    0.966
   102   1 H    1.019 --    69 C    0.976
   103   1 H    0.964 --    70 N    0.928
   104   1 H    1.001 --    71 C    0.971
   105   1 H    1.003 --    72 C    0.974
   106   1 H    1.006 --    74 C    0.973
   107   1 H    1.003 --    75 C    0.974
   108   1 H    1.002 --    80 C    0.975
   109   1 H    1.006 --    81 C    0.974
   110   1 H    0.988 --    83 N    0.873
   111   1 H    1.003 --    86 C    0.972
   112   1 H    1.007 --    87 C    0.966
   113   1 H    1.019 --    87 C    0.976
   114   1 H    0.964 --    88 N    0.928
   115   1 H    1.001 --    89 C    0.971
   116   1 H    1.003 --    90 C    0.974
   117   1 H    1.007 --    92 C    0.974
   118   1 H    0.999 --    93 C    0.976
   119   6 C    3.877 --   120 C    2.434    19 C    1.194   122 C    0.186
   120   6 C    3.932 --   119 C    2.434   121 C    1.347
   121   6 C    3.892 --   122 C    2.332   120 C    1.347   124 C    0.182
   122   6 C    3.924 --   121 C    2.332   123 C    1.372   119 C    0.186
   123   6 C    3.924 --   124 C    2.332   122 C    1.372   126 C    0.186
   124   6 C    3.892 --   123 C    2.332   125 C    1.347   121 C    0.182
   125   6 C    3.932 --   126 C    2.434   124 C    1.347
   126   6 C    3.877 --   125 C    2.434    78 C    1.194   123 C    0.186
 ---------------------------------------------------------------------------

           -------------------------------------------------
          | TOTAL ENERGY             -206.487822366418 Eh   |
          | GRADIENT NORM               0.000402216693 Eh/α |
          | HOMO-LUMO GAP               0.929042272155 eV   |
           -------------------------------------------------

 * finished run on 2022/07/28 at 08:49:08.246
