   * xtb version 6.5.1 (b24c23e) compiled by 'conda@728c89f4b128' on 2022-07-12
          program call               : xtb Zn_NMA_C8_2.xyz --gfn 1 --opt -T 48

   ID    Z sym.   atoms
    1   30 Zn     1, 67
    2    6 C      2-6, 8-12, 14-19, 21-26, 28-32, 34-40, 68-72, 74-78, 80-85,
                  87-92, 94-98, 100-106, 133-140
    3    7 N      7, 13, 20, 27, 33, 41, 73, 79, 86, 93, 99, 107
    4    1 H      42-66, 108-132
########################################################################
[WARNING] Please study the warnings concerning your input carefully
-1- prog_main_parseArguments: Unknown option '-T' provided
########################################################################

          :  Hamiltonian                  GFN1-xTB          :
 * total energy  :  -208.4752595 Eh     change        0.3101945E-09 Eh
 * total energy  :  -222.8465923 Eh     change       -0.1437133E+02 Eh
 * total energy  :  -224.5228976 Eh     change       -0.1676305E+01 Eh
 * total energy  :  -225.4847451 Eh     change       -0.9618475E+00 Eh
 * total energy  :  -226.0480723 Eh     change       -0.5633272E+00 Eh
 * total energy  :  -226.3468890 Eh     change       -0.2988167E+00 Eh
 * total energy  :  -226.5326699 Eh     change       -0.1857809E+00 Eh
 * total energy  :  -226.6734600 Eh     change       -0.1407900E+00 Eh
 * total energy  :  -226.7872117 Eh     change       -0.1137517E+00 Eh
 * total energy  :  -226.8917199 Eh     change       -0.1045082E+00 Eh
 * total energy  :  -227.3325578 Eh     change       -0.1956759E-04 Eh
 * total energy  :  -227.3325808 Eh     change       -0.2296589E-04 Eh
 * total energy  :  -227.3326085 Eh     change       -0.2768864E-04 Eh
 * total energy  :  -227.3326408 Eh     change       -0.3233617E-04 Eh
 * total energy  :  -227.3326755 Eh     change       -0.3469138E-04 Eh
 * total energy  :  -227.3327087 Eh     change       -0.3322645E-04 Eh
 * total energy  :  -227.3327372 Eh     change       -0.2846124E-04 Eh
 * total energy  :  -227.3327595 Eh     change       -0.2235520E-04 Eh
 * total energy  :  -227.3327611 Eh     change       -0.1626539E-05 Eh
   *** GEOMETRY OPTIMIZATION CONVERGED AFTER 94 ITERATIONS ***

 final structure:
================
140
 xtb: 6.5.1 (b24c23e)
Zn          15.02692667459372        0.03130170479932        0.00248821939265
C           11.61928288767050        0.08117052269137       -0.05183752590923
C           12.23815509710143        1.01626329801782        0.76966327272704
C           11.55330453648371        1.95637234520740        1.61122901923181
C           12.50433954033159        2.68558287460018        2.24801914740541
C           13.78276375473426        2.20848872930452        1.79268655843119
N           13.58584237459322        1.18982868882107        0.90651522130830
C           15.02865694855189        2.69884056937448        2.20667839436699
C           15.03559580880210        3.84027403663893        3.15288837036710
C           14.44579599044550        5.05982887904797        2.80941467069581
C           14.47042701159202        6.12905233780203        3.68511929319532
C           15.07823090252402        6.00715183657688        4.94061224881403
N           15.12839275214738        7.12467093761430        5.76170581418604
C           15.30020191851972        6.95641209021928        7.19841533207869
C           15.66960311791227        4.78978874816280        5.28970236049163
C           15.64581420028063        3.72629165201448        4.40343112755311
C           16.27192355968301        2.20260270132950        1.79750705192503
C           17.54685050638066        2.75091220304939        2.16933770917280
C           18.50000437543540        1.99504149096999        1.56646139711793
N           16.47539051014220        1.13593938414818        0.96223621546822
C           17.81828233071689        0.98513362882996        0.81261142553956
C           18.45849408556865       -0.00831728405132        0.04412532089964
C           17.81434244842601       -0.99069454576994       -0.73541339390224
C           18.49060539669923       -2.02089200591186       -1.46636857596622
C           17.53501907042261       -2.75981488656727       -2.08617870432757
C           16.26453988501634       -2.17925754944271       -1.74979267156863
N           16.47235238598316       -1.11201905736169       -0.91623076922824
C           15.02048733487940       -2.64611552856102       -2.18985986196684
C           15.02267389394460       -3.79658324319800       -3.12505137344553
C           15.67148690217719       -3.71318127862094       -4.35840457187054
C           15.69129538696159       -4.78668193704341       -5.23265359794877
C           15.05662909491907       -5.98347309627897       -4.88853037306879
N           15.09985662705980       -7.11136484645039       -5.69571120184662
C           15.32199760516964       -6.96543815699466       -7.12787335994367
C           14.40909387981260       -6.07450600599892       -3.65037423887798
C           14.38889063073366       -4.99540222429091       -2.78680104242287
C           13.77707004358016       -2.11766186015186       -1.81728837824832
C           12.50046739952549       -2.55919879613040       -2.31186073774094
C           11.55152842236352       -1.79735323533182       -1.71116055081735
C           12.23639102731846       -0.87398297041444       -0.85126821955939
N           13.58202786555182       -1.08850368839575       -0.94298682278052
H           10.53374937580462        0.09773731592402       -0.06998381108835
H           10.48107152783955        2.03348188524975        1.70356530326856
H           12.35681130280606        3.46991167859104        2.97327426435665
H           13.98374626258284        5.17436023600875        1.83483609752962
H           14.02046393030566        7.07432316561191        3.40006442873697
H           14.41515396049277        7.80765933610169        5.53629193792897
H           16.30464857539544        6.58995181595660        7.41428003394456
H           14.56452583684200        6.25820286850200        7.61401730835952
H           15.17683029642393        7.93199054877741        7.66874605070661
H           16.15270783206064        4.66602678299462        6.25118561825810
H           16.09442013096653        2.78198377610387        4.69272934976707
H           17.69386781903019        3.61431419116292        2.79795299927661
H           19.57105998963539        2.11090755808986        1.61631859557337
H           19.55959310009674       -2.16152897855638       -1.48968970581970
H           17.67732512503537       -3.63130180232823       -2.70462830047877
H           16.15408990181202       -2.78475941238855       -4.64433971104233
H           16.20505295451665       -4.68660693946916       -6.18089785576547
H           14.36035951449459       -7.77094815723873       -5.48576561079630
H           14.61585371128479       -6.25689579209121       -7.57599466007188
H           15.19264579418716       -7.94415514874099       -7.59004699898577
H           16.34076396899596       -6.62367722971389       -7.31491016470052
H           13.92470054346924       -7.00374039108416       -3.36903851574387
H           13.89551207586179       -5.08624121932369       -1.82515780306676
H           12.35340462524667       -3.34321515142297       -3.03755827052661
H           10.48111106118233       -1.84236831237202       -1.83893804422174
Zn          33.63024904637023       -0.01241626237264       -0.03112152035306
C           37.03792243272022        0.03096560630600       -0.08731211602912
C           36.42034400587653       -0.97441570999385       -0.82219668965916
C           37.10648766160921       -1.99969769547084       -1.55641856228845
C           36.15646100707945       -2.77979588465867       -2.13139987689165
C           34.87738194262540       -2.23226578869444       -1.76605689097496
N           35.07289312911821       -1.14601628220241       -0.96381833446057
C           33.63216596179154       -2.74396787819379       -2.15546572894309
C           33.62661339883301       -3.91612515193450       -3.06335868317009
C           34.21616427100378       -3.84647272403392       -4.32853651032632
C           34.19245181911972       -4.93447755404476       -5.18086623032851
C           33.58591038571093       -6.13371798110818       -4.78781756721523
N           33.53652311966523       -7.17899831286841       -5.69915677902768
C           33.36556852416277       -8.54440791621323       -5.22125892253127
C           32.99487857995928       -6.20932509928426       -3.52349312760440
C           33.01772866823285       -5.11230165762246       -2.67909337295666
C           32.38821364880013       -2.23830638907792       -1.76012211249950
C           31.11391525120574       -2.72253159769737       -2.21405585943852
C           30.15972361767590       -1.97148763660069       -1.60679634215752
N           32.18331779921931       -1.19154266454114       -0.90039506692177
C           30.84016436289627       -1.01495004136813       -0.78523275728283
C           30.19872876010564       -0.04938470454228        0.01699638556064
C           30.84160978356484        0.92686001487548        0.80525989273405
C           30.16404409294141        1.86442442990412        1.65073522855151
C           31.11850511621204        2.63275023432142        2.23552927440303
C           32.38959528626122        2.17944424160508        1.74243142193323
N           32.18327542266743        1.13209347477532        0.88364965690775
C           33.63290915617279        2.71259276272245        2.10187212338775
C           33.62921132638581        3.87661917360205        3.02010922559049
C           32.97888347008922        5.06125958687278        2.66972642080323
C           32.95783637363414        6.14861669836304        3.52669581150886
C           33.59276364118121        6.07465026617449        4.76964920617014
N           33.54843106276519        7.10829617590510        5.69436263973363
C           33.32428273111459        8.47390205210634        5.23982555421396
C           34.24181775645206        4.88698151577130        5.12851679317294
C           34.26319418753225        3.80885111596837        4.26380418318006
C           34.87703360608844        2.23430445364734        1.66874770513393
C           36.15301671202288        2.81403656435106        1.99286812603547
C           37.10304290761812        2.06112433417419        1.38269654508177
C           36.41947609579712        1.01964619247537        0.66918342886754
N           35.07352914479307        1.15588105259738        0.85633268907651
H           38.12348509620718        0.04516560638492       -0.10563908483721
H           38.17882734712349       -2.10625650535849       -1.61017623788047
H           36.30503446007572       -3.65777608958483       -2.73968503982930
H           34.67732205295619       -2.91996587194214       -4.65308750125931
H           34.64216229103041       -4.86214968720254       -6.16564765898557
H           34.24980370073370       -7.10771320232564       -6.41480123117400
H           32.36163742134815       -8.67529003744366       -4.81532306978071
H           34.10222569038653       -8.79748109120774       -4.45005953081281
H           33.48803444403913       -9.21627544133810       -6.07083812559652
H           32.51277034344051       -7.12108241946337       -3.19271769846133
H           32.56939334643504       -5.18894026476658       -1.69432296453236
H           30.96796986278862       -3.52388699162837       -2.92028891582831
H           29.08874655853963       -2.04725271873765       -1.70849890042192
H           29.09502476071313        1.91604000882960        1.78335754344421
H           30.97507056607129        3.42690410074809        2.95034560699201
H           32.49611049167662        5.13725711635177        1.70132625359962
H           32.44292777374854        7.05158675738379        3.22229459955406
H           34.28804961849165        7.04810902732142        6.38379322815749
H           34.02883109152148        8.75727958856911        4.44939948785595
H           33.45455470670291        9.13857051952188        6.09390805795265
H           32.30475760445453        8.58099746293802        4.86723311821157
H           34.72639314042821        4.81570863394845        6.09669269898546
H           34.75756698208215        2.89071404638641        4.56222286282023
H           36.29901389766837        3.69407053690409        2.59881222152077
H           38.17340972349272        2.19585105881459        1.40030303445196
C           19.86244862749988       -0.02068131092065        0.05563170026391
C           21.08732864147845       -0.02937058544175        0.06113505163041
C           22.42917241639159       -0.04120076628943        0.06149135176936
C           23.65995618278011       -0.05227340646586        0.06466326630667
C           24.99717494638108       -0.05630549481612        0.06121281310747
C           26.22803902366735       -0.06142540371989        0.05243051989539
C           27.56989019353009       -0.06173846096293        0.04210639514791
C           28.79479532762484       -0.05964681481436        0.03199115234882

          :  Hamiltonian                  GFN1-xTB          :
         :: total energy            -227.332761148153 Eh    ::
         :: gradient norm              0.000576191674 Eh/a0 ::
         :: HOMO-LUMO gap              1.049514143046 eV    ::
         :: SCC energy              -231.059528715031 Eh    ::
         :: repulsion energy           3.843645951466 Eh    ::

    * Orbital Energies and Occupations

         #    Occupation            Energy/Eh            Energy/eV
      -------------------------------------------------------------
         1        2.0000           -0.7755787             -21.1046
       ...           ...                  ...                  ...
       197        2.0000           -0.4116182             -11.2007
       198        2.0000           -0.4116143             -11.2006
       199        2.0000           -0.4112346             -11.1903
       200        2.0000           -0.4034748             -10.9791
       201        2.0000           -0.3946519             -10.7390
       202        2.0000           -0.3915385             -10.6543
       203        2.0000           -0.3891127             -10.5883
       204        2.0000           -0.3880569             -10.5596
       205        2.0000           -0.3880551             -10.5595
       206        2.0000           -0.3840507             -10.4506
       207        2.0000           -0.3840498             -10.4505
       208        2.0000           -0.3732945             -10.1579
       209        2.0000           -0.3656632              -9.9502 (HOMO)
       210                         -0.3270943              -8.9007 (LUMO)
       211                         -0.3169881              -8.6257
       212                         -0.3157639              -8.5924
       213                         -0.3157632              -8.5924
       214                         -0.2899568              -7.8901
       215                         -0.2875377              -7.8243
       216                         -0.2814311              -7.6581
       217                         -0.2615827              -7.1180
       218                         -0.2529368              -6.8828
       219                         -0.2529357              -6.8827
       220                         -0.2529077              -6.8820
       ...                                ...                  ...
       460                          1.6191328              44.0588
      -------------------------------------------------------------
                  HL-Gap            0.0385689 Eh            1.0495 eV

Wiberg/Mayer (AO) data.
largest (>0.10) Wiberg bond orders for each atom

     #   Z sym  total        # sym  WBO       # sym  WBO       # sym  WBO
 ---------------------------------------------------------------------------
     1  30 Zn   2.000 --    41 N    0.460     7 N    0.460    20 N    0.457
                            27 N    0.457
     2   6 C    3.924 --    40 C    1.356     3 C    1.356    42 H    0.972
     3   6 C    3.923 --     2 C    1.356     7 N    1.232     4 C    1.174
     4   6 C    3.959 --     5 C    1.654     3 C    1.174    43 H    0.976
     5   6 C    3.963 --     4 C    1.654     6 C    1.176    44 H    0.973
     6   6 C    3.916 --     8 C    1.309     7 N    1.245     5 C    1.176
     7   7 N    3.293 --     6 C    1.245     3 C    1.232     1 Zn   0.460
     8   6 C    3.933 --    17 C    1.322     6 C    1.309     9 C    1.034
     9   6 C    3.988 --    16 C    1.384    10 C    1.375     8 C    1.034
    10   6 C    3.987 --    11 C    1.475     9 C    1.375    45 H    0.973
    11   6 C    3.989 --    10 C    1.475    12 C    1.346    46 H    0.972
                            16 C    0.100
    12   6 C    3.952 --    15 C    1.354    11 C    1.346    13 N    1.107
    13   7 N    3.178 --    12 C    1.107    14 C    0.972    47 H    0.931
    14   6 C    3.968 --    50 H    0.990    48 H    0.986    49 H    0.984
                            13 N    0.972
    15   6 C    3.990 --    16 C    1.464    12 C    1.354    51 H    0.970
    16   6 C    3.987 --    15 C    1.464     9 C    1.384    52 H    0.973
                            11 C    0.100
    17   6 C    3.911 --     8 C    1.322    20 N    1.224    18 C    1.181
    18   6 C    3.960 --    19 C    1.644    17 C    1.181    53 H    0.973
    19   6 C    3.961 --    18 C    1.644    21 C    1.188    54 H    0.974
    20   7 N    3.297 --    21 C    1.264    17 C    1.224     1 Zn   0.457
    21   6 C    3.902 --    20 N    1.264    22 C    1.251    19 C    1.188
    22   6 C    3.936 --    21 C    1.251    23 C    1.250   133 C    1.196
    23   6 C    3.902 --    27 N    1.264    22 C    1.250    24 C    1.188
    24   6 C    3.961 --    25 C    1.644    23 C    1.188    55 H    0.974
    25   6 C    3.960 --    24 C    1.644    26 C    1.181    56 H    0.973
    26   6 C    3.911 --    28 C    1.323    27 N    1.224    25 C    1.181
    27   7 N    3.297 --    23 C    1.264    26 C    1.224     1 Zn   0.457
    28   6 C    3.933 --    26 C    1.323    37 C    1.309    29 C    1.034
    29   6 C    3.988 --    30 C    1.384    36 C    1.375    28 C    1.034
    30   6 C    3.987 --    31 C    1.463    29 C    1.384    57 H    0.973
                            35 C    0.100
    31   6 C    3.990 --    30 C    1.463    32 C    1.354    58 H    0.970
    32   6 C    3.952 --    31 C    1.354    35 C    1.346    33 N    1.107
    33   7 N    3.178 --    32 C    1.107    34 C    0.972    59 H    0.931
    34   6 C    3.968 --    61 H    0.990    62 H    0.986    60 H    0.984
                            33 N    0.972
    35   6 C    3.989 --    36 C    1.475    32 C    1.346    63 H    0.972
                            30 C    0.100
    36   6 C    3.987 --    35 C    1.475    29 C    1.375    64 H    0.973
    37   6 C    3.916 --    28 C    1.309    41 N    1.245    38 C    1.176
    38   6 C    3.963 --    39 C    1.654    37 C    1.176    65 H    0.973
    39   6 C    3.959 --    38 C    1.654    40 C    1.174    66 H    0.976
    40   6 C    3.923 --     2 C    1.356    41 N    1.232    39 C    1.174
    41   7 N    3.293 --    37 C    1.245    40 C    1.232     1 Zn   0.460
    42   1 H    1.002 --     2 C    0.972
    43   1 H    0.999 --     4 C    0.976
    44   1 H    1.006 --     5 C    0.973
    45   1 H    1.005 --    10 C    0.973
    46   1 H    0.999 --    11 C    0.972
    47   1 H    0.966 --    13 N    0.931
    48   1 H    1.012 --    14 C    0.986
    49   1 H    1.004 --    14 C    0.984
    50   1 H    1.007 --    14 C    0.990
    51   1 H    1.001 --    15 C    0.970
    52   1 H    1.006 --    16 C    0.973
    53   1 H    1.006 --    18 C    0.973
    54   1 H    1.002 --    19 C    0.974
    55   1 H    1.002 --    24 C    0.974
    56   1 H    1.006 --    25 C    0.973
    57   1 H    1.006 --    30 C    0.973
    58   1 H    1.001 --    31 C    0.970
    59   1 H    0.966 --    33 N    0.931
    60   1 H    1.003 --    34 C    0.984
    61   1 H    1.007 --    34 C    0.990
    62   1 H    1.012 --    34 C    0.986
    63   1 H    0.999 --    35 C    0.972
    64   1 H    1.005 --    36 C    0.973
    65   1 H    1.006 --    38 C    0.973
    66   1 H    0.999 --    39 C    0.976
    67  30 Zn   2.000 --   107 N    0.460    73 N    0.460    86 N    0.457
                            93 N    0.457
    68   6 C    3.924 --    69 C    1.356   106 C    1.356   108 H    0.972
    69   6 C    3.923 --    68 C    1.356    73 N    1.232    70 C    1.174
    70   6 C    3.959 --    71 C    1.654    69 C    1.174   109 H    0.976
    71   6 C    3.963 --    70 C    1.654    72 C    1.176   110 H    0.973
    72   6 C    3.916 --    74 C    1.309    73 N    1.245    71 C    1.176
    73   7 N    3.293 --    72 C    1.245    69 C    1.232    67 Zn   0.460
    74   6 C    3.933 --    83 C    1.322    72 C    1.309    75 C    1.034
    75   6 C    3.988 --    82 C    1.384    76 C    1.375    74 C    1.034
    76   6 C    3.987 --    77 C    1.475    75 C    1.375   111 H    0.973
    77   6 C    3.989 --    76 C    1.475    78 C    1.346   112 H    0.972
                            82 C    0.100
    78   6 C    3.952 --    81 C    1.354    77 C    1.346    79 N    1.107
    79   7 N    3.178 --    78 C    1.107    80 C    0.972   113 H    0.931
    80   6 C    3.968 --   116 H    0.990   114 H    0.986   115 H    0.984
                            79 N    0.972
    81   6 C    3.990 --    82 C    1.464    78 C    1.354   117 H    0.970
    82   6 C    3.987 --    81 C    1.464    75 C    1.384   118 H    0.973
                            77 C    0.100
    83   6 C    3.911 --    74 C    1.322    86 N    1.224    84 C    1.181
    84   6 C    3.960 --    85 C    1.644    83 C    1.181   119 H    0.973
    85   6 C    3.961 --    84 C    1.644    87 C    1.188   120 H    0.974
    86   7 N    3.297 --    87 C    1.264    83 C    1.224    67 Zn   0.457
    87   6 C    3.902 --    86 N    1.264    88 C    1.251    85 C    1.188
    88   6 C    3.936 --    87 C    1.251    89 C    1.250   140 C    1.196
    89   6 C    3.902 --    93 N    1.264    88 C    1.250    90 C    1.188
    90   6 C    3.961 --    91 C    1.644    89 C    1.188   121 H    0.974
    91   6 C    3.960 --    90 C    1.644    92 C    1.181   122 H    0.973
    92   6 C    3.911 --    94 C    1.323    93 N    1.224    91 C    1.181
    93   7 N    3.297 --    89 C    1.264    92 C    1.224    67 Zn   0.457
    94   6 C    3.933 --    92 C    1.323   103 C    1.309    95 C    1.034
    95   6 C    3.988 --    96 C    1.384   102 C    1.375    94 C    1.034
    96   6 C    3.987 --    97 C    1.463    95 C    1.384   123 H    0.973
                           101 C    0.100
    97   6 C    3.990 --    96 C    1.463    98 C    1.354   124 H    0.970
    98   6 C    3.952 --    97 C    1.354   101 C    1.346    99 N    1.107
    99   7 N    3.178 --    98 C    1.107   100 C    0.972   125 H    0.931
   100   6 C    3.968 --   127 H    0.990   128 H    0.986   126 H    0.984
                            99 N    0.972
   101   6 C    3.989 --   102 C    1.475    98 C    1.346   129 H    0.972
                            96 C    0.100
   102   6 C    3.987 --   101 C    1.475    95 C    1.375   130 H    0.973
   103   6 C    3.916 --    94 C    1.309   107 N    1.245   104 C    1.176
   104   6 C    3.963 --   105 C    1.654   103 C    1.176   131 H    0.973
   105   6 C    3.959 --   104 C    1.654   106 C    1.174   132 H    0.976
   106   6 C    3.923 --    68 C    1.356   107 N    1.232   105 C    1.174
   107   7 N    3.293 --   103 C    1.245   106 C    1.232    67 Zn   0.460
   108   1 H    1.002 --    68 C    0.972
   109   1 H    0.999 --    70 C    0.976
   110   1 H    1.006 --    71 C    0.973
   111   1 H    1.005 --    76 C    0.973
   112   1 H    0.999 --    77 C    0.972
   113   1 H    0.966 --    79 N    0.931
   114   1 H    1.012 --    80 C    0.986
   115   1 H    1.004 --    80 C    0.984
   116   1 H    1.007 --    80 C    0.990
   117   1 H    1.001 --    81 C    0.970
   118   1 H    1.006 --    82 C    0.973
   119   1 H    1.006 --    84 C    0.973
   120   1 H    1.002 --    85 C    0.974
   121   1 H    1.002 --    90 C    0.974
   122   1 H    1.006 --    91 C    0.973
   123   1 H    1.006 --    96 C    0.973
   124   1 H    1.001 --    97 C    0.970
   125   1 H    0.966 --    99 N    0.931
   126   1 H    1.003 --   100 C    0.984
   127   1 H    1.007 --   100 C    0.990
   128   1 H    1.012 --   100 C    0.986
   129   1 H    0.999 --   101 C    0.972
   130   1 H    1.005 --   102 C    0.973
   131   1 H    1.006 --   104 C    0.973
   132   1 H    0.999 --   105 C    0.976
   133   6 C    3.876 --   134 C    2.434    22 C    1.196   136 C    0.186
   134   6 C    3.933 --   133 C    2.434   135 C    1.347
   135   6 C    3.892 --   136 C    2.332   134 C    1.347   138 C    0.182
   136   6 C    3.924 --   135 C    2.332   137 C    1.372   133 C    0.186
   137   6 C    3.924 --   138 C    2.332   136 C    1.372   140 C    0.186
   138   6 C    3.892 --   137 C    2.332   139 C    1.347   135 C    0.182
   139   6 C    3.933 --   140 C    2.434   138 C    1.347
   140   6 C    3.876 --   139 C    2.434    88 C    1.196   137 C    0.186
 ---------------------------------------------------------------------------

           -------------------------------------------------
          | TOTAL ENERGY             -227.332761148153 Eh   |
          | GRADIENT NORM               0.000576191674 Eh/α |
          | HOMO-LUMO GAP               1.049514143046 eV   |
           -------------------------------------------------

 * finished run on 2022/07/30 at 09:18:16.966
