   * xtb version 6.5.1 (b24c23e) compiled by 'conda@728c89f4b128' on 2022-07-12
          program call               : xtb Ni_PhNO2_C8_3.xyz --gfn 1 --opt -T 48

   ID    Z sym.   atoms
    1   28 Ni     1, 61, 137
    2    6 C      2-6, 8-12, 16-20, 22-27, 29-33, 37-42, 62-66, 68-72, 76-80,
                  82-87, 89-93, 97-102, 121-136, 138-142, 144-148, 152-156,
                  158-163, 165-169, 173-178
    3    7 N      7, 13, 21, 28, 34, 43, 67, 73, 81, 88, 94, 103, 143, 149,
                  157, 164, 170, 179
    4    8 O      14, 15, 35, 36, 74, 75, 95, 96, 150, 151, 171, 172
    5    1 H      44-60, 104-120, 180-195

          :  Hamiltonian                  GFN1-xTB          :
 * total energy  :  -387.1512381 Eh     change       -0.5742265E-08 Eh
 * total energy  :  -388.1119321 Eh     change       -0.9606940E+00 Eh
 * total energy  :  -388.4060651 Eh     change       -0.2941330E+00 Eh
 * total energy  :  -388.5530599 Eh     change       -0.1469947E+00 Eh
 * total energy  :  -388.6533018 Eh     change       -0.1002419E+00 Eh
 * total energy  :  -388.7427339 Eh     change       -0.8943210E-01 Eh
 * total energy  :  -388.7960575 Eh     change       -0.5332364E-01 Eh
 * total energy  :  -388.8304663 Eh     change       -0.3440873E-01 Eh
 * total energy  :  -388.8548881 Eh     change       -0.2442186E-01 Eh
 * total energy  :  -388.8687856 Eh     change       -0.1389743E-01 Eh
 * total energy  :  -388.9061984 Eh     change       -0.9536736E-05 Eh
 * total energy  :  -388.9061918 Eh     change        0.6571044E-05 Eh
 * total energy  :  -388.9061841 Eh     change        0.7751337E-05 Eh
 * total energy  :  -388.9062007 Eh     change       -0.1668096E-04 Eh
 * total energy  :  -388.9061920 Eh     change        0.8767567E-05 Eh
 * total energy  :  -388.9062047 Eh     change       -0.1273254E-04 Eh
 * total energy  :  -388.9061825 Eh     change        0.2219955E-04 Eh
 * total energy  :  -388.9062061 Eh     change       -0.2360991E-04 Eh
 * total energy  :  -388.9062103 Eh     change       -0.4233530E-05 Eh
   *** GEOMETRY OPTIMIZATION CONVERGED AFTER 74 ITERATIONS ***

 final structure:
================
195
 xtb: 6.5.1 (b24c23e)
Ni          27.20101314322088       -0.00137911299108       -0.06440077629196
C           23.81128223483747       -0.02068712202973       -0.19474757078819
C           24.46773708557737       -1.23295231263557       -0.23654021232977
C           23.79628350647205       -2.49558949622452       -0.29417323403008
C           24.75741629857584       -3.44142122643523       -0.40749994862614
C           26.01517984661754       -2.75293595883129       -0.43702424257677
N           25.82884126997976       -1.40154555022921       -0.29106345338342
C           27.23891965360977       -3.37798123726092       -0.64040922166700
C           27.26190895203401       -4.83931743932290       -0.87870382824250
C           27.94114913049943       -5.68496714899204        0.00351170034522
C           27.96831692363065       -7.05061702806335       -0.21267734753925
C           27.31555870253931       -7.57463202799276       -1.32486066868536
N           27.34546344052448       -9.00761094895551       -1.55984589461391
O           26.76536550678295       -9.42589842112240       -2.52876887524802
O           27.94761695587002       -9.68950355750196       -0.77076539461366
C           26.63607491926926       -6.74968461828857       -2.21663524199466
C           26.60981719260858       -5.38592561135483       -1.98792098928289
C           28.44519087176433       -2.68885416450283       -0.64014663876035
C           29.70906919511068       -3.29536146737273       -0.93085795330078
C           30.65015441046867       -2.33524057410668       -0.76577388810472
N           28.60780095387800       -1.35652708293008       -0.33841780370271
C           29.95908833782428       -1.14657042182004       -0.37955528729917
C           30.61323093328044        0.03223399462941       -0.01136814979654
C           29.92540388245819        1.19231113052713        0.35511067372084
C           30.58005981489345        2.38348341125695        0.79315006214554
C           29.61340635651635        3.31614742750523        0.96820577274262
C           28.37162984457733        2.69362529130724        0.62118963595858
N           28.57146638692856        1.37439156773676        0.28487778711203
C           27.15411732909215        3.36160621575173        0.58567729566021
C           27.13481703063432        4.81489088643118        0.86881421917119
C           26.40442570187514        5.31440969662546        1.95118822956153
C           26.38611031808469        6.67090462151385        2.22029299017790
C           27.09962291011752        7.53624981875064        1.39589493299932
N           27.08169876130959        8.96200614492043        1.67227537804724
O           26.43693006355457        9.33871490557232        2.61708018796692
O           27.71216260970508        9.67993740818373        0.93924085949296
C           27.83005105911504        7.05953536393864        0.31108327097885
C           27.84654718147691        5.70078871190864        0.05423805843887
C           25.95565111264630        2.72625740338803        0.28505023573763
C           24.69554319374095        3.40212601422540        0.17452091358512
C           23.75969614523632        2.45108166338113       -0.05094334648556
C           24.44900942448481        1.19721276856887       -0.08572145171434
N           25.79895983348837        1.37809776727116        0.08640032339443
H           22.72866849078626       -0.02608917278163       -0.24143369171550
H           22.72638053156188       -2.62125518740133       -0.24899313960275
H           24.63873663189099       -4.51118035458289       -0.46441924826380
H           28.43737584722710       -5.26474350497517        0.87051589279454
H           28.48689844119370       -7.71479251756223        0.46821749985891
H           26.14016229613213       -7.18230825300716       -3.07721099569573
H           26.09494520290033       -4.73142824973082       -2.68148404747949
H           29.84789802615926       -4.32121192101782       -1.23037547837952
H           31.71850394182367       -2.41064821015547       -0.88743609124317
H           31.64312704598328        2.47768201991105        0.94456135328000
H           29.72174012762370        4.33373270479874        1.30601951826668
H           25.86220247286267        4.62887450697108        2.59192321664970
H           25.82872607814854        7.06718241723926        3.06051422042834
H           28.37332787559802        7.75450693862529       -0.31783432972914
H           28.40212749918088        5.31773451539216       -0.79376566847039
H           24.55890888112193        4.46825150691091        0.25468493475745
H           22.69584177382172        2.56730638276890       -0.18218762447694
Ni          64.33194888089861        0.04040359014451       -0.03087752076726
C           67.72077190561758        0.10304489940444       -0.16298321075712
C           67.06778298156415        1.24279069348796        0.25759183295624
C           67.74231695691255        2.43447629610596        0.67391265078893
C           66.78352402176499        3.35696392142059        0.92097871790031
C           65.52401325247418        2.73161477174103        0.63920026931544
N           65.70702817726892        1.42238695511904        0.27240985224493
C           64.30151963207510        3.38990656294434        0.68420735438427
C           64.28240434154614        4.83603663706884        1.00181211234237
C           63.60557932893231        5.29835119606187        2.13453100898914
C           63.58240867634801        6.64743833095766        2.43759441628157
C           64.23696417587227        7.54310483834278        1.59677278407676
N           64.21172890013645        8.96163308680428        1.90762320348538
O           64.79386639041226        9.70635641177468        1.16146634939218
O           63.61017154398841        9.30591156207211        2.89244655907001
C           64.91418748961735        7.10360195442637        0.46287758146185
C           64.93635941106628        5.75164416694521        0.17208973007540
C           63.09319648460042        2.75055074159633        0.43669639364557
C           61.82922371340791        3.42185621533337        0.39894907931934
C           60.88593898499989        2.46809459421084        0.21075080700150
N           62.92813325192663        1.40037884968194        0.23036404746468
C           61.57580480000941        1.22031728967868        0.12861611515358
C           60.92072161257387       -0.01171177655975        0.04739318175865
C           61.60818944562068       -1.22475437517874       -0.04967238426927
C           60.95440459707444       -2.49402017326478       -0.07826819204216
C           61.91853873877133       -3.42311670164318       -0.28404872208595
C           63.15782734417931       -2.71456853451410       -0.39360777322654
N           62.95985104137343       -1.36594169083838       -0.20563143747301
C           64.37090987161068       -3.31857198060244       -0.69948615601167
C           64.38608492058405       -4.77026029401414       -0.99061155989836
C           65.13071093640261       -5.64386550542643       -0.19253930171337
C           65.14643234971896       -7.00044511537009       -0.46135310947670
C           64.41575313287059       -7.48697537636396       -1.54160999776126
N           64.43177046911094       -8.91020470974670       -1.83080388014245
O           65.09010150662768       -9.61776607044530       -1.11232072785154
O           63.78609289454474       -9.29520298159556       -2.77163473288110
C           63.67018921708449       -6.63366480671128       -2.35006739186820
C           63.65646167901627       -5.27968135490500       -2.06907180361796
C           65.56878186364750       -2.61656591460613       -0.75222891878600
C           66.82510134986140       -3.20005958533834       -1.12384818298278
C           67.76354467710085       -2.23655103148066       -0.97485522400344
C           67.07926313069990       -1.06367851113809       -0.52251049928974
N           65.72969257813571       -1.29471234712770       -0.42289879112507
H           68.80325259199533        0.12374959786390       -0.20839713614625
H           68.81254060296823        2.53196687292142        0.76133926071924
H           66.90488015681366        4.37096602438081        1.26563810991864
H           63.10827205298405        4.58921158791697        2.78593775942201
H           63.06572746089480        7.01485325399789        3.31606812104949
H           65.41163218737684        7.82188891513736       -0.17766742206481
H           65.44952134341843        5.39788831218242       -0.71448497590597
H           61.69158597662820        4.48623789505469        0.49641056081058
H           59.81686101980758        2.58319341672289        0.13541440204091
H           59.89351533012993       -2.63929266215323        0.04556143362943
H           61.81026461627854       -4.49320530377040       -0.35150784041079
H           65.68638052910656       -5.25379547844312        0.65219640927388
H           65.71512504722456       -7.68640362142675        0.15487336246657
H           63.11341314432210       -7.03705419186167       -3.18729474155472
H           63.08920141881933       -4.60298134207465       -2.69741173523276
H           66.95786268181034       -4.21576703074304       -1.45914526668483
H           68.82601043534393       -2.29523871766906       -1.14876024452678
C           32.01779786688933        0.04716935568827       -0.00002397090069
C           33.24175932884637        0.05382653106942        0.00772705815806
C           34.58472197320505        0.06035846769222        0.01470798967148
C           35.81503760498341        0.06012803489927        0.01795004764177
C           37.15309345707053        0.05523870630941        0.02058941028542
C           38.38338930865452        0.05022694563996        0.02191013138692
C           39.72611356222941        0.04484688059025        0.02070811179887
C           40.95031249060388        0.03615094402574        0.01793352649570
C           50.58427568659655       -0.00627515242875        0.08094515256524
C           51.80848727097987       -0.01492241716661        0.09434642463731
C           53.15103931578157       -0.02358652772781        0.10280921571368
C           54.38145458342398       -0.03168184513596        0.10391886401529
C           55.71937581941218       -0.03686682792758        0.10126073066287
C           56.94971594172326       -0.04046473659466        0.09420314208306
C           58.29249818329279       -0.03691011387518        0.08261491728523
C           59.51650391854253       -0.02968638752379        0.06830179152718
Ni          45.76762173904056        0.01309836057794        0.00599554067368
C           42.35408960701731        0.02859054261551        0.01061103482488
C           43.02284437593132       -1.17788536454685        0.23863884111131
C           42.35083716153727       -2.40764498831056        0.51247605985937
C           43.30037414076875       -3.37429066867497        0.52796900394049
C           44.54909871563664       -2.73001021875180        0.25613926886444
N           44.37206668847694       -1.37198778414963        0.12555036882765
C           45.75255606408658       -3.40410148507208        0.08999350847416
C           45.74294252312496       -4.88420262006748        0.11872690082082
C           46.47798368439621       -5.57712714885824        1.08531185357173
C           46.46774353744807       -6.95969102828903        1.11813790864258
C           45.72063452075985       -7.65558887267898        0.17209007824313
N           45.70846006841341       -9.10788914469869        0.20049397024747
O           45.04320975800501       -9.67589894087816       -0.62702598338310
O           46.36402326470471       -9.65416925096128        1.05011318842449
C           44.98440362733999       -6.98477256388743       -0.80025708500839
C           44.99632887325693       -5.60202212978162       -0.82050332827195
C           46.96367105931677       -2.74954728981245       -0.09555267376141
C           48.21086241373703       -3.41657613986531       -0.31451191096797
C           49.17024405944972       -2.45955242796899       -0.31604487894125
N           47.15221168971811       -1.38847073332613       -0.02079390574600
C           48.50521296862138       -1.21244805781876       -0.11305074464323
C           49.18081658703374       -0.00010266417356        0.05856503034570
C           48.50930482245535        1.21878982867589        0.19472701565774
C           49.17779162591408        2.46506660565402        0.39164531026286
C           48.22865404257094        3.42999019032172        0.32490147416504
C           46.98378406657982        2.76758271496312        0.08053027622456
N           47.16197849727155        1.40377741802276        0.04873900681426
C           45.78346509232629        3.42770418220604       -0.15131633913931
C           45.79332090405895        4.90586955547742       -0.23217960510201
C           46.55302387923810        5.55174383180731       -1.21225581273628
C           46.56118411168345        6.93194532617259       -1.29882359927224
C           45.80825595934037        7.67319987974875       -0.39266555501895
N           45.81406236386763        9.12329025913157       -0.47844964486734
O           46.48316612628398        9.62769195006986       -1.34329248552899
O           45.14898271919293        9.73148797095286        0.32014965535302
C           45.04954977093430        7.04979432555070        0.59383944748420
C           45.04313044608195        5.66877995871267        0.66777803194464
C           44.57459202941138        2.76120620843391       -0.30682833044780
C           43.33077020156497        3.41057589406980       -0.58917477478516
C           42.37083719806529        2.45568892129943       -0.53476659152059
C           43.03244091676164        1.22633314228218       -0.23537202885748
N           44.38425844477266        1.40882820353816       -0.13817542485526
H           41.28828600215264       -2.50393649323468        0.66611612473859
H           43.17614813603652       -4.42891633893343        0.71162327906279
H           47.04605428611040       -5.02316935571495        1.82350091997245
H           47.02856846127041       -7.50572366471509        1.86713996965561
H           44.41424348822396       -7.55013464365490       -1.52755215177480
H           44.43596849173076       -5.06758061190022       -1.57871126879806
H           48.32814258055626       -4.47906657279887       -0.45137545992913
H           50.23485384629929       -2.57273865729998       -0.44128391171437
H           50.23798726933052        2.57240657252896        0.55402767471290
H           48.35052898154571        4.49501891281873        0.43574712993295
H           47.12594302265620        4.96233880805511       -1.91856914591028
H           47.14051642206636        7.44145948350172       -2.05937660374757
H           44.47629274549177        7.65003122940200        1.29009972899222
H           44.46542229186854        5.17149722280074        1.43813744574357
H           43.21578129701065        4.46053085108093       -0.80299841781825
H           41.30800817566547        2.55933709390063       -0.68155094358984

          :  Hamiltonian                  GFN1-xTB          :
         :: total energy            -388.906210346409 Eh    ::
         :: gradient norm              0.000556484990 Eh/a0 ::
         :: HOMO-LUMO gap              1.072361994107 eV    ::
         :: SCC energy              -394.579636754417 Eh    ::
         :: repulsion energy           5.848592667530 Eh    ::

    * Orbital Energies and Occupations

         #    Occupation            Energy/Eh            Energy/eV
      -------------------------------------------------------------
         1        2.0000           -0.9245813             -25.1591
       ...           ...                  ...                  ...
       333        2.0000           -0.4222750             -11.4907
       334        2.0000           -0.4222629             -11.4904
       335        2.0000           -0.4219506             -11.4819
       336        2.0000           -0.4218614             -11.4794
       337        2.0000           -0.4213937             -11.4667
       338        2.0000           -0.4213755             -11.4662
       339        2.0000           -0.4203240             -11.4376
       340        2.0000           -0.4203121             -11.4373
       341        2.0000           -0.4202093             -11.4345
       342        2.0000           -0.4201975             -11.4342
       343        2.0000           -0.4182358             -11.3808
       344        2.0000           -0.4129640             -11.2373
       345        2.0000           -0.4066815             -11.0664 (HOMO)
       346                         -0.3672729              -9.9940 (LUMO)
       347                         -0.3610516              -9.8247
       348                         -0.3597672              -9.7898
       349                         -0.3597064              -9.7881
       350                         -0.3594999              -9.7825
       351                         -0.3544562              -9.6452
       352                         -0.3537988              -9.6274
       353                         -0.3525058              -9.5922
       354                         -0.3524472              -9.5906
       355                         -0.3517107              -9.5705
       356                         -0.3508308              -9.5466
       ...                                ...                  ...
       695                          1.5858040              43.1519
      -------------------------------------------------------------
                  HL-Gap            0.0394086 Eh            1.0724 eV

Wiberg/Mayer (AO) data.
largest (>0.10) Wiberg bond orders for each atom

     #   Z sym  total        # sym  WBO       # sym  WBO       # sym  WBO
 ---------------------------------------------------------------------------
     1  28 Ni   3.009 --    43 N    0.663     7 N    0.663    21 N    0.660
                            28 N    0.660
     2   6 C    3.936 --    42 C    1.365     3 C    1.364    44 H    0.970
     3   6 C    3.921 --     2 C    1.364     7 N    1.213     4 C    1.173
     4   6 C    3.960 --     5 C    1.651     3 C    1.173    45 H    0.974
     5   6 C    3.962 --     4 C    1.651     6 C    1.175    46 H    0.972
     6   6 C    3.920 --     8 C    1.321     7 N    1.223     5 C    1.175
     7   7 N    3.401 --     6 C    1.223     3 C    1.213     1 Ni   0.663
     8   6 C    3.937 --    18 C    1.324     6 C    1.321     9 C    1.032
     9   6 C    3.985 --    17 C    1.384    10 C    1.384     8 C    1.032
    10   6 C    3.987 --    11 C    1.464     9 C    1.384    47 H    0.971
                            16 C    0.102
    11   6 C    3.987 --    10 C    1.464    12 C    1.387    48 H    0.965
                            17 C    0.102
    12   6 C    3.941 --    16 C    1.388    11 C    1.387    13 N    0.921
    13   7 N    3.866 --    15 O    1.455    14 O    1.454    12 C    0.921
    14   8 O    1.829 --    13 N    1.454    15 O    0.252
    15   8 O    1.829 --    13 N    1.455    14 O    0.252
    16   6 C    3.987 --    17 C    1.463    12 C    1.388    49 H    0.965
                            10 C    0.102
    17   6 C    3.987 --    16 C    1.463     9 C    1.384    50 H    0.971
                            11 C    0.102
    18   6 C    3.914 --     8 C    1.324    21 N    1.209    19 C    1.183
    19   6 C    3.958 --    20 C    1.636    18 C    1.183    51 H    0.973
    20   6 C    3.961 --    19 C    1.636    22 C    1.191    52 H    0.973
    21   7 N    3.405 --    22 C    1.237    18 C    1.209     1 Ni   0.660
    22   6 C    3.900 --    23 C    1.263    21 N    1.237    20 C    1.191
    23   6 C    3.945 --    22 C    1.263    24 C    1.263   121 C    1.185
    24   6 C    3.901 --    23 C    1.263    28 N    1.237    25 C    1.191
    25   6 C    3.961 --    26 C    1.636    24 C    1.191    53 H    0.973
    26   6 C    3.958 --    25 C    1.636    27 C    1.183    54 H    0.973
    27   6 C    3.914 --    29 C    1.325    28 N    1.208    26 C    1.183
    28   7 N    3.405 --    24 C    1.237    27 C    1.208     1 Ni   0.660
    29   6 C    3.937 --    27 C    1.325    39 C    1.320    30 C    1.032
    30   6 C    3.985 --    31 C    1.384    38 C    1.384    29 C    1.032
    31   6 C    3.987 --    32 C    1.463    30 C    1.384    55 H    0.971
                            37 C    0.102
    32   6 C    3.987 --    31 C    1.463    33 C    1.387    56 H    0.965
                            38 C    0.102
    33   6 C    3.941 --    32 C    1.387    37 C    1.387    34 N    0.921
    34   7 N    3.866 --    36 O    1.454    35 O    1.454    33 C    0.921
    35   8 O    1.829 --    34 N    1.454    36 O    0.252
    36   8 O    1.829 --    34 N    1.454    35 O    0.252
    37   6 C    3.987 --    38 C    1.464    33 C    1.387    57 H    0.965
                            31 C    0.102
    38   6 C    3.987 --    37 C    1.464    30 C    1.384    58 H    0.971
                            32 C    0.102
    39   6 C    3.920 --    29 C    1.320    43 N    1.224    40 C    1.175
    40   6 C    3.963 --    41 C    1.651    39 C    1.175    59 H    0.973
    41   6 C    3.960 --    40 C    1.651    42 C    1.173    60 H    0.974
    42   6 C    3.921 --     2 C    1.365    43 N    1.212    41 C    1.173
    43   7 N    3.401 --    39 C    1.224    42 C    1.212     1 Ni   0.663
    44   1 H    0.999 --     2 C    0.970
    45   1 H    0.997 --     4 C    0.974
    46   1 H    1.003 --     5 C    0.972
    47   1 H    1.003 --    10 C    0.971
    48   1 H    1.006 --    11 C    0.965
    49   1 H    1.006 --    16 C    0.965
    50   1 H    1.003 --    17 C    0.971
    51   1 H    1.003 --    19 C    0.973
    52   1 H    1.001 --    20 C    0.973
    53   1 H    1.001 --    25 C    0.973
    54   1 H    1.003 --    26 C    0.973
    55   1 H    1.003 --    31 C    0.971
    56   1 H    1.006 --    32 C    0.965
    57   1 H    1.006 --    37 C    0.965
    58   1 H    1.003 --    38 C    0.971
    59   1 H    1.003 --    40 C    0.973
    60   1 H    0.997 --    41 C    0.974
    61  28 Ni   3.010 --   103 N    0.663    67 N    0.663    81 N    0.660
                            88 N    0.660
    62   6 C    3.936 --   102 C    1.365    63 C    1.364   104 H    0.970
    63   6 C    3.921 --    62 C    1.364    67 N    1.212    64 C    1.173
    64   6 C    3.960 --    65 C    1.651    63 C    1.173   105 H    0.974
    65   6 C    3.962 --    64 C    1.651    66 C    1.175   106 H    0.972
    66   6 C    3.920 --    68 C    1.321    67 N    1.223    65 C    1.175
    67   7 N    3.401 --    66 C    1.223    63 C    1.212    61 Ni   0.663
    68   6 C    3.937 --    78 C    1.324    66 C    1.321    69 C    1.032
    69   6 C    3.985 --    77 C    1.384    70 C    1.384    68 C    1.032
    70   6 C    3.987 --    71 C    1.464    69 C    1.384   107 H    0.971
                            76 C    0.102
    71   6 C    3.987 --    70 C    1.464    72 C    1.387   108 H    0.965
                            77 C    0.102
    72   6 C    3.941 --    76 C    1.388    71 C    1.387    73 N    0.921
    73   7 N    3.866 --    74 O    1.454    75 O    1.454    72 C    0.921
    74   8 O    1.829 --    73 N    1.454    75 O    0.252
    75   8 O    1.829 --    73 N    1.454    74 O    0.252
    76   6 C    3.987 --    77 C    1.463    72 C    1.388   109 H    0.965
                            70 C    0.102
    77   6 C    3.987 --    76 C    1.463    69 C    1.384   110 H    0.971
                            71 C    0.102
    78   6 C    3.914 --    68 C    1.324    81 N    1.209    79 C    1.183
    79   6 C    3.958 --    80 C    1.636    78 C    1.183   111 H    0.973
    80   6 C    3.961 --    79 C    1.636    82 C    1.191   112 H    0.973
    81   7 N    3.405 --    82 C    1.237    78 C    1.209    61 Ni   0.660
    82   6 C    3.900 --    83 C    1.263    81 N    1.237    80 C    1.191
    83   6 C    3.945 --    82 C    1.263    84 C    1.263   136 C    1.186
    84   6 C    3.900 --    83 C    1.263    88 N    1.237    85 C    1.191
    85   6 C    3.961 --    86 C    1.636    84 C    1.191   113 H    0.973
    86   6 C    3.958 --    85 C    1.636    87 C    1.183   114 H    0.973
    87   6 C    3.914 --    89 C    1.324    88 N    1.208    86 C    1.183
    88   7 N    3.405 --    84 C    1.237    87 C    1.208    61 Ni   0.660
    89   6 C    3.937 --    87 C    1.324    99 C    1.320    90 C    1.032
    90   6 C    3.985 --    91 C    1.384    98 C    1.384    89 C    1.032
    91   6 C    3.987 --    92 C    1.463    90 C    1.384   115 H    0.971
                            97 C    0.102
    92   6 C    3.987 --    91 C    1.463    93 C    1.387   116 H    0.965
                            98 C    0.102
    93   6 C    3.941 --    92 C    1.387    97 C    1.387    94 N    0.921
    94   7 N    3.866 --    95 O    1.454    96 O    1.454    93 C    0.921
    95   8 O    1.829 --    94 N    1.454    96 O    0.252
    96   8 O    1.829 --    94 N    1.454    95 O    0.252
    97   6 C    3.987 --    98 C    1.464    93 C    1.387   117 H    0.965
                            91 C    0.102
    98   6 C    3.987 --    97 C    1.464    90 C    1.384   118 H    0.971
                            92 C    0.102
    99   6 C    3.920 --    89 C    1.320   103 N    1.224   100 C    1.175
   100   6 C    3.963 --   101 C    1.651    99 C    1.175   119 H    0.972
   101   6 C    3.959 --   100 C    1.651   102 C    1.173   120 H    0.974
   102   6 C    3.921 --    62 C    1.365   103 N    1.212   101 C    1.173
   103   7 N    3.401 --    99 C    1.224   102 C    1.212    61 Ni   0.663
   104   1 H    0.999 --    62 C    0.970
   105   1 H    0.997 --    64 C    0.974
   106   1 H    1.003 --    65 C    0.972
   107   1 H    1.003 --    70 C    0.971
   108   1 H    1.006 --    71 C    0.965
   109   1 H    1.006 --    76 C    0.965
   110   1 H    1.003 --    77 C    0.971
   111   1 H    1.003 --    79 C    0.973
   112   1 H    1.001 --    80 C    0.973
   113   1 H    1.001 --    85 C    0.973
   114   1 H    1.003 --    86 C    0.973
   115   1 H    1.003 --    91 C    0.971
   116   1 H    1.006 --    92 C    0.965
   117   1 H    1.006 --    97 C    0.965
   118   1 H    1.003 --    98 C    0.971
   119   1 H    1.003 --   100 C    0.972
   120   1 H    0.997 --   101 C    0.974
   121   6 C    3.878 --   122 C    2.446    23 C    1.185   124 C    0.187
   122   6 C    3.938 --   121 C    2.446   123 C    1.341
   123   6 C    3.893 --   124 C    2.340   122 C    1.341   126 C    0.183
   124   6 C    3.927 --   123 C    2.340   125 C    1.367   121 C    0.187
   125   6 C    3.926 --   126 C    2.339   124 C    1.367   128 C    0.187
   126   6 C    3.894 --   125 C    2.339   127 C    1.342   123 C    0.183
   127   6 C    3.935 --   128 C    2.443   126 C    1.342
   128   6 C    3.878 --   127 C    2.443   138 C    1.188   125 C    0.187
   129   6 C    3.879 --   130 C    2.442   159 C    1.189   132 C    0.187
   130   6 C    3.935 --   129 C    2.442   131 C    1.343
   131   6 C    3.894 --   132 C    2.338   130 C    1.343   134 C    0.183
   132   6 C    3.926 --   131 C    2.338   133 C    1.367   129 C    0.187
   133   6 C    3.927 --   134 C    2.339   132 C    1.367   136 C    0.187
   134   6 C    3.894 --   133 C    2.339   135 C    1.342   131 C    0.183
   135   6 C    3.938 --   136 C    2.445   134 C    1.342
   136   6 C    3.878 --   135 C    2.445    83 C    1.186   133 C    0.187
   137  28 Ni   3.002 --   164 N    0.660   143 N    0.660   157 N    0.659
                           179 N    0.659
   138   6 C    3.936 --   139 C    1.261   178 C    1.260   128 C    1.188
   139   6 C    3.901 --   138 C    1.261   143 N    1.237   140 C    1.192
   140   6 C    3.959 --   141 C    1.634   139 C    1.192   180 H    0.973
   141   6 C    3.959 --   140 C    1.634   142 C    1.185   181 H    0.973
   142   6 C    3.913 --   144 C    1.322   143 N    1.207   141 C    1.185
   143   7 N    3.399 --   139 C    1.237   142 C    1.207   137 Ni   0.660
   144   6 C    3.932 --   154 C    1.323   142 C    1.322   145 C    1.033
   145   6 C    3.985 --   146 C    1.384   153 C    1.384   144 C    1.033
   146   6 C    3.987 --   147 C    1.463   145 C    1.384   182 H    0.971
                           152 C    0.102
   147   6 C    3.987 --   146 C    1.463   148 C    1.388   183 H    0.964
                           153 C    0.102
   148   6 C    3.941 --   147 C    1.388   152 C    1.387   149 N    0.920
   149   7 N    3.866 --   150 O    1.455   151 O    1.455   148 C    0.920
   150   8 O    1.830 --   149 N    1.455   151 O    0.252
   151   8 O    1.829 --   149 N    1.455   150 O    0.252
   152   6 C    3.987 --   153 C    1.463   148 C    1.387   184 H    0.964
                           146 C    0.102
   153   6 C    3.987 --   152 C    1.463   145 C    1.384   185 H    0.971
                           147 C    0.102
   154   6 C    3.913 --   144 C    1.323   157 N    1.206   155 C    1.185
   155   6 C    3.959 --   156 C    1.634   154 C    1.185   186 H    0.973
   156   6 C    3.959 --   155 C    1.634   158 C    1.192   187 H    0.973
   157   7 N    3.399 --   158 C    1.239   154 C    1.206   137 Ni   0.659
   158   6 C    3.900 --   159 C    1.259   157 N    1.239   156 C    1.192
   159   6 C    3.936 --   160 C    1.260   158 C    1.259   129 C    1.189
   160   6 C    3.900 --   159 C    1.260   164 N    1.238   161 C    1.192
   161   6 C    3.959 --   162 C    1.634   160 C    1.192   188 H    0.973
   162   6 C    3.959 --   161 C    1.634   163 C    1.185   189 H    0.973
   163   6 C    3.913 --   165 C    1.322   164 N    1.207   162 C    1.185
   164   7 N    3.399 --   160 C    1.238   163 C    1.207   137 Ni   0.660
   165   6 C    3.932 --   175 C    1.323   163 C    1.322   166 C    1.033
   166   6 C    3.985 --   174 C    1.384   167 C    1.384   165 C    1.033
   167   6 C    3.987 --   168 C    1.463   166 C    1.384   190 H    0.971
                           173 C    0.102
   168   6 C    3.987 --   167 C    1.463   169 C    1.387   191 H    0.964
                           174 C    0.102
   169   6 C    3.941 --   173 C    1.388   168 C    1.387   170 N    0.920
   170   7 N    3.866 --   172 O    1.455   171 O    1.455   169 C    0.920
   171   8 O    1.829 --   170 N    1.455   172 O    0.252
   172   8 O    1.830 --   170 N    1.455   171 O    0.252
   173   6 C    3.987 --   174 C    1.463   169 C    1.388   192 H    0.964
                           167 C    0.102
   174   6 C    3.987 --   173 C    1.463   166 C    1.384   193 H    0.971
                           168 C    0.102
   175   6 C    3.913 --   165 C    1.323   179 N    1.206   176 C    1.185
   176   6 C    3.959 --   177 C    1.634   175 C    1.185   194 H    0.973
   177   6 C    3.959 --   176 C    1.634   178 C    1.192   195 H    0.973
   178   6 C    3.901 --   138 C    1.260   179 N    1.239   177 C    1.192
   179   7 N    3.399 --   178 C    1.239   175 C    1.206   137 Ni   0.659
   180   1 H    1.001 --   140 C    0.973
   181   1 H    1.003 --   141 C    0.973
   182   1 H    1.003 --   146 C    0.971
   183   1 H    1.006 --   147 C    0.964
   184   1 H    1.006 --   152 C    0.964
   185   1 H    1.003 --   153 C    0.971
   186   1 H    1.003 --   155 C    0.973
   187   1 H    1.001 --   156 C    0.973
   188   1 H    1.001 --   161 C    0.973
   189   1 H    1.003 --   162 C    0.973
   190   1 H    1.003 --   167 C    0.971
   191   1 H    1.006 --   168 C    0.964
   192   1 H    1.006 --   173 C    0.964
   193   1 H    1.003 --   174 C    0.971
   194   1 H    1.003 --   176 C    0.973
   195   1 H    1.001 --   177 C    0.973
 ---------------------------------------------------------------------------

           -------------------------------------------------
          | TOTAL ENERGY             -388.906210346409 Eh   |
          | GRADIENT NORM               0.000556484990 Eh/α |
          | HOMO-LUMO GAP               1.072361994107 eV   |
           -------------------------------------------------

 * finished run on 2022/07/30 at 05:26:27.659
