   * xtb version 6.5.1 (b24c23e) compiled by 'conda@728c89f4b128' on 2022-07-12
          program call               : xtb DMA_C8_3.xyz --gfn 1 --opt -T 48

   ID    Z sym.   atoms
    1    6 C      1-5, 7-11, 13-19, 21-26, 28-32, 34-41, 74-78, 80-84, 86-92,
                  94-99, 101-105, 107-114, 147-167, 169-173, 175-181,
                  183-188, 190-194, 196-203
    2    7 N      6, 12, 20, 27, 33, 42, 79, 85, 93, 100, 106, 115, 168, 174,
                  182, 189, 195, 204
    3    1 H      43-73, 116-146, 205-234

          :  Hamiltonian                  GFN1-xTB          :
 * total energy  :  -367.5849976 Eh     change       -0.3518494E-08 Eh
 * total energy  :  -368.0039493 Eh     change       -0.4189517E+00 Eh
 * total energy  :  -368.1635890 Eh     change       -0.1596396E+00 Eh
 * total energy  :  -368.2373323 Eh     change       -0.7374338E-01 Eh
 * total energy  :  -368.2904430 Eh     change       -0.5311063E-01 Eh
 * total energy  :  -368.3497662 Eh     change       -0.5932324E-01 Eh
 * total energy  :  -368.4072136 Eh     change       -0.5744742E-01 Eh
 * total energy  :  -368.4446185 Eh     change       -0.3740487E-01 Eh
 * total energy  :  -368.4722610 Eh     change       -0.2764245E-01 Eh
 * total energy  :  -368.4942405 Eh     change       -0.2197959E-01 Eh
 * total energy  :  -368.6534145 Eh     change       -0.8396574E-05 Eh
 * total energy  :  -368.6534295 Eh     change       -0.1495992E-04 Eh
 * total energy  :  -368.6534365 Eh     change       -0.7028308E-05 Eh
 * total energy  :  -368.6534468 Eh     change       -0.1031563E-04 Eh
 * total energy  :  -368.6534541 Eh     change       -0.7292422E-05 Eh
 * total energy  :  -368.6534524 Eh     change        0.1753721E-05 Eh
 * total energy  :  -368.6534580 Eh     change       -0.5617733E-05 Eh
 * total energy  :  -368.6534552 Eh     change        0.2830397E-05 Eh
 * total energy  :  -368.6534595 Eh     change       -0.4393995E-05 Eh
   *** GEOMETRY OPTIMIZATION CONVERGED AFTER 97 ITERATIONS ***

 final structure:
================
234
 xtb: 6.5.1 (b24c23e)
C           28.33541185831495        0.06822844707383        0.09571923420324
C           28.94610328662081       -0.09305642437574        1.33321150070751
C           28.29624813818171       -0.19233756534880        2.59470836623719
C           29.25787306336309       -0.36035850065383        3.55195494018792
C           30.52536698073903       -0.37929904747127        2.90450127021546
N           30.28728834619685       -0.20310481667871        1.57081920085282
C           31.78735913952681       -0.52720908410543        3.49493011431488
C           31.81712864058200       -0.75234219068242        4.95771392128619
C           32.50440062469395        0.11640565750354        5.80736796676181
C           32.52828069371142       -0.08735096188206        7.17496938795758
C           31.86643082223707       -1.18120215581145        7.75317826626768
N           31.93645098187022       -1.42706134882861        9.12082664064445
C           32.33371499203498       -0.31741185485205        9.98740592162162
C           30.91242456181011       -2.29822661761049        9.69932152500789
C           31.18888681942303       -2.06133227983351        6.89564831679635
C           31.16067121105543       -1.84334338548606        5.53035531932067
C           32.99984996218553       -0.47815158664065        2.80193309629726
C           34.29572646748341       -0.69674145695542        3.41818203865078
C           35.21399214711998       -0.55643817650391        2.43928829813163
N           33.15205377320987       -0.23793655485319        1.46956794234644
C           34.47710390298381       -0.26813923323888        1.22470334656252
C           35.11293303662869       -0.05337705449289       -0.01614148025264
C           34.47657721897387        0.16061967783346       -1.25442314307664
C           35.12208978520264        0.39802177317282       -2.49617610938481
C           34.15565313204232        0.53841165425942       -3.45399959595801
C           32.88920168386909        0.38243852973353       -2.82654218906047
N           33.13553639061285        0.16508516939604       -1.49583784574447
C           31.62734484275088        0.46137233181068       -3.42763143230802
C           31.59552133710928        0.66058720282662       -4.89320552985345
C           30.94399315626478        1.75926727959224       -5.45706545430214
C           30.92123235266504        1.95531992177929       -6.82576698289811
C           31.54828657017975        1.04960958692370       -7.69490105099960
N           31.48156032105908        1.20846160574529       -9.07545122865582
C           32.48672175938364        0.51172579593037       -9.87966610821206
C           31.12269317878486        2.53132892195091       -9.58671688412214
C           32.18714803772934       -0.06343628212172       -7.12711711793750
C           32.21485059558545       -0.24538309260164       -5.75672545465830
C           30.41206222520205        0.36855989704860       -2.73799873990841
C           29.10506649220764        0.39336951434986       -3.37517482496011
C           28.19449325951314        0.29246571821578       -2.38536831907646
C           28.94401088176952        0.18899693198011       -1.14651298052233
N           30.27604681097041        0.22855962515509       -1.39825791587485
H           27.25034624274072        0.09647517139900        0.11082881019305
H           27.22908198969020       -0.13436707657890        2.73919781231665
H           29.10741916236186       -0.45193561007064        4.61545295370119
H           31.01229398577479       -0.15513333367839        0.86273365728370
H           33.00975232711431        0.98127796736804        5.39137028794419
H           33.07264994172327        0.61990085925803        7.78726990111865
H           31.67603953175479        0.54956747502357        9.85922979824795
H           32.29153619302856       -0.64767885075665       11.02473798185570
H           33.36180834317966       -0.03009387704863        9.76526202986385
H           29.90325141672254       -1.94692861790244        9.45744956668715
H           31.04213633764144       -3.31466060757431        9.32592235627078
H           31.03426512127098       -2.31716622255382       10.78170691132066
H           30.68148512844264       -2.93465177635324        7.28488413844740
H           30.63984896110216       -2.54909364229803        4.89201979424965
H           34.45980394586906       -0.94102927773887        4.45518676236431
H           36.28646138176804       -0.64764523854810        2.50479091686420
H           36.19026141852592        0.45827432503014       -2.62934712722130
H           34.30496811308650        0.74582625944739       -4.50106121745206
H           32.41227828505720        0.04050244101929       -0.79509916000005
H           30.46868100398780        2.48814692041620       -4.80954495703078
H           30.40676743472210        2.82742156157700       -7.20814329757964
H           32.37423682518794        0.80911476600387      -10.92155166297538
H           33.50248622325805        0.74955618577673       -9.54562708899251
H           32.32625918980322       -0.56494922497749       -9.81528577910681
H           30.10198807790176        2.77333755525088       -9.28936988027989
H           31.16217314973793        2.51124386991017      -10.67530407303750
H           31.80452510954613        3.30498635712917       -9.21644402299251
H           32.66456623370356       -0.80732967996196       -7.75195233327780
H           32.70530332749593       -1.12273912386024       -5.34870470385374
H           28.93104444777802        0.46173317183020       -4.43699378084639
H           27.11810791764580        0.27395128456318       -2.45714239021015
C           72.21602856900095        0.09728472892001       -0.08313592342321
C           71.60411615402991        0.23172191735492       -1.32325150321976
C           72.25214892959244        0.43976187454978       -2.57233188168248
C           71.28993279373792        0.49537095518831       -3.54206317550374
C           70.02399409964096        0.31256238970446       -2.91752344499268
N           70.26332581354356        0.17069999491538       -1.57998948499166
C           68.76209243324980        0.29454166200476       -3.52632490065958
C           68.73119166024412        0.41723259760485       -5.00101835893957
C           68.02856175192417        1.45016808159711       -5.62429042827889
C           68.00403204371494        1.57213211705939       -7.00157531157724
C           68.68119741497810        0.65475601076243       -7.81930753019364
N           68.61216155771638        0.73477796419469       -9.20658057045773
C           68.18708142808610        2.00701221161400       -9.79017249568103
C           69.65373100001185        0.04670762683933       -9.97083079512192
C           69.37426026785801       -0.39130735014191       -7.19115759168394
C           69.40249368411256       -0.49910078337572       -5.81284069818521
C           67.55082988340021        0.16907813534201       -2.84070801034774
C           66.25560718466681        0.08574402471583       -3.49054833810525
C           65.33813141670620       -0.00901847752417       -2.50543346647862
N           67.39937677903515        0.09570125675194       -1.48877539786408
C           66.07498398082060        0.00098470898729       -1.25716827590127
C           65.43959835536477       -0.07346615571523        0.00015033303291
C           66.07662767785799       -0.14559249007752        1.25440357027652
C           65.43214095744793       -0.19862723283523        2.51802498683576
C           66.39933271274103       -0.28255610568562        3.48171824045246
C           67.66522406132120       -0.29215101833235        2.83414609587812
N           67.41785414977478       -0.19759778538900        1.48935089394731
C           68.92758502622239       -0.35707714390565        3.43603218254018
C           68.96040659507210       -0.50489620156491        4.90747219598979
C           69.61840142789056        0.42820673358982        5.71121235491487
C           69.64205520429344        0.29975959504035        7.08786855960594
C           69.00894659761499       -0.77953976263977        7.72270935775631
N           69.07478993465598       -0.94714950813795        9.10228283289124
C           68.05921274570602       -1.79938492277370        9.72297814625204
C           69.44886662437484        0.21554417193018        9.90731473773588
C           68.36345608752940       -1.72578775212496        6.91188029042146
C           68.33533171265037       -1.58344832348721        5.53689307137156
C           70.14225431192644       -0.28731194170264        2.74244732753381
C           71.44991764272673       -0.41382934928400        3.36606542783647
C           72.35950955506287       -0.27621329235373        2.37977051041785
C           71.60875466554621       -0.08351726217534        1.15242086932610
N           70.27692933871572       -0.10668447788420        1.40748164154939
H           73.30092761904520        0.13355950194569       -0.09153999365761
H           73.31849339858749        0.53935050679520       -2.69909841713879
H           71.43906145456192        0.66009819801160       -4.59688712809694
H           69.53936466204829        0.04394439947354       -0.88061242397114
H           67.51165240954630        2.18594791315293       -5.01777613612178
H           67.44756427322818        2.39487168831342       -7.43154424054671
H           68.82761981044926        2.83411186272859       -9.46440072905714
H           68.22955737103041        1.92833731081932      -10.87595956110268
H           67.15476742596978        2.21253635026720       -9.50578017169467
H           70.65540457672104        0.35196022889526       -9.64871609031050
H           69.54631067380645       -1.03170298578148       -9.84892190241808
H           69.53113757144533        0.28175194691718      -11.02746173049102
H           69.89368770504039       -1.14117726737339       -7.77386386915897
H           69.93515852576373       -1.32703177355527       -5.35721287117074
H           66.09149589544829        0.08298846439454       -4.55592464201359
H           64.26631600027484       -0.09192511433191       -2.58995938378987
H           64.36412737521759       -0.16938989031161        2.66239301525993
H           66.25077579479708       -0.32019968736747        4.54857208718831
H           68.14053096742194       -0.15812818637482        0.77813660460245
H           70.09845301664545        1.28502720355033        5.25093494389010
H           70.16149842526407        1.05580880455036        7.66229666611484
H           68.17058079976051       -1.75161889481444       10.80569742546846
H           67.04730875191895       -1.47906999266479        9.45091156102556
H           68.20852344928876       -2.83413777154008        9.41226367226208
H           70.47195616719016        0.50897006654165        9.67132514804027
H           69.40980024183983       -0.05796686351175       10.96119084157062
H           68.77591643287002        1.06174341943807        9.73026895454479
H           67.88127997573004       -2.59184141328445        7.34686964025875
H           67.84040391463992       -2.33908538031245        4.93619805180793
H           71.62512691901664       -0.59964297893244        4.41352162828585
H           73.43597697820286       -0.31050123678409        2.44409469496255
C           36.51735185268521       -0.05143024109346       -0.03315362934554
C           37.74246133118005       -0.03998071319307       -0.04584606022178
C           39.08413021467338       -0.02405222369825       -0.05420844477504
C           40.31531724562647       -0.00514982977319       -0.05814029719368
C           41.65211348452959        0.01904177645944       -0.05979629113492
C           42.88323954245239        0.04486854252648       -0.05912228018314
C           44.22455676524983        0.06910666209809       -0.05592514994176
C           45.44973138399502        0.09467303892212       -0.05070917237809
C           55.10309473728530        0.07636096644650        0.04506096676386
C           56.32811977843053        0.04522528935551        0.04990490535662
C           57.66937178352165        0.01668148235095        0.05489020261265
C           58.90053549436415       -0.00995454133114        0.05457019290755
C           60.23726301819913       -0.03736525158163        0.04865789189710
C           61.46844902960540       -0.05582240540760        0.04604878121872
C           62.81007747298677       -0.07174982757293        0.03248660238532
C           64.03520055758175       -0.07803425608023        0.01711887424342
C           46.85288685819984        0.11940996899795       -0.03511177143293
C           47.46584150139736        0.05204329223098        1.23205775802912
C           46.80267356560307       -0.06390011229089        2.48017224362866
C           47.75447188116092       -0.06133635982113        3.46397706477008
C           49.02643643430083        0.06475034448023        2.84371290484652
N           48.80174401355492        0.11632240628869        1.49358121751062
C           50.27678092660558        0.11252180585642        3.47564872586443
C           50.26899710516426        0.11143851578511        4.95598409956896
C           49.60021113392015        1.10713584613296        5.67080297756375
C           49.59075165007315        1.11379374692780        7.05346069236699
C           50.23997916159307        0.10709459979478        7.78450788931781
N           50.27120076490381        0.13849625458608        9.17474151906958
C           49.24255356173282        0.92868176992082        9.85254810085403
C           50.62814604815170       -1.09801542417083        9.87056308600599
C           50.91508252991328       -0.89003286615174        7.06390521532853
C           50.93004640036295       -0.88171635084238        5.68118035476230
C           51.50823249653305        0.15940703314461        2.81811667144823
C           52.78611347430517        0.26976175735570        3.49755926163349
C           53.73343929568678        0.25737946005436        2.53633461303031
N           51.69897403317505        0.11308564078519        1.47031548808481
C           53.03195256630067        0.15648918253474        1.27271233037318
C           53.70000498350984        0.10632787578316        0.03193252444281
C           53.08672144038320        0.09075841709710       -1.23679237887604
C           53.74964087884318        0.01944614330864       -2.48835580213087
C           52.79799341452853        0.06192595730713       -3.47138820729246
C           51.52642286578463        0.16913290332526       -2.84685740697840
N           51.75109690767159        0.16962297581794       -1.49572138691350
C           50.27625795155426        0.24458284404239       -3.47649298068799
C           50.28374573454730        0.29669800965383       -4.95582062925082
C           50.95834249095405        1.31303516617821       -5.63529875685510
C           50.96717054011757        1.36876753417591       -7.01682540840362
C           50.31107660735427        0.39292315000981       -7.78278074447161
N           50.28016822453369        0.47396057000650       -9.17093215655519
C           49.90948165381182       -0.73273737876611       -9.91042776591132
C           51.31691780715551        1.27723697378400       -9.82050695550160
C           49.63007841068213       -0.62495987472035       -7.09763376788407
C           49.61615709922687       -0.66587452794359       -5.71551644621525
C           49.04506714351554        0.27176708475890       -2.81729260177943
C           47.76763025298314        0.41358208557730       -3.49174702677813
C           46.82029767171840        0.36828133118693       -2.53153051852441
C           47.52141773850556        0.21613260076045       -1.27286430909104
N           48.85419575293882        0.17501572372109       -1.47218013078931
H           45.73446215664005       -0.14361145865485        2.60181775514382
H           47.59077079510267       -0.15205212573344        4.52536026334361
H           49.53160392553274        0.18485144298017        0.79225033781606
H           49.09874121403524        1.90516949082339        5.13374919745062
H           49.07522045195153        1.92111788263912        7.55745688292984
H           49.33813565292979        0.78529698101524       10.92820963391044
H           49.39225975515123        1.98724896959926        9.63729245288836
H           48.23598702405619        0.63130162249944        9.53844102136903
H           51.66100248897390       -1.36191294306395        9.64124156851676
H           49.96775348812979       -1.92479584510765        9.58608100718811
H           50.55168016456604       -0.93292178498146       10.94474656612548
H           51.43967323070578       -1.68649055334782        7.57567927838017
H           51.44384665579916       -1.67673855178659        5.15169180851309
H           52.91991574617939        0.36129348868017        4.56323120030407
H           54.80428222912057        0.32254359823511        2.64532025083637
H           54.81758220795081       -0.05944574557555       -2.61283028256778
H           52.96164671544328        0.01008950936959       -4.53538050963289
H           51.02127440766871        0.21389852083668       -0.79241039738677
H           51.46439327062402        2.08882828762220       -5.07065917338018
H           51.48760101404048        2.19014410028457       -7.49227984884207
H           50.56157286246827       -1.57616237126172       -9.65748553417286
H           48.87430966256743       -0.99403129938267       -9.68882025018110
H           49.98593266241073       -0.52959872432523      -10.97804895322455
H           52.32019123507470        0.96135026522174       -9.51407726073127
H           51.22283561820873        1.16984909362087      -10.90047938846864
H           51.17554040743762        2.32944722205364       -9.57105774781985
H           49.10048604101178       -1.39962230378593       -7.63695765998996
H           49.09738207092931       -1.47588470363420       -5.21435996163041
H           47.63416360111029        0.54659802884896       -4.55307396418317
H           45.74972651968996        0.44201693636693       -2.63772308992820

          :  Hamiltonian                  GFN1-xTB          :
         :: total energy            -368.653459552231 Eh    ::
         :: gradient norm              0.000778361206 Eh/a0 ::
         :: HOMO-LUMO gap              0.803374232628 eV    ::
         :: SCC energy              -374.834574421376 Eh    ::
         :: repulsion energy           6.366810603278 Eh    ::

    * Orbital Energies and Occupations

         #    Occupation            Energy/Eh            Energy/eV
      -------------------------------------------------------------
         1        2.0000           -0.7955505             -21.6480
       ...           ...                  ...                  ...
       327        2.0000           -0.3981561             -10.8344
       328        2.0000           -0.3906816             -10.6310
       329        2.0000           -0.3899679             -10.6116
       330        2.0000           -0.3899450             -10.6109
       331        2.0000           -0.3874916             -10.5442
       332        2.0000           -0.3860536             -10.5051
       333        2.0000           -0.3847828             -10.4705
       334        2.0000           -0.3842237             -10.4553
       335        2.0000           -0.3841449             -10.4531
       336        2.0000           -0.3840288             -10.4500
       337        2.0000           -0.3737344             -10.1698
       338        2.0000           -0.3701679             -10.0728
       339        2.0000           -0.3651480              -9.9362 (HOMO)
       340        0.0000           -0.3356246              -9.1328 (LUMO)
       341                         -0.3275674              -8.9136
       342                         -0.3226881              -8.7808
       343                         -0.3206812              -8.7262
       344                         -0.3205113              -8.7216
       345                         -0.3204118              -8.7188
       346                         -0.2996949              -8.1551
       347                         -0.2914733              -7.9314
       348                         -0.2913908              -7.9291
       349                         -0.2899067              -7.8888
       350                         -0.2859256              -7.7804
       ...                                ...                  ...
       752                          1.6138428              43.9149
      -------------------------------------------------------------
                  HL-Gap            0.0295235 Eh            0.8034 eV

Wiberg/Mayer (AO) data.
largest (>0.10) Wiberg bond orders for each atom

     #   Z sym  total        # sym  WBO       # sym  WBO       # sym  WBO
 ---------------------------------------------------------------------------
     1   6 C    3.921 --    41 C    1.367     2 C    1.344    43 H    0.971
     2   6 C    3.904 --     1 C    1.344     3 C    1.233     6 N    1.169
     3   6 C    3.951 --     4 C    1.590     2 C    1.233    44 H    0.977
     4   6 C    3.959 --     3 C    1.590     5 C    1.239    45 H    0.974
     5   6 C    3.894 --     7 C    1.296     4 C    1.239     6 N    1.178
     6   7 N    3.469 --     5 C    1.178     2 C    1.169    46 H    0.873
     7   6 C    3.938 --    17 C    1.335     5 C    1.296     8 C    1.038
     8   6 C    3.987 --    16 C    1.376     9 C    1.376     7 C    1.038
     9   6 C    3.986 --    10 C    1.473     8 C    1.376    47 H    0.972
    10   6 C    3.989 --     9 C    1.473    11 C    1.341    48 H    0.968
    11   6 C    3.951 --    10 C    1.341    15 C    1.341    12 N    1.111
    12   7 N    3.221 --    11 C    1.111    13 C    0.964    14 C    0.963
    13   6 C    3.969 --    50 H    0.985    51 H    0.983    49 H    0.983
                            12 N    0.964
    14   6 C    3.969 --    54 H    0.985    52 H    0.983    53 H    0.983
                            12 N    0.963
    15   6 C    3.989 --    16 C    1.473    11 C    1.341    55 H    0.968
    16   6 C    3.987 --    15 C    1.473     8 C    1.376    56 H    0.972
    17   6 C    3.913 --     7 C    1.335    20 N    1.284    18 C    1.127
    18   6 C    3.966 --    19 C    1.707    17 C    1.127    57 H    0.973
    19   6 C    3.963 --    18 C    1.707    21 C    1.130    58 H    0.974
    20   7 N    3.020 --    21 C    1.346    17 C    1.284
    21   6 C    3.908 --    20 N    1.346    22 C    1.250    19 C    1.130
    22   6 C    3.934 --    21 C    1.250    23 C    1.248   147 C    1.196
    23   6 C    3.885 --    24 C    1.251    22 C    1.248    27 N    1.190
    24   6 C    3.957 --    25 C    1.579    23 C    1.251    59 H    0.975
    25   6 C    3.955 --    24 C    1.579    26 C    1.244    60 H    0.974
    26   6 C    3.897 --    28 C    1.306    25 C    1.244    27 N    1.163
    27   7 N    3.472 --    23 C    1.190    26 C    1.163    61 H    0.873
    28   6 C    3.924 --    38 C    1.315    26 C    1.306    29 C    1.040
    29   6 C    3.987 --    30 C    1.375    37 C    1.375    28 C    1.040
    30   6 C    3.985 --    31 C    1.473    29 C    1.375    62 H    0.972
    31   6 C    3.988 --    30 C    1.473    32 C    1.341    63 H    0.968
    32   6 C    3.950 --    31 C    1.341    36 C    1.340    33 N    1.111
    33   7 N    3.220 --    32 C    1.111    35 C    0.964    34 C    0.963
    34   6 C    3.969 --    64 H    0.985    65 H    0.983    66 H    0.983
                            33 N    0.963
    35   6 C    3.969 --    68 H    0.985    67 H    0.983    69 H    0.983
                            33 N    0.964
    36   6 C    3.989 --    37 C    1.474    32 C    1.340    70 H    0.968
    37   6 C    3.986 --    36 C    1.474    29 C    1.375    71 H    0.972
    38   6 C    3.927 --    42 N    1.320    28 C    1.315    39 C    1.120
    39   6 C    3.967 --    40 C    1.718    38 C    1.120    72 H    0.973
    40   6 C    3.966 --    39 C    1.718    41 C    1.119    73 H    0.976
    41   6 C    3.930 --     1 C    1.367    42 N    1.297    40 C    1.119
    42   7 N    3.010 --    38 C    1.320    41 C    1.297
    43   1 H    1.002 --     1 C    0.971
    44   1 H    0.998 --     3 C    0.977
    45   1 H    1.006 --     4 C    0.974
    46   1 H    0.986 --     6 N    0.873
    47   1 H    1.006 --     9 C    0.972
    48   1 H    1.002 --    10 C    0.968
    49   1 H    1.003 --    13 C    0.983
    50   1 H    1.009 --    13 C    0.985
    51   1 H    1.013 --    13 C    0.983
    52   1 H    1.003 --    14 C    0.983
    53   1 H    1.013 --    14 C    0.983
    54   1 H    1.009 --    14 C    0.985
    55   1 H    1.002 --    15 C    0.968
    56   1 H    1.005 --    16 C    0.972
    57   1 H    1.006 --    18 C    0.973
    58   1 H    1.003 --    19 C    0.974
    59   1 H    1.002 --    24 C    0.975
    60   1 H    1.006 --    25 C    0.974
    61   1 H    0.988 --    27 N    0.873
    62   1 H    1.006 --    30 C    0.972
    63   1 H    1.002 --    31 C    0.968
    64   1 H    1.009 --    34 C    0.985
    65   1 H    1.003 --    34 C    0.983
    66   1 H    1.013 --    34 C    0.983
    67   1 H    1.013 --    35 C    0.983
    68   1 H    1.009 --    35 C    0.985
    69   1 H    1.003 --    35 C    0.983
    70   1 H    1.002 --    36 C    0.968
    71   1 H    1.005 --    37 C    0.972
    72   1 H    1.006 --    39 C    0.973
    73   1 H    0.999 --    40 C    0.976
    74   6 C    3.921 --   114 C    1.367    75 C    1.344   116 H    0.971
    75   6 C    3.904 --    74 C    1.344    76 C    1.233    79 N    1.169
    76   6 C    3.951 --    77 C    1.589    75 C    1.233   117 H    0.977
    77   6 C    3.959 --    76 C    1.589    78 C    1.239   118 H    0.974
    78   6 C    3.894 --    80 C    1.296    77 C    1.239    79 N    1.178
    79   7 N    3.469 --    78 C    1.178    75 C    1.169   119 H    0.873
    80   6 C    3.938 --    90 C    1.334    78 C    1.296    81 C    1.039
    81   6 C    3.987 --    89 C    1.376    82 C    1.376    80 C    1.039
    82   6 C    3.986 --    83 C    1.473    81 C    1.376   120 H    0.972
    83   6 C    3.989 --    82 C    1.473    84 C    1.341   121 H    0.968
    84   6 C    3.951 --    83 C    1.341    88 C    1.341    85 N    1.111
    85   7 N    3.221 --    84 C    1.111    86 C    0.964    87 C    0.963
    86   6 C    3.969 --   123 H    0.985   124 H    0.983   122 H    0.983
                            85 N    0.964
    87   6 C    3.969 --   127 H    0.985   125 H    0.983   126 H    0.983
                            85 N    0.963
    88   6 C    3.989 --    89 C    1.473    84 C    1.341   128 H    0.968
    89   6 C    3.987 --    88 C    1.473    81 C    1.376   129 H    0.972
    90   6 C    3.913 --    80 C    1.334    93 N    1.284    91 C    1.127
    91   6 C    3.966 --    92 C    1.706    90 C    1.127   130 H    0.973
    92   6 C    3.963 --    91 C    1.706    94 C    1.130   131 H    0.974
    93   7 N    3.019 --    94 C    1.346    90 C    1.284
    94   6 C    3.908 --    93 N    1.346    95 C    1.250    92 C    1.130
    95   6 C    3.934 --    94 C    1.250    96 C    1.248   162 C    1.196
    96   6 C    3.885 --    97 C    1.252    95 C    1.248   100 N    1.190
    97   6 C    3.957 --    98 C    1.579    96 C    1.252   132 H    0.975
    98   6 C    3.955 --    97 C    1.579    99 C    1.244   133 H    0.974
    99   6 C    3.897 --   101 C    1.306    98 C    1.244   100 N    1.164
   100   7 N    3.472 --    96 C    1.190    99 C    1.164   134 H    0.873
   101   6 C    3.924 --   111 C    1.314    99 C    1.306   102 C    1.041
   102   6 C    3.987 --   103 C    1.375   110 C    1.374   101 C    1.041
   103   6 C    3.985 --   104 C    1.473   102 C    1.375   135 H    0.972
   104   6 C    3.988 --   103 C    1.473   105 C    1.341   136 H    0.968
   105   6 C    3.950 --   104 C    1.341   109 C    1.340   106 N    1.111
   106   7 N    3.220 --   105 C    1.111   108 C    0.964   107 C    0.962
   107   6 C    3.969 --   137 H    0.985   138 H    0.983   139 H    0.983
                           106 N    0.962
   108   6 C    3.969 --   141 H    0.985   140 H    0.983   142 H    0.983
                           106 N    0.964
   109   6 C    3.989 --   110 C    1.474   105 C    1.340   143 H    0.968
   110   6 C    3.986 --   109 C    1.474   102 C    1.374   144 H    0.972
   111   6 C    3.927 --   115 N    1.321   101 C    1.314   112 C    1.120
   112   6 C    3.967 --   113 C    1.718   111 C    1.120   145 H    0.973
   113   6 C    3.966 --   112 C    1.718   114 C    1.119   146 H    0.976
   114   6 C    3.930 --    74 C    1.367   115 N    1.297   113 C    1.119
   115   7 N    3.010 --   111 C    1.321   114 C    1.297
   116   1 H    1.002 --    74 C    0.971
   117   1 H    0.998 --    76 C    0.977
   118   1 H    1.006 --    77 C    0.974
   119   1 H    0.986 --    79 N    0.873
   120   1 H    1.006 --    82 C    0.972
   121   1 H    1.002 --    83 C    0.968
   122   1 H    1.003 --    86 C    0.983
   123   1 H    1.009 --    86 C    0.985
   124   1 H    1.013 --    86 C    0.983
   125   1 H    1.003 --    87 C    0.983
   126   1 H    1.013 --    87 C    0.983
   127   1 H    1.009 --    87 C    0.985
   128   1 H    1.002 --    88 C    0.968
   129   1 H    1.005 --    89 C    0.972
   130   1 H    1.006 --    91 C    0.973
   131   1 H    1.003 --    92 C    0.974
   132   1 H    1.002 --    97 C    0.975
   133   1 H    1.006 --    98 C    0.974
   134   1 H    0.987 --   100 N    0.873
   135   1 H    1.006 --   103 C    0.972
   136   1 H    1.002 --   104 C    0.968
   137   1 H    1.009 --   107 C    0.985
   138   1 H    1.003 --   107 C    0.983
   139   1 H    1.013 --   107 C    0.983
   140   1 H    1.013 --   108 C    0.983
   141   1 H    1.009 --   108 C    0.985
   142   1 H    1.003 --   108 C    0.983
   143   1 H    1.002 --   109 C    0.968
   144   1 H    1.005 --   110 C    0.972
   145   1 H    1.006 --   112 C    0.973
   146   1 H    0.999 --   113 C    0.976
   147   6 C    3.875 --   148 C    2.431    22 C    1.196   150 C    0.186
   148   6 C    3.931 --   147 C    2.431   149 C    1.349
   149   6 C    3.890 --   150 C    2.328   148 C    1.349   152 C    0.181
   150   6 C    3.923 --   149 C    2.328   151 C    1.374   147 C    0.186
   151   6 C    3.922 --   152 C    2.327   150 C    1.374   154 C    0.185
   152   6 C    3.891 --   151 C    2.327   153 C    1.350   149 C    0.181
   153   6 C    3.927 --   154 C    2.428   152 C    1.350
   154   6 C    3.876 --   153 C    2.428   163 C    1.200   151 C    0.185
   155   6 C    3.876 --   156 C    2.428   184 C    1.200   158 C    0.185
   156   6 C    3.927 --   155 C    2.428   157 C    1.350
   157   6 C    3.891 --   158 C    2.327   156 C    1.350   160 C    0.181
   158   6 C    3.922 --   157 C    2.327   159 C    1.374   155 C    0.185
   159   6 C    3.923 --   160 C    2.328   158 C    1.374   162 C    0.186
   160   6 C    3.890 --   159 C    2.328   161 C    1.349   157 C    0.181
   161   6 C    3.931 --   162 C    2.431   160 C    1.349
   162   6 C    3.875 --   161 C    2.431    95 C    1.196   159 C    0.186
   163   6 C    3.920 --   203 C    1.250   164 C    1.243   154 C    1.200
   164   6 C    3.886 --   165 C    1.257   163 C    1.243   168 N    1.190
   165   6 C    3.954 --   166 C    1.572   164 C    1.257   205 H    0.975
   166   6 C    3.956 --   165 C    1.572   167 C    1.251   206 H    0.974
   167   6 C    3.891 --   169 C    1.294   166 C    1.251   168 N    1.166
   168   7 N    3.470 --   164 C    1.190   167 C    1.166   207 H    0.874
   169   6 C    3.926 --   179 C    1.335   167 C    1.294   170 C    1.039
   170   6 C    3.987 --   178 C    1.375   171 C    1.375   169 C    1.039
   171   6 C    3.986 --   172 C    1.474   170 C    1.375   208 H    0.972
   172   6 C    3.989 --   171 C    1.474   173 C    1.340   209 H    0.968
   173   6 C    3.951 --   177 C    1.340   172 C    1.340   174 N    1.112
   174   7 N    3.222 --   173 C    1.112   176 C    0.963   175 C    0.963
   175   6 C    3.969 --   210 H    0.985   212 H    0.983   211 H    0.983
                           174 N    0.963
   176   6 C    3.969 --   215 H    0.985   213 H    0.983   214 H    0.983
                           174 N    0.963
   177   6 C    3.989 --   178 C    1.473   173 C    1.340   216 H    0.968
   178   6 C    3.987 --   177 C    1.473   170 C    1.375   217 H    0.972
   179   6 C    3.914 --   169 C    1.335   182 N    1.284   180 C    1.128
   180   6 C    3.966 --   181 C    1.705   179 C    1.128   218 H    0.973
   181   6 C    3.963 --   180 C    1.705   183 C    1.132   219 H    0.974
   182   7 N    3.006 --   183 C    1.345   179 C    1.284
   183   6 C    3.908 --   182 N    1.345   184 C    1.250   181 C    1.132
   184   6 C    3.920 --   183 C    1.250   185 C    1.243   155 C    1.200
   185   6 C    3.886 --   186 C    1.257   184 C    1.243   189 N    1.190
   186   6 C    3.954 --   187 C    1.572   185 C    1.257   220 H    0.975
   187   6 C    3.956 --   186 C    1.572   188 C    1.251   221 H    0.974
   188   6 C    3.891 --   190 C    1.294   187 C    1.251   189 N    1.166
   189   7 N    3.470 --   185 C    1.190   188 C    1.166   222 H    0.874
   190   6 C    3.926 --   200 C    1.335   188 C    1.294   191 C    1.039
   191   6 C    3.987 --   192 C    1.375   199 C    1.375   190 C    1.039
   192   6 C    3.986 --   193 C    1.474   191 C    1.375   223 H    0.972
   193   6 C    3.989 --   192 C    1.474   194 C    1.340   224 H    0.968
   194   6 C    3.950 --   198 C    1.340   193 C    1.340   195 N    1.112
   195   7 N    3.222 --   194 C    1.112   196 C    0.963   197 C    0.963
   196   6 C    3.969 --   227 H    0.985   226 H    0.983   225 H    0.983
                           195 N    0.963
   197   6 C    3.969 --   229 H    0.985   228 H    0.983   230 H    0.983
                           195 N    0.963
   198   6 C    3.989 --   199 C    1.473   194 C    1.340   231 H    0.968
   199   6 C    3.987 --   198 C    1.473   191 C    1.375   232 H    0.972
   200   6 C    3.914 --   190 C    1.335   204 N    1.284   201 C    1.128
   201   6 C    3.966 --   202 C    1.705   200 C    1.128   233 H    0.973
   202   6 C    3.963 --   201 C    1.705   203 C    1.132   234 H    0.974
   203   6 C    3.908 --   204 N    1.345   163 C    1.250   202 C    1.132
   204   7 N    3.006 --   203 C    1.345   200 C    1.284
   205   1 H    1.002 --   165 C    0.975
   206   1 H    1.006 --   166 C    0.974
   207   1 H    0.987 --   168 N    0.874
   208   1 H    1.005 --   171 C    0.972
   209   1 H    1.002 --   172 C    0.968
   210   1 H    1.009 --   175 C    0.985
   211   1 H    1.013 --   175 C    0.983
   212   1 H    1.003 --   175 C    0.983
   213   1 H    1.013 --   176 C    0.983
   214   1 H    1.003 --   176 C    0.983
   215   1 H    1.009 --   176 C    0.985
   216   1 H    1.002 --   177 C    0.968
   217   1 H    1.006 --   178 C    0.972
   218   1 H    1.006 --   180 C    0.973
   219   1 H    1.003 --   181 C    0.974
   220   1 H    1.002 --   186 C    0.975
   221   1 H    1.006 --   187 C    0.974
   222   1 H    0.987 --   189 N    0.874
   223   1 H    1.005 --   192 C    0.972
   224   1 H    1.002 --   193 C    0.968
   225   1 H    1.003 --   196 C    0.983
   226   1 H    1.013 --   196 C    0.983
   227   1 H    1.009 --   196 C    0.985
   228   1 H    1.003 --   197 C    0.983
   229   1 H    1.009 --   197 C    0.985
   230   1 H    1.013 --   197 C    0.983
   231   1 H    1.002 --   198 C    0.968
   232   1 H    1.006 --   199 C    0.972
   233   1 H    1.006 --   201 C    0.973
   234   1 H    1.003 --   202 C    0.974
 ---------------------------------------------------------------------------

           -------------------------------------------------
          | TOTAL ENERGY             -368.653459552231 Eh   |
          | GRADIENT NORM               0.000778361206 Eh/α |
          | HOMO-LUMO GAP               0.803374232628 eV   |
           -------------------------------------------------

 * finished run on 2022/07/29 at 01:17:27.157
