   * xtb version 6.5.1 (b24c23e) compiled by 'conda@728c89f4b128' on 2022-07-12
          program call               : xtb Cu_PhCHO_C6_3.xyz --gfn 1 --opt -T 48

   ID    Z sym.   atoms
    1   29 Cu     1, 61, 133
    2    6 C      2-6, 8-13, 15-19, 21-26, 28-33, 35-40, 62-66, 68-73, 75-79,
                  81-86, 88-93, 95-100, 121-132, 134-138, 140-145, 147-151,
                  153-158, 160-165, 167-172
    3    7 N      7, 20, 27, 41, 67, 80, 87, 101, 139, 152, 159, 173
    4    8 O      14, 34, 74, 94, 146, 166
    5    1 H      42-60, 102-120, 174-191

          :  Hamiltonian                  GFN1-xTB          :
 * total energy  :  -350.1422495 Eh     change       -0.5687752E-09 Eh
 * total energy  :  -350.3338039 Eh     change       -0.1915544E+00 Eh
 * total energy  :  -350.4305173 Eh     change       -0.9671343E-01 Eh
 * total energy  :  -350.4935486 Eh     change       -0.6303130E-01 Eh
 * total energy  :  -350.5579337 Eh     change       -0.6438506E-01 Eh
 * total energy  :  -350.6068009 Eh     change       -0.4886724E-01 Eh
 * total energy  :  -350.6333463 Eh     change       -0.2654537E-01 Eh
 * total energy  :  -350.6544469 Eh     change       -0.2110056E-01 Eh
 * total energy  :  -350.6692070 Eh     change       -0.1476011E-01 Eh
 * total energy  :  -350.6797686 Eh     change       -0.1056163E-01 Eh
 * total energy  :  -350.7769365 Eh     change       -0.8842699E-05 Eh
 * total energy  :  -350.7769482 Eh     change       -0.1175602E-04 Eh
 * total energy  :  -350.7769590 Eh     change       -0.1080072E-04 Eh
 * total energy  :  -350.7769650 Eh     change       -0.5961220E-05 Eh
 * total energy  :  -350.7769598 Eh     change        0.5222246E-05 Eh
 * total energy  :  -350.7769675 Eh     change       -0.7732461E-05 Eh
 * total energy  :  -350.7769491 Eh     change        0.1837817E-04 Eh
 * total energy  :  -350.7769672 Eh     change       -0.1807190E-04 Eh
 * total energy  :  -350.7769680 Eh     change       -0.7795899E-06 Eh
   *** GEOMETRY OPTIMIZATION CONVERGED AFTER 72 ITERATIONS ***

 final structure:
================
191
 xtb: 6.5.1 (b24c23e)
Cu          29.43662114330933        0.00828123113339       -0.00107972538612
C           26.03020930043304        0.05278172761362       -0.06177558243778
C           26.66765767242517        1.27389649685806        0.09640934166534
C           25.99443032977290        2.52909200385937        0.27065216931210
C           26.95467709603053        3.47684033752053        0.40481143772975
C           28.22441421078851        2.80923886695824        0.30437720383559
N           28.01895402983672        1.47187518897336        0.12597705790674
C           29.47068489801008        3.43229667884996        0.40817373887801
C           29.48315101687740        4.90464047490242        0.58384534062241
C           30.02017022842946        5.47637974582541        1.74112627398980
C           30.02216916783532        6.84816668750731        1.90532518971569
C           29.49271342377565        7.68057059367152        0.91356234585865
C           29.50593787468620        9.14118196884970        1.11220404859800
O           29.95189306815280        9.67947114272608        2.09308081388074
C           28.95993408276943        7.11069053271617       -0.24529344416786
C           28.95297571531988        5.73662544949208       -0.40619915331114
C           30.70322068982527        2.77775819990411        0.35938052929099
C           31.98194630945462        3.42778441632947        0.41727684097514
C           32.92605404526773        2.45793955872225        0.31962922671532
N           30.88885610540655        1.42838780516111        0.21456176073054
C           32.23235279622870        1.21140982606363        0.19335085282598
C           32.86629152953120       -0.03600693068196        0.05424287806167
C           32.20516373535466       -1.26725930626709       -0.10011696610500
C           32.87129536681276       -2.52416357482012       -0.26597368920091
C           31.90605337486109       -3.46944096851248       -0.39329215681537
C           30.64190004034882       -2.79558030952997       -0.29856011694023
N           30.85721000342910       -1.45368795769649       -0.12802590080623
C           29.39550610004035       -3.41644348679066       -0.40286867987272
C           29.37621731000662       -4.89008236794314       -0.56770961353012
C           28.83939779836600       -5.46450249909248       -1.72315322655162
C           28.81652310725055       -6.83927760784167       -1.87707550232538
C           29.32498072616103       -7.66809338275642       -0.87405945522223
C           29.30575805560763       -9.13584147638686       -1.01034178095635
O           29.72604281378675       -9.89150419947905       -0.17191073978332
C           29.86117844246106       -7.09349547282640        0.28314245397298
C           29.88955893768810       -5.72041406665888        0.43310859368718
C           28.16333556630732       -2.75917682791434       -0.36082652218878
C           26.87914510351891       -3.40338710295974       -0.42303065246671
C           25.94003404922207       -2.42987627200067       -0.33023026548285
C           26.64073665493967       -1.18429492406454       -0.20098898876357
N           27.98732068884700       -1.41324778382843       -0.21880300239487
H           24.94520718403219        0.06520859278514       -0.06619415753196
H           24.92330732391330        2.65353886363218        0.29327358260656
H           26.82192501802155        4.53372156365449        0.57116410821847
H           30.41966762457981        4.83326239039363        2.51714343018729
H           30.43038689143462        7.29936769957031        2.80332703933838
H           29.06669043384057        9.71945421620828        0.27138919608315
H           28.55112014709756        7.74932435911917       -1.02161445562656
H           28.54886336371550        5.29743369196452       -1.31139456456622
H           32.13416061168135        4.49110834085663        0.50712946296709
H           33.99862526001889        2.56774931575450        0.32513797910511
H           33.94124329308298       -2.65561946093716       -0.28705813401831
H           32.03459338532069       -4.52798785139472       -0.55098370359060
H           28.45374672490193       -4.82321939773592       -2.50775424187612
H           28.40275203883724       -7.27667298071191       -2.77992479717523
H           28.86446448592920       -9.49940743326544       -1.96288809923213
H           30.25058744110259       -7.74496256391891        1.05811495175538
H           30.29464658892119       -5.27818884415513        1.33629582255932
H           26.72299751702541       -4.46634973165828       -0.51254981597684
H           24.86639257939401       -2.53242317444721       -0.33944364910171
Cu          61.52323428946623       -0.03533995233832       -0.02353694449511
C           64.92992582688892       -0.06898662648663       -0.06038934422084
C           64.29337713945026       -1.30055497948865       -0.08320910874758
C           64.96736292390095       -2.56737271575693       -0.08208969978310
C           64.00775101106396       -3.52511976803586       -0.09513794589424
C           62.73775166784949       -2.85075062624180       -0.11419687517742
N           62.94227204758440       -1.50150968096081       -0.09682702061330
C           61.49163644053609       -3.48278131809871       -0.11784455334880
C           61.47976268090250       -4.96497402154811       -0.15587014423257
C           60.92417437878203       -5.69669815008095        0.89800825253619
C           60.92224861129237       -7.07781989641833        0.86377663114792
C           61.47053727819328       -7.75962439485703       -0.22772689804161
C           61.45607239837375       -9.23356088017135       -0.24129388370700
O           60.99331092572077       -9.90677402184598        0.64377598626946
C           62.02221408012978       -7.02960685161509       -1.28333691422187
C           62.02876649182275       -5.64666603739947       -1.24556334184804
C           60.25843239340901       -2.82824665756048       -0.08791823984584
C           58.98042266434444       -3.47988798334544       -0.14385221569289
C           58.03561283356429       -2.50648405355787       -0.10824937653521
N           60.07185019591437       -1.47236916779159       -0.03403742514128
C           58.72827143499937       -1.25492621281550       -0.03863614451140
C           58.09339990836692       -0.00121854813060        0.00892956345716
C           58.75346045645163        1.23953866684902        0.04952679477157
C           58.08643398298293        2.50672295072264        0.06982675932326
C           59.05099686174457        3.46103220939628        0.08806618049287
C           60.31565825771508        2.78142363957059        0.08702964468523
N           60.10130158964564        1.42892001380914        0.05635599149319
C           61.56177904502257        3.41153246011431        0.07886164638963
C           61.58069118628337        4.89351440560866        0.12855782923502
C           62.12372782350939        5.62814677735814       -0.92913534414945
C           62.14773534495615        7.01070407422923       -0.88304225504692
C           61.63390609075230        7.68666593274028        0.22625655908905
C           61.65543330263020        9.15868009085142        0.30369873191370
O           61.22995490119605        9.78605487846951        1.23961403477591
C           61.09083243346383        6.95168944557908        1.28533038038554
C           61.06167692872670        5.57132784664024        1.23570322108053
C           62.79457553763066        2.75570588068059        0.03073830199609
C           64.07825221498670        3.40283634908095        0.06959416990430
C           65.01816660303570        2.42658676727968        0.02793082276974
C           64.31846540423356        1.17499234155823       -0.02726388081822
N           62.97168711529790        1.40347122152210       -0.02141075446518
H           66.01494711967605       -0.08006700923942       -0.05692591243176
H           66.03843531698040       -2.69316731293508       -0.06534536778812
H           64.14106052331499       -4.59482503895423       -0.07939725181657
H           60.50995178212903       -5.17141053676620        1.75117886443801
H           60.49924956154564       -7.65296084476106        1.68042621120021
H           61.91503060898222       -9.68549339985999       -1.14650861206005
H           62.44599335671034       -7.55044757059007       -2.13586204943725
H           62.44720601518693       -5.08241947252691       -2.07146155762952
H           58.82921911911948       -4.54475866844182       -0.21519630383756
H           56.96328605235400       -2.61614998626158       -0.13251989309407
H           57.01641494685808        2.63913225754996        0.06388273685438
H           58.92163741323878        4.53115529975000        0.08847126759328
H           62.51364898168327        5.10636579366061       -1.79590264834453
H           62.56672583354811        7.57332500347797       -1.71103122062992
H           62.10160392569078        9.65530234015319       -0.58433346254531
H           60.69713496981744        7.48495780929259        2.14396622296904
H           60.65184115111229        5.00393252253103        2.06364818143470
H           64.23354566343940        4.46769284857731        0.13465396839942
H           66.09169157505974        2.52996978349791        0.04057193234532
C           38.06914923980931       -0.06639811898693        0.06248268585644
C           36.84085024198588       -0.06533121665036        0.06266469032939
C           35.49606723054556       -0.05939420584794        0.06187706177615
C           34.27237005225472       -0.05104877599439        0.05884313374473
C           39.41378986868174       -0.06641634568565        0.05622580927772
C           40.63768437475984       -0.06105953166946        0.04960544911866
C           54.11868072161665        0.02213788652628       -0.00381886811270
C           52.89046765089960        0.02238334803792       -0.00526878724675
C           51.54576466517317        0.01742989232620       -0.00490829840873
C           50.32191174743206        0.00862543333531       -0.00610212778504
C           55.46351055253258        0.01580043353999        0.00363164390907
C           56.68718920689218        0.01118743482663        0.00644586961568
Cu          45.47975727047761       -0.02452216586817        0.01641768367585
C           42.04303119736268       -0.05112016371447        0.04085877166513
C           42.68507727175014        1.15386982510228        0.37918019565645
C           42.00042996422676        2.37360681951043        0.68550448976821
C           42.95143518268019        3.30031012814877        0.96684442128617
C           44.22385930870520        2.64786395536631        0.84261743459415
N           44.02893394227331        1.34325571690007        0.47558051562136
C           45.46182247830360        3.26283799831885        1.04346231733190
C           45.45449540993270        4.67786491603991        1.48633887082523
C           46.03003709033294        5.67201136907477        0.68924548362387
C           46.02087761486486        6.99015052400569        1.10274118606142
C           45.44139349303789        7.34424215995415        2.32567198288796
C           45.44726044536466        8.75732369565744        2.74611232958276
O           45.92781880336054        9.64776476174372        2.09289378093282
C           44.86837281430624        6.35153546449771        3.12420451165054
C           44.87253749671734        5.03256930652847        2.70654304769652
C           46.70646484403724        2.65554479454852        0.86180687579795
C           47.97202195684000        3.27559073183641        1.13447374403713
C           48.93297167164236        2.36282893085180        0.84207700527628
N           46.91540626158712        1.37564149388113        0.42254660698762
C           48.26140463536091        1.17847120657014        0.39842869518073
C           48.91643299515117        0.00028723860360       -0.00285966345972
C           48.27393685238118       -1.18655175523228       -0.39911549227946
C           48.95738504220282       -2.36017474526218       -0.85278253420934
C           48.00633636479630       -3.28627933768255       -1.13595901780432
C           46.73528535126007       -2.68540043964946       -0.84683980321428
N           46.93079034423570       -1.40332698541337       -0.40783702157384
C           45.49758185725197       -3.31116519885881       -1.01296038908214
C           45.50509392839540       -4.72549546387723       -1.45819683588483
C           46.10338233243706       -5.71117299973370       -0.66835952799015
C           46.10888182003252       -7.03196299459492       -1.08018254730635
C           45.52108002277923       -7.39263505164208       -2.29506138124726
C           45.51672302839361       -8.79214782422114       -2.75844888566415
O           45.02653418546250       -9.15125034861657       -3.79836743624781
C           44.92507572468823       -6.40587316929864       -3.08744541101673
C           44.91423452366975       -5.08824317797318       -2.67236907819651
C           44.25331767107961       -2.71531837434811       -0.79477777520083
C           42.98929373192286       -3.38679094300376       -0.90327666888794
C           42.02837936809831       -2.47534033343444       -0.60656672667511
C           42.69861663903520       -1.24585983335779       -0.30709923699670
N           44.04377484846476       -1.41461910767289       -0.42190331039729
H           40.92948535884934        2.49804767833790        0.67554278284700
H           42.80757223326663        4.33782125321230        1.22140524627900
H           46.46944206999127        5.40217012856216       -0.26443669932442
H           46.45997699198151        7.76818571685173        0.48753354272317
H           44.96805091248235        8.94183456928195        3.73124808443686
H           44.42001143036101        6.61703538053275        4.07609626683360
H           44.43769056806278        4.26242106221621        3.33369866648095
H           48.10485353693753        4.27538419517803        1.51475042498738
H           50.00266048954550        2.47012498374724        0.92411219097499
H           50.02747329559223       -2.45151421646111       -0.94816322546268
H           48.14910463277305       -4.28310759979853       -1.52052268068857
H           46.55017941909524       -5.43571445646504        0.28033652072084
H           46.57007727293693       -7.79173370547728       -0.45756086735147
H           46.00981636288404       -9.50424524968969       -2.06278719756339
H           44.47446198223124       -6.69457930854740       -4.03096543655488
H           44.46166809308038       -4.32388202864296       -3.29393555194182
H           42.85775254030291       -4.42555100179144       -1.15929891941227
H           40.95964133097164       -2.61578149550442       -0.58250580129639

          :  Hamiltonian                  GFN1-xTB          :
         :: total energy            -350.776967961109 Eh    ::
         :: gradient norm              0.000822060785 Eh/a0 ::
         :: HOMO-LUMO gap              0.000036148685 eV    ::
         :: SCC energy              -356.257698685701 Eh    ::
         :: repulsion energy           5.651839187807 Eh    ::

    * Orbital Energies and Occupations

         #    Occupation            Energy/Eh            Energy/eV
      -------------------------------------------------------------
         1        2.0000           -0.7924267             -21.5630
       ...           ...                  ...                  ...
       309        2.0000           -0.4214415             -11.4680
       310        2.0000           -0.4214027             -11.4670
       311        2.0000           -0.4210152             -11.4564
       312        2.0000           -0.4208666             -11.4524
       313        2.0000           -0.4204903             -11.4421
       314        2.0000           -0.4090087             -11.1297
       315        2.0000           -0.4090043             -11.1296
       316        2.0000           -0.4088877             -11.1264
       317        2.0000           -0.4054037             -11.0316
       318        2.0000           -0.3992853             -10.8651
       319        2.0000           -0.3915625             -10.6550
       320        1.0168           -0.3691543             -10.0452
       321        0.9919           -0.3691011             -10.0438 (HOMO)
       322        0.9913           -0.3690997             -10.0437 (LUMO)
       323        0.0000           -0.3542634              -9.6400
       324                         -0.3459411              -9.4135
       325                         -0.3442720              -9.3681
       326                         -0.3442330              -9.3671
       327                         -0.3440383              -9.3618
       328                         -0.3391488              -9.2287
       329                         -0.3283749              -8.9355
       330                         -0.3277265              -8.9179
       331                         -0.3273323              -8.9072
       332                         -0.3228432              -8.7850
       ...                                ...                  ...
       667                          1.5688591              42.6908
      -------------------------------------------------------------
                  HL-Gap            0.0000013 Eh            0.0000 eV

Wiberg/Mayer (AO) data.
largest (>0.10) Wiberg bond orders for each atom

     #   Z sym  total        # sym  WBO       # sym  WBO       # sym  WBO
 ---------------------------------------------------------------------------
     1  29 Cu   2.187 --     7 N    0.505    41 N    0.505    27 N    0.503
                            20 N    0.503
     2   6 C    3.930 --    40 C    1.362     3 C    1.362    42 H    0.971
     3   6 C    3.916 --     2 C    1.362     7 N    1.228     4 C    1.170
     4   6 C    3.955 --     5 C    1.657     3 C    1.170    43 H    0.975
     5   6 C    3.958 --     4 C    1.657     6 C    1.171    44 H    0.973
     6   6 C    3.913 --     8 C    1.317     7 N    1.240     5 C    1.171
     7   7 N    3.244 --     6 C    1.240     3 C    1.228     1 Cu   0.505
     8   6 C    3.933 --    17 C    1.325     6 C    1.317     9 C    1.031
     9   6 C    3.986 --    16 C    1.383    10 C    1.381     8 C    1.031
    10   6 C    3.987 --    11 C    1.471     9 C    1.381    45 H    0.972
    11   6 C    3.988 --    10 C    1.471    12 C    1.370    46 H    0.968
                            16 C    0.100
    12   6 C    3.983 --    15 C    1.378    11 C    1.370    13 C    1.049
    13   6 C    3.864 --    14 O    1.808    12 C    1.049    47 H    0.942
    14   8 O    2.003 --    13 C    1.808
    15   6 C    3.993 --    16 C    1.466    12 C    1.378    48 H    0.971
    16   6 C    3.988 --    15 C    1.466     9 C    1.383    49 H    0.972
                            11 C    0.100
    17   6 C    3.907 --     8 C    1.325    20 N    1.223    18 C    1.178
    18   6 C    3.954 --    19 C    1.643    17 C    1.178    50 H    0.973
    19   6 C    3.956 --    18 C    1.643    21 C    1.186    51 H    0.974
    20   7 N    3.248 --    21 C    1.256    17 C    1.223     1 Cu   0.503
    21   6 C    3.895 --    22 C    1.260    20 N    1.256    19 C    1.186
    22   6 C    3.940 --    23 C    1.260    21 C    1.260   124 C    1.188
    23   6 C    3.895 --    22 C    1.260    27 N    1.256    24 C    1.186
    24   6 C    3.956 --    25 C    1.643    23 C    1.186    52 H    0.974
    25   6 C    3.954 --    24 C    1.643    26 C    1.178    53 H    0.973
    26   6 C    3.907 --    28 C    1.325    27 N    1.223    25 C    1.178
    27   7 N    3.248 --    23 C    1.256    26 C    1.223     1 Cu   0.503
    28   6 C    3.933 --    26 C    1.325    37 C    1.317    29 C    1.030
    29   6 C    3.986 --    30 C    1.384    36 C    1.381    28 C    1.030
    30   6 C    3.988 --    31 C    1.465    29 C    1.384    54 H    0.972
                            35 C    0.100
    31   6 C    3.993 --    30 C    1.465    32 C    1.378    55 H    0.971
    32   6 C    3.984 --    31 C    1.378    35 C    1.370    33 C    1.049
    33   6 C    3.864 --    34 O    1.808    32 C    1.049    56 H    0.942
    34   8 O    2.004 --    33 C    1.808
    35   6 C    3.988 --    36 C    1.471    32 C    1.370    57 H    0.968
                            30 C    0.100
    36   6 C    3.988 --    35 C    1.471    29 C    1.381    58 H    0.972
    37   6 C    3.913 --    28 C    1.317    41 N    1.240    38 C    1.171
    38   6 C    3.958 --    39 C    1.657    37 C    1.171    59 H    0.973
    39   6 C    3.955 --    38 C    1.657    40 C    1.170    60 H    0.975
    40   6 C    3.916 --     2 C    1.362    41 N    1.228    39 C    1.170
    41   7 N    3.244 --    37 C    1.240    40 C    1.228     1 Cu   0.505
    42   1 H    1.001 --     2 C    0.971
    43   1 H    0.997 --     4 C    0.975
    44   1 H    1.004 --     5 C    0.973
    45   1 H    1.004 --    10 C    0.972
    46   1 H    1.005 --    11 C    0.968
    47   1 H    1.010 --    13 C    0.942
    48   1 H    1.000 --    15 C    0.971
    49   1 H    1.004 --    16 C    0.972
    50   1 H    1.004 --    18 C    0.973
    51   1 H    1.002 --    19 C    0.974
    52   1 H    1.002 --    24 C    0.974
    53   1 H    1.004 --    25 C    0.973
    54   1 H    1.004 --    30 C    0.972
    55   1 H    1.000 --    31 C    0.971
    56   1 H    1.010 --    33 C    0.942
    57   1 H    1.005 --    35 C    0.968
    58   1 H    1.004 --    36 C    0.972
    59   1 H    1.004 --    38 C    0.973
    60   1 H    0.997 --    39 C    0.975
    61  29 Cu   2.187 --   101 N    0.505    67 N    0.505    87 N    0.503
                            80 N    0.503
    62   6 C    3.930 --   100 C    1.362    63 C    1.362   102 H    0.971
    63   6 C    3.916 --    62 C    1.362    67 N    1.228    64 C    1.170
    64   6 C    3.955 --    65 C    1.656    63 C    1.170   103 H    0.975
    65   6 C    3.958 --    64 C    1.656    66 C    1.171   104 H    0.973
    66   6 C    3.913 --    68 C    1.317    67 N    1.240    65 C    1.171
    67   7 N    3.244 --    66 C    1.240    63 C    1.228    61 Cu   0.505
    68   6 C    3.933 --    77 C    1.325    66 C    1.317    69 C    1.031
    69   6 C    3.986 --    76 C    1.383    70 C    1.381    68 C    1.031
    70   6 C    3.987 --    71 C    1.471    69 C    1.381   105 H    0.972
    71   6 C    3.988 --    70 C    1.471    72 C    1.370   106 H    0.968
                            76 C    0.100
    72   6 C    3.983 --    75 C    1.378    71 C    1.370    73 C    1.050
    73   6 C    3.864 --    74 O    1.807    72 C    1.050   107 H    0.942
    74   8 O    2.003 --    73 C    1.807
    75   6 C    3.993 --    76 C    1.466    72 C    1.378   108 H    0.971
    76   6 C    3.987 --    75 C    1.466    69 C    1.383   109 H    0.972
                            71 C    0.100
    77   6 C    3.907 --    68 C    1.325    80 N    1.223    78 C    1.178
    78   6 C    3.954 --    79 C    1.643    77 C    1.178   110 H    0.973
    79   6 C    3.956 --    78 C    1.643    81 C    1.186   111 H    0.974
    80   7 N    3.248 --    81 C    1.256    77 C    1.223    61 Cu   0.503
    81   6 C    3.895 --    82 C    1.260    80 N    1.256    79 C    1.186
    82   6 C    3.940 --    83 C    1.260    81 C    1.260   132 C    1.187
    83   6 C    3.895 --    82 C    1.260    87 N    1.256    84 C    1.186
    84   6 C    3.956 --    85 C    1.644    83 C    1.186   112 H    0.974
    85   6 C    3.954 --    84 C    1.644    86 C    1.178   113 H    0.973
    86   6 C    3.907 --    88 C    1.325    87 N    1.223    85 C    1.178
    87   7 N    3.248 --    83 C    1.256    86 C    1.223    61 Cu   0.503
    88   6 C    3.933 --    86 C    1.325    97 C    1.317    89 C    1.030
    89   6 C    3.986 --    90 C    1.384    96 C    1.381    88 C    1.030
    90   6 C    3.988 --    91 C    1.465    89 C    1.384   114 H    0.972
                            95 C    0.100
    91   6 C    3.993 --    90 C    1.465    92 C    1.378   115 H    0.971
    92   6 C    3.984 --    91 C    1.378    95 C    1.370    93 C    1.049
    93   6 C    3.864 --    94 O    1.808    92 C    1.049   116 H    0.942
    94   8 O    2.004 --    93 C    1.808
    95   6 C    3.988 --    96 C    1.471    92 C    1.370   117 H    0.968
                            90 C    0.100
    96   6 C    3.987 --    95 C    1.471    89 C    1.381   118 H    0.972
    97   6 C    3.913 --    88 C    1.317   101 N    1.240    98 C    1.171
    98   6 C    3.958 --    99 C    1.657    97 C    1.171   119 H    0.973
    99   6 C    3.955 --    98 C    1.657   100 C    1.170   120 H    0.975
   100   6 C    3.916 --    62 C    1.362   101 N    1.228    99 C    1.170
   101   7 N    3.244 --    97 C    1.240   100 C    1.228    61 Cu   0.505
   102   1 H    1.001 --    62 C    0.971
   103   1 H    0.997 --    64 C    0.975
   104   1 H    1.004 --    65 C    0.973
   105   1 H    1.004 --    70 C    0.972
   106   1 H    1.005 --    71 C    0.968
   107   1 H    1.010 --    73 C    0.942
   108   1 H    1.000 --    75 C    0.971
   109   1 H    1.004 --    76 C    0.972
   110   1 H    1.004 --    78 C    0.973
   111   1 H    1.002 --    79 C    0.974
   112   1 H    1.001 --    84 C    0.974
   113   1 H    1.004 --    85 C    0.973
   114   1 H    1.004 --    90 C    0.972
   115   1 H    1.000 --    91 C    0.971
   116   1 H    1.010 --    93 C    0.942
   117   1 H    1.005 --    95 C    0.968
   118   1 H    1.004 --    96 C    0.972
   119   1 H    1.004 --    98 C    0.973
   120   1 H    0.997 --    99 C    0.975
   121   6 C    3.927 --   122 C    2.371   125 C    1.334   124 C    0.191
   122   6 C    3.926 --   121 C    2.371   123 C    1.333   126 C    0.190
   123   6 C    3.936 --   124 C    2.453   122 C    1.333
   124   6 C    3.891 --   123 C    2.453    22 C    1.188   121 C    0.191
   125   6 C    3.933 --   126 C    2.450   121 C    1.334
   126   6 C    3.891 --   125 C    2.450   134 C    1.191   122 C    0.190
   127   6 C    3.925 --   128 C    2.371   131 C    1.333   130 C    0.190
   128   6 C    3.927 --   127 C    2.371   129 C    1.333   132 C    0.191
   129   6 C    3.933 --   130 C    2.451   128 C    1.333
   130   6 C    3.891 --   129 C    2.451   154 C    1.190   127 C    0.190
   131   6 C    3.936 --   132 C    2.453   127 C    1.333
   132   6 C    3.891 --   131 C    2.453    82 C    1.187   128 C    0.191
   133  29 Cu   2.159 --   152 N    0.498   173 N    0.497   139 N    0.497
                           159 N    0.497
   134   6 C    3.929 --   172 C    1.257   135 C    1.257   126 C    1.191
   135   6 C    3.896 --   139 N    1.259   134 C    1.257   136 C    1.187
   136   6 C    3.955 --   137 C    1.641   135 C    1.187   174 H    0.974
   137   6 C    3.955 --   136 C    1.641   138 C    1.180   175 H    0.973
   138   6 C    3.905 --   140 C    1.321   139 N    1.224   137 C    1.180
   139   7 N    3.241 --   135 C    1.259   138 C    1.224   133 Cu   0.497
   140   6 C    3.929 --   149 C    1.321   138 C    1.321   141 C    1.032
   141   6 C    3.986 --   148 C    1.383   142 C    1.381   140 C    1.032
   142   6 C    3.987 --   143 C    1.471   141 C    1.381   176 H    0.972
   143   6 C    3.988 --   142 C    1.471   144 C    1.370   177 H    0.968
                           148 C    0.100
   144   6 C    3.983 --   147 C    1.378   143 C    1.370   145 C    1.049
   145   6 C    3.864 --   146 O    1.808   144 C    1.049   178 H    0.942
   146   8 O    2.004 --   145 C    1.808
   147   6 C    3.993 --   148 C    1.465   144 C    1.378   179 H    0.971
   148   6 C    3.987 --   147 C    1.465   141 C    1.383   180 H    0.972
                           143 C    0.100
   149   6 C    3.905 --   140 C    1.321   152 N    1.224   150 C    1.180
   150   6 C    3.955 --   151 C    1.642   149 C    1.180   181 H    0.973
   151   6 C    3.955 --   150 C    1.642   153 C    1.187   182 H    0.974
   152   7 N    3.241 --   153 C    1.258   149 C    1.224   133 Cu   0.498
   153   6 C    3.896 --   152 N    1.258   154 C    1.257   151 C    1.187
   154   6 C    3.929 --   153 C    1.257   155 C    1.257   130 C    1.190
   155   6 C    3.896 --   159 N    1.259   154 C    1.257   156 C    1.187
   156   6 C    3.955 --   157 C    1.641   155 C    1.187   183 H    0.974
   157   6 C    3.955 --   156 C    1.641   158 C    1.180   184 H    0.973
   158   6 C    3.905 --   160 C    1.321   159 N    1.224   157 C    1.180
   159   7 N    3.241 --   155 C    1.259   158 C    1.224   133 Cu   0.497
   160   6 C    3.929 --   169 C    1.321   158 C    1.321   161 C    1.031
   161   6 C    3.986 --   162 C    1.383   168 C    1.381   160 C    1.031
   162   6 C    3.987 --   163 C    1.465   161 C    1.383   185 H    0.972
                           167 C    0.100
   163   6 C    3.993 --   162 C    1.465   164 C    1.378   186 H    0.971
   164   6 C    3.983 --   163 C    1.378   167 C    1.370   165 C    1.049
   165   6 C    3.864 --   166 O    1.808   164 C    1.049   187 H    0.942
   166   8 O    2.003 --   165 C    1.808
   167   6 C    3.988 --   168 C    1.471   164 C    1.370   188 H    0.968
                           162 C    0.100
   168   6 C    3.987 --   167 C    1.471   161 C    1.381   189 H    0.972
   169   6 C    3.905 --   160 C    1.321   173 N    1.224   170 C    1.180
   170   6 C    3.955 --   171 C    1.642   169 C    1.180   190 H    0.973
   171   6 C    3.955 --   170 C    1.642   172 C    1.187   191 H    0.974
   172   6 C    3.896 --   173 N    1.259   134 C    1.257   171 C    1.187
   173   7 N    3.241 --   172 C    1.259   169 C    1.224   133 Cu   0.497
   174   1 H    1.002 --   136 C    0.974
   175   1 H    1.004 --   137 C    0.973
   176   1 H    1.004 --   142 C    0.972
   177   1 H    1.005 --   143 C    0.968
   178   1 H    1.010 --   145 C    0.942
   179   1 H    1.000 --   147 C    0.971
   180   1 H    1.004 --   148 C    0.972
   181   1 H    1.004 --   150 C    0.973
   182   1 H    1.001 --   151 C    0.974
   183   1 H    1.002 --   156 C    0.974
   184   1 H    1.004 --   157 C    0.973
   185   1 H    1.004 --   162 C    0.972
   186   1 H    1.000 --   163 C    0.971
   187   1 H    1.010 --   165 C    0.942
   188   1 H    1.005 --   167 C    0.968
   189   1 H    1.004 --   168 C    0.972
   190   1 H    1.004 --   170 C    0.973
   191   1 H    1.001 --   171 C    0.974
 ---------------------------------------------------------------------------

           -------------------------------------------------
          | TOTAL ENERGY             -350.776967961109 Eh   |
          | GRADIENT NORM               0.000822060785 Eh/α |
          | HOMO-LUMO GAP               0.000036148685 eV   |
           -------------------------------------------------

 * finished run on 2022/07/30 at 06:25:14.546
