   * xtb version 6.5.1 (b24c23e) compiled by 'conda@728c89f4b128' on 2022-07-12
          program call               : xtb PhCHO_C2_3.xyz --gfn 1 --opt -T 48

   ID    Z sym.   atoms
    1    6 C      1-5, 7-12, 14-18, 20-25, 27-32, 34-39, 62-66, 68-73, 75-79,
                  81-86, 88-93, 95-100, 123-131, 133-138, 140-144, 146-151,
                  153-158, 160-165
    2    7 N      6, 19, 26, 40, 67, 80, 87, 101, 132, 145, 152, 166
    3    8 O      13, 33, 74, 94, 139, 159
    4    1 H      41-61, 102-122, 167-186
########################################################################
[WARNING] Please study the warnings concerning your input carefully
-1- prog_main_parseArguments: Unknown option '-T' provided
########################################################################

          :  Hamiltonian                  GFN1-xTB          :
 * total energy  :  -322.8330320 Eh     change       -0.2589218E-09 Eh
 * total energy  :  -323.3427505 Eh     change       -0.5097185E+00 Eh
 * total energy  :  -323.4991688 Eh     change       -0.1564183E+00 Eh
 * total energy  :  -323.5763303 Eh     change       -0.7716146E-01 Eh
 * total energy  :  -323.6031465 Eh     change       -0.2681628E-01 Eh
 * total energy  :  -323.6214886 Eh     change       -0.1834205E-01 Eh
 * total energy  :  -323.6343507 Eh     change       -0.1286213E-01 Eh
 * total energy  :  -323.6438202 Eh     change       -0.9469440E-02 Eh
 * total energy  :  -323.6505030 Eh     change       -0.6682786E-02 Eh
 * total energy  :  -323.6550457 Eh     change       -0.4542718E-02 Eh
 * total energy  :  -323.6763756 Eh     change       -0.7525033E-05 Eh
 * total energy  :  -323.6763830 Eh     change       -0.7440773E-05 Eh
 * total energy  :  -323.6763897 Eh     change       -0.6675544E-05 Eh
 * total energy  :  -323.6763970 Eh     change       -0.7362149E-05 Eh
 * total energy  :  -323.6764041 Eh     change       -0.7013002E-05 Eh
 * total energy  :  -323.6764109 Eh     change       -0.6843019E-05 Eh
 * total energy  :  -323.6764175 Eh     change       -0.6639233E-05 Eh
 * total energy  :  -323.6764239 Eh     change       -0.6382861E-05 Eh
 * total energy  :  -323.6764265 Eh     change       -0.2576905E-05 Eh
   *** GEOMETRY OPTIMIZATION CONVERGED AFTER 122 ITERATIONS ***

 final structure:
================
186
 xtb: 6.5.1 (b24c23e)
C           31.69501621472465       -0.06662549156828       -0.02530177490701
C           32.29883954969820       -1.29215175472094       -0.27448763745592
C           31.64199605173476       -2.52229127427890       -0.56002488379303
C           32.59943785373132       -3.48256385562746       -0.72602547096435
C           33.87241779470789       -2.87276351409651       -0.53306998678348
N           33.64037610845172       -1.55134692654962       -0.27744743924931
C           35.13336788457944       -3.47613970524568       -0.59812744192172
C           35.16578161932055       -4.93197436902322       -0.86891575635122
C           35.82551590570788       -5.42196222529202       -2.00075000113180
C           35.85391139610141       -6.77830046013665       -2.26011387964671
C           35.22827436920554       -7.67832492634140       -1.39086897414162
C           35.27653760425282       -9.12161430478579       -1.68739826513698
O           35.82740606973259       -9.58851880182565       -2.65132100846163
C           34.57138618149150       -7.19090043793882       -0.25844995319834
C           34.53814850533559       -5.83158038951876       -0.00253422065384
C           36.35058658946850       -2.80859887516210       -0.43090069282281
C           37.64308497176083       -3.47077178631126       -0.41569039031544
C           38.56606969206274       -2.50246055545536       -0.24275177082149
N           36.50834953722571       -1.47074578136786       -0.24587627369122
C           37.83674677742385       -1.25231068697882       -0.14688161355951
C           38.47560346380579       -0.00501414681472       -0.02092985661113
C           37.84746914121346        1.24710622105983        0.09870107141702
C           38.49663259004748        2.50618248218844        0.20312356483228
C           37.53510070721125        3.46560834502100        0.35959677482573
C           36.26785401426328        2.81900386589570        0.36611639752640
N           36.50749094145152        1.48294723411784        0.18846719776995
C           35.00854711647310        3.41323509230502        0.50897484838750
C           34.98351422552575        4.87377566905610        0.74962758563252
C           35.62642123769884        5.41769947368319        1.86654979884094
C           35.59885444502336        6.77982884436127        2.09402044420225
C           34.93248185597368        7.63223450739732        1.20727996012487
C           34.92049582447962        9.08255255950179        1.47086353369471
O           35.46340838918525        9.59513056683312        2.41603775412435
C           34.29209566625220        7.09108976650470        0.08976693681307
C           34.31585129575731        5.72626911802928       -0.13473173632122
C           33.78992260896174        2.72799832038222        0.44827013431196
C           32.48974314555419        3.34570493278383        0.66100139067116
C           31.57344843852690        2.36897714509151        0.50803543848944
C           32.31288301737161        1.15338219537733        0.21554314839441
N           33.64496067873412        1.40496702082655        0.20099391300120
H           30.60970857451174       -0.07200271438973       -0.02180387499128
H           30.57289809509588       -2.64155414817637       -0.63398640765509
H           32.44370886009977       -4.52111267260729       -0.96898819590233
H           34.36882816814300       -0.86392582204189       -0.11600773888312
H           36.30057436097424       -4.72589656291010       -2.68275030312428
H           36.35841194964734       -7.16516301807135       -3.13899952923535
H           34.75518517021165       -9.75817927754461       -0.94099169606722
H           34.08767247376975       -7.88242834333693        0.42379285276888
H           34.04076033110060       -5.45885637946590        0.88589776365201
H           37.80021150720153       -4.53307735763653       -0.50896314651411
H           39.63803916076895       -2.59989395956254       -0.18052206514375
H           39.56423051850719        2.65048857170243        0.16115422700907
H           37.68719923037472        4.52839572219672        0.45379808095310
H           35.78223863147468        0.77503631723398        0.13765944573197
H           36.13022779922773        4.75893940252863        2.56495960715979
H           36.08915356030323        7.20779996893549        2.96184296329411
H           34.36351204752702        9.67861732283090        0.71685289895521
H           33.77645730679357        7.74547005139610       -0.60557482577266
H           33.83047289999662        5.31143297474741       -1.01091389320992
H           32.32594602264925        4.38233825189633        0.90760087304746
H           30.49962601031298        2.43150828332645        0.58871396706663
C           60.17203978480747        0.03833070677027        0.08190973486780
C           59.56800305285863        1.23293310498598        0.45155862194819
C           60.22626523225326        2.44114620861762        0.81651076408638
C           59.26890250864354        3.37055238365875        1.10956645894266
C           57.99411859367172        2.75719475119175        0.94142861810715
N           58.22570212983278        1.47333071038315        0.53749399652036
C           56.73341539323008        3.34029437022937        1.11141065500106
C           56.70782554462512        4.74594934991008        1.57922455900479
C           56.12437152942538        5.74607543717548        0.79532594990629
C           56.10130646402203        7.05468457059960        1.23755869026997
C           56.65625814200445        7.39355254616088        2.47615571914003
C           56.61395575374257        8.79593344926296        2.92882908725960
O           56.12671527969367        9.69178132654841        2.28807625186843
C           57.23910602787011        6.39534488476883        3.26055825522117
C           57.26724082975533        5.08616118638652        2.81433046952788
C           55.51439896254463        2.69528077102482        0.88294269860568
C           54.21654779574651        3.30560439418662        1.11246621808574
C           53.29491145836902        2.37113711951902        0.80209338794190
N           55.35951302083161        1.41265721927984        0.45829853975600
C           54.02999618050593        1.18811790338754        0.39599867851361
C           53.39454092431821       -0.01170013589349        0.02849248175181
C           54.02080816213559       -1.21572355760761       -0.33555679701429
C           53.36814955000214       -2.40763335805546       -0.75046918465059
C           54.32878083774654       -3.33144634106616       -1.05441015360031
C           55.59971683680074       -2.73520054754363       -0.82208209783440
N           55.36163620014455       -1.45724863121495       -0.39225769251246
C           56.86052805935926       -3.30706198397589       -1.02577466101260
C           56.89016960966084       -4.70510009570255       -1.51315404311760
C           56.31074392226584       -5.73499183372768       -0.76537292179603
C           56.33853271764192       -7.03572940842014       -1.23006377902721
C           56.94132379750287       -7.33720184139024       -2.45587368624094
C           56.95161799682007       -8.73189781180564       -2.93313638956036
O           56.46216090348441       -9.65032414729649       -2.32677771009056
C           57.52072056498709       -6.30945137773818       -3.20404524738160
C           57.49722552703513       -5.00816589441973       -2.73567282608629
C           58.07934904750834       -2.65436957932075       -0.80900994120095
C           59.38247775279758       -3.28492021122217       -0.95575621329095
C           60.29797346124138       -2.34705842437752       -0.64085749461248
C           59.55564046256608       -1.14722097549589       -0.29533084050392
N           58.22269597942375       -1.37201947117939       -0.40022938965059
H           61.25733354193660        0.04076901373318        0.09206727471162
H           61.29643425214650        2.57077607136863        0.84100456239964
H           59.42544597038005        4.39504877018834        1.40589800715063
H           57.49640496660994        0.80043003848221        0.32617998396477
H           55.70461307920934        5.48904212841573       -0.17057224865809
H           55.65507641481008        7.83714089870835        0.63319891350893
H           57.07475955030885        8.96718778460368        3.92513110972673
H           57.66866281544238        6.64853784539401        4.22442363981797
H           57.70709293912425        4.31144154510862        3.43241840701635
H           54.05380161698289        4.30713895937392        1.47607127430298
H           52.22026617853599        2.44636030884953        0.84733886424454
H           52.29892479705190       -2.52916477312690       -0.81639529614712
H           54.17330998998227       -4.33368436763212       -1.41881776931917
H           56.08932095433016       -0.78592985512987       -0.16960742692276
H           55.85597117589325       -5.50825058988409        0.19236557144142
H           55.89630910880321       -7.84085014123044       -0.65310955208113
H           57.45457146333690       -8.87452509437472       -3.91337172977764
H           57.98768321552957       -6.53367720421599       -4.15760506827445
H           57.93464468104291       -4.21048981945732       -3.32542944635538
H           59.54837972597000       -4.31051540567214       -1.24371279315721
H           61.37330942005408       -2.43054481350972       -0.62675313364894
C           39.88745574777323        0.00523342967332       -0.01542392880977
C           41.10329668746297        0.01147584395644       -0.00763912944268
C           50.76584058389417       -0.02801832139891        0.01257669662316
C           51.98129410058835       -0.02104600317090        0.02002002014683
C           42.51473016572118        0.00998157091489       -0.00167203600212
C           43.14061119720605        1.03715788885495       -0.72946680414993
C           42.49234868950819        2.03208726659626       -1.50753732430690
C           43.45649578409884        2.82600298438038       -2.06497565999232
C           44.72335450209857        2.34607795342126       -1.63251224758879
N           44.48160420316434        1.26018737908541       -0.83496053679046
C           45.98505562545304        2.85566516531459       -1.96207679467644
C           46.01142239321720        4.04608346833083       -2.84402224238363
C           46.64671534679563        3.98023635445899       -4.08840116014687
C           46.66454688851806        5.08094498976064       -4.92253820984645
C           46.05369746242650        6.27646273643827       -4.52951802300516
C           46.08550389899443        7.43669944142475       -5.43890809260553
O           46.60402650295008        7.42019575727395       -6.52576776580121
C           45.42458802273276        6.34589636552530       -3.28424380881266
C           45.40087724525111        5.24062145589820       -2.45205384071488
C           47.20680111127147        2.32605412560762       -1.53876515499352
C           48.49463746451180        2.93424567420729       -1.82459285683526
C           49.42630870757483        2.13774995689600       -1.26193777824377
N           47.37544038289134        1.19751487497429       -0.79979334877693
C           48.70689188075804        1.04717868752042       -0.63236640291443
C           49.35331319465898       -0.02481610404317        0.00763908214909
C           48.72690725904594       -1.10635105486127        0.65058869823244
C           49.37443018269573       -2.19782317473291        1.28711506267880
C           48.41051434954963       -2.99417091159525        1.84146760186185
C           47.14503263738736       -2.40695096402932        1.56547701791155
N           47.38610649063299       -1.27894017722822        0.82941328924961
C           45.88557995679073       -2.88253664345058        1.95117591154900
C           45.87134178680747       -4.08745591687991        2.81355857802336
C           45.23049707230649       -5.25625726802547        2.39318461510633
C           45.21608493209314       -6.37790236947805        3.20314976367509
C           45.83852186427073       -6.35174114892166        4.45349386525020
C           45.83340964349507       -7.53106647812792        5.33848816026821
O           46.35472078239720       -7.55439422369975        6.42393779762653
C           46.47917839724739       -5.18196558849913        4.87523541377194
C           46.49827631007793       -4.06440900869770        4.06363225231456
C           44.66208356850164       -2.30659339561304        1.60118740540199
C           43.37394246531963       -2.79279980319269        2.06363363306167
C           42.44176581250515       -1.99113580556050        1.50903894802246
C           43.16155135252219       -1.00854615357898        0.72200407332783
N           44.49236831971951       -1.21647515324675        0.80540403196286
H           41.42448003157713        2.11536490776786       -1.62993143085934
H           43.30514081672020        3.66330372579694       -2.72639429048371
H           45.20400853059590        0.69482320382366       -0.40160680153526
H           47.11019281194235        3.05123373898564       -4.40061817707666
H           47.14858983594909        5.03507774724375       -5.89219230320056
H           45.58447721499915        8.34380733515223       -5.03879001470418
H           44.95337933846891        7.27119708109374       -2.96901625294903
H           44.92348703279437        5.30295723719119       -1.48055986593366
H           48.64235458653872        3.85379558513834       -2.36720125186592
H           50.49807371800617        2.25534340315425       -1.25770451861658
H           50.44185244492714       -2.34711603238452        1.31207744667020
H           48.56004575384139       -3.91204871843591        2.38610362255560
H           46.66498174607167       -0.65845526023029        0.47689229873810
H           44.75756394276126       -5.28401611117586        1.41806113973672
H           44.72055082009904       -7.28265589722656        2.86642126558932
H           45.30207625707839       -8.41265467407338        4.92093490108843
H           46.95654468253540       -5.16904448099539        5.84920711806194
H           46.98303699809460       -3.15479937167681        4.40008182003911
H           43.22464760741307       -3.62435684781274        2.73297076047858
H           41.36997984105228       -2.03064504135431        1.61940298374320

          :  Hamiltonian                  GFN1-xTB          :
         :: total energy            -323.676426501418 Eh    ::
         :: gradient norm              0.000339676555 Eh/a0 ::
         :: HOMO-LUMO gap              0.942878669108 eV    ::
         :: SCC energy              -328.731097397276 Eh    ::
         :: repulsion energy           5.217613582997 Eh    ::

    * Orbital Energies and Occupations

         #    Occupation            Energy/Eh            Energy/eV
      -------------------------------------------------------------
         1        2.0000           -0.8190132             -22.2865
       ...           ...                  ...                  ...
       279        2.0000           -0.4326710             -11.7736
       280        2.0000           -0.4317797             -11.7493
       281        2.0000           -0.4313814             -11.7385
       282        2.0000           -0.4299466             -11.6994
       283        2.0000           -0.4292844             -11.6814
       284        2.0000           -0.4291677             -11.6782
       285        2.0000           -0.4286275             -11.6635
       286        2.0000           -0.4137614             -11.2590
       287        2.0000           -0.4132571             -11.2453
       288        2.0000           -0.4122663             -11.2183
       289        2.0000           -0.4047308             -11.0133
       290        2.0000           -0.3986682             -10.8483
       291        2.0000           -0.3915601             -10.6549 (HOMO)
       292                         -0.3569100              -9.7120 (LUMO)
       293                         -0.3492561              -9.5037
       294                         -0.3483877              -9.4801
       295                         -0.3479204              -9.4674
       296                         -0.3462845              -9.4229
       297                         -0.3397656              -9.2455
       298                         -0.3301777              -8.9846
       299                         -0.3291632              -8.9570
       300                         -0.3285024              -8.9390
       301                         -0.3247054              -8.8357
       302                         -0.3243506              -8.8260
       ...                                ...                  ...
       620                          1.3268121              36.1044
      -------------------------------------------------------------
                  HL-Gap            0.0346502 Eh            0.9429 eV

Wiberg/Mayer (AO) data.
largest (>0.10) Wiberg bond orders for each atom

     #   Z sym  total        # sym  WBO       # sym  WBO       # sym  WBO
 ---------------------------------------------------------------------------
     1   6 C    3.928 --    39 C    1.367     2 C    1.347    41 H    0.970
     2   6 C    3.901 --     1 C    1.347     3 C    1.228     6 N    1.169
     3   6 C    3.954 --     4 C    1.597     2 C    1.228    42 H    0.976
     4   6 C    3.959 --     3 C    1.597     5 C    1.232    43 H    0.974
     5   6 C    3.897 --     7 C    1.303     4 C    1.232     6 N    1.178
     6   7 N    3.471 --     5 C    1.178     2 C    1.169    44 H    0.873
     7   6 C    3.937 --    16 C    1.328     5 C    1.303     8 C    1.036
     8   6 C    3.986 --    15 C    1.383     9 C    1.379     7 C    1.036
     9   6 C    3.987 --    10 C    1.472     8 C    1.379    45 H    0.971
    10   6 C    3.988 --     9 C    1.472    11 C    1.369    46 H    0.968
    11   6 C    3.982 --    14 C    1.378    10 C    1.369    12 C    1.049
    12   6 C    3.864 --    13 O    1.808    11 C    1.049    47 H    0.942
    13   8 O    2.003 --    12 C    1.808
    14   6 C    3.993 --    15 C    1.465    11 C    1.378    48 H    0.971
    15   6 C    3.986 --    14 C    1.465     8 C    1.383    49 H    0.972
    16   6 C    3.915 --     7 C    1.328    19 N    1.294    17 C    1.124
    17   6 C    3.966 --    18 C    1.712    16 C    1.124    50 H    0.973
    18   6 C    3.965 --    17 C    1.712    20 C    1.126    51 H    0.973
    19   7 N    3.022 --    20 C    1.335    16 C    1.294
    20   6 C    3.915 --    19 N    1.335    21 C    1.268    18 C    1.126
    21   6 C    3.937 --    20 C    1.268    22 C    1.261   123 C    1.166
    22   6 C    3.891 --    21 C    1.261    23 C    1.247    26 N    1.186
    23   6 C    3.959 --    24 C    1.584    22 C    1.247    52 H    0.974
    24   6 C    3.955 --    23 C    1.584    25 C    1.240    53 H    0.974
    25   6 C    3.898 --    27 C    1.305    24 C    1.240    26 N    1.169
    26   7 N    3.475 --    22 C    1.186    25 C    1.169    54 H    0.872
    27   6 C    3.925 --    36 C    1.319    25 C    1.305    28 C    1.038
    28   6 C    3.986 --    35 C    1.381    29 C    1.378    27 C    1.038
    29   6 C    3.985 --    30 C    1.472    28 C    1.378    55 H    0.972
    30   6 C    3.988 --    29 C    1.472    31 C    1.369    56 H    0.968
    31   6 C    3.982 --    34 C    1.378    30 C    1.369    32 C    1.049
    32   6 C    3.864 --    33 O    1.807    31 C    1.049    57 H    0.942
    33   8 O    2.003 --    32 C    1.807
    34   6 C    3.993 --    35 C    1.466    31 C    1.378    58 H    0.971
    35   6 C    3.986 --    34 C    1.466    28 C    1.381    59 H    0.971
    36   6 C    3.928 --    27 C    1.319    40 N    1.318    37 C    1.116
    37   6 C    3.967 --    38 C    1.724    36 C    1.116    60 H    0.973
    38   6 C    3.966 --    37 C    1.724    39 C    1.116    61 H    0.975
    39   6 C    3.927 --     1 C    1.367    40 N    1.299    38 C    1.116
    40   7 N    3.013 --    36 C    1.318    39 C    1.299
    41   1 H    1.002 --     1 C    0.970
    42   1 H    0.997 --     3 C    0.976
    43   1 H    1.004 --     4 C    0.974
    44   1 H    0.986 --     6 N    0.873
    45   1 H    1.004 --     9 C    0.971
    46   1 H    1.005 --    10 C    0.968
    47   1 H    1.010 --    12 C    0.942
    48   1 H    1.000 --    14 C    0.971
    49   1 H    1.004 --    15 C    0.972
    50   1 H    1.004 --    17 C    0.973
    51   1 H    1.004 --    18 C    0.973
    52   1 H    1.003 --    23 C    0.974
    53   1 H    1.004 --    24 C    0.974
    54   1 H    0.987 --    26 N    0.872
    55   1 H    1.004 --    29 C    0.972
    56   1 H    1.005 --    30 C    0.968
    57   1 H    1.010 --    32 C    0.942
    58   1 H    1.000 --    34 C    0.971
    59   1 H    1.004 --    35 C    0.971
    60   1 H    1.004 --    37 C    0.973
    61   1 H    0.998 --    38 C    0.975
    62   6 C    3.929 --   100 C    1.367    63 C    1.347   102 H    0.970
    63   6 C    3.901 --    62 C    1.347    64 C    1.228    67 N    1.169
    64   6 C    3.954 --    65 C    1.598    63 C    1.228   103 H    0.976
    65   6 C    3.959 --    64 C    1.598    66 C    1.232   104 H    0.974
    66   6 C    3.897 --    68 C    1.303    65 C    1.232    67 N    1.179
    67   7 N    3.471 --    66 C    1.179    63 C    1.169   105 H    0.873
    68   6 C    3.937 --    77 C    1.329    66 C    1.303    69 C    1.034
    69   6 C    3.986 --    76 C    1.383    70 C    1.380    68 C    1.034
    70   6 C    3.987 --    71 C    1.471    69 C    1.380   106 H    0.972
    71   6 C    3.988 --    70 C    1.471    72 C    1.370   107 H    0.968
                            76 C    0.100
    72   6 C    3.983 --    75 C    1.378    71 C    1.370    73 C    1.049
    73   6 C    3.864 --    74 O    1.808    72 C    1.049   108 H    0.942
    74   8 O    2.004 --    73 C    1.808
    75   6 C    3.993 --    76 C    1.466    72 C    1.378   109 H    0.971
    76   6 C    3.987 --    75 C    1.466    69 C    1.383   110 H    0.972
                            71 C    0.100
    77   6 C    3.916 --    68 C    1.329    80 N    1.293    78 C    1.123
    78   6 C    3.967 --    79 C    1.713    77 C    1.123   111 H    0.973
    79   6 C    3.965 --    78 C    1.713    81 C    1.126   112 H    0.973
    80   7 N    3.022 --    81 C    1.335    77 C    1.293
    81   6 C    3.916 --    80 N    1.335    82 C    1.269    79 C    1.126
    82   6 C    3.937 --    81 C    1.269    83 C    1.264   126 C    1.160
    83   6 C    3.892 --    82 C    1.264    84 C    1.245    87 N    1.185
    84   6 C    3.959 --    85 C    1.586    83 C    1.245   113 H    0.974
    85   6 C    3.956 --    84 C    1.586    86 C    1.239   114 H    0.974
    86   6 C    3.898 --    88 C    1.307    85 C    1.239    87 N    1.169
    87   7 N    3.475 --    83 C    1.185    86 C    1.169   115 H    0.872
    88   6 C    3.926 --    97 C    1.318    86 C    1.307    89 C    1.036
    89   6 C    3.986 --    96 C    1.381    90 C    1.380    88 C    1.036
    90   6 C    3.986 --    91 C    1.471    89 C    1.380   116 H    0.972
    91   6 C    3.988 --    90 C    1.471    92 C    1.370   117 H    0.968
                            96 C    0.100
    92   6 C    3.982 --    95 C    1.377    91 C    1.370    93 C    1.049
    93   6 C    3.864 --    94 O    1.808    92 C    1.049   118 H    0.942
    94   8 O    2.003 --    93 C    1.808
    95   6 C    3.993 --    96 C    1.467    92 C    1.377   119 H    0.971
    96   6 C    3.987 --    95 C    1.467    89 C    1.381   120 H    0.972
                            91 C    0.100
    97   6 C    3.928 --   101 N    1.319    88 C    1.318    98 C    1.116
    98   6 C    3.967 --    99 C    1.724    97 C    1.116   121 H    0.973
    99   6 C    3.966 --    98 C    1.724   100 C    1.115   122 H    0.975
   100   6 C    3.927 --    62 C    1.367   101 N    1.299    99 C    1.115
   101   7 N    3.015 --    97 C    1.319   100 C    1.299
   102   1 H    1.002 --    62 C    0.970
   103   1 H    0.997 --    64 C    0.976
   104   1 H    1.004 --    65 C    0.974
   105   1 H    0.986 --    67 N    0.873
   106   1 H    1.004 --    70 C    0.972
   107   1 H    1.005 --    71 C    0.968
   108   1 H    1.010 --    73 C    0.942
   109   1 H    1.000 --    75 C    0.971
   110   1 H    1.004 --    76 C    0.972
   111   1 H    1.004 --    78 C    0.973
   112   1 H    1.003 --    79 C    0.973
   113   1 H    1.003 --    84 C    0.974
   114   1 H    1.004 --    85 C    0.974
   115   1 H    0.987 --    87 N    0.872
   116   1 H    1.004 --    90 C    0.972
   117   1 H    1.005 --    91 C    0.968
   118   1 H    1.010 --    93 C    0.942
   119   1 H    1.000 --    95 C    0.971
   120   1 H    1.004 --    96 C    0.972
   121   1 H    1.004 --    98 C    0.973
   122   1 H    0.998 --    99 C    0.975
   123   6 C    3.928 --   124 C    2.583    21 C    1.166
   124   6 C    3.931 --   123 C    2.583   127 C    1.167
   125   6 C    3.930 --   126 C    2.587   147 C    1.162
   126   6 C    3.927 --   125 C    2.587    82 C    1.160
   127   6 C    3.928 --   165 C    1.266   128 C    1.259   124 C    1.167
   128   6 C    3.892 --   127 C    1.259   129 C    1.249   132 N    1.186
   129   6 C    3.957 --   130 C    1.580   128 C    1.249   167 H    0.974
   130   6 C    3.956 --   129 C    1.580   131 C    1.243   168 H    0.974
   131   6 C    3.895 --   133 C    1.300   130 C    1.243   132 N    1.169
   132   7 N    3.472 --   128 C    1.186   131 C    1.169   169 H    0.873
   133   6 C    3.927 --   142 C    1.330   131 C    1.300   134 C    1.035
   134   6 C    3.986 --   141 C    1.383   135 C    1.379   133 C    1.035
   135   6 C    3.987 --   136 C    1.472   134 C    1.379   170 H    0.972
   136   6 C    3.988 --   135 C    1.472   137 C    1.369   171 H    0.968
                           141 C    0.100
   137   6 C    3.982 --   140 C    1.379   136 C    1.369   138 C    1.049
   138   6 C    3.864 --   139 O    1.809   137 C    1.049   172 H    0.942
   139   8 O    2.004 --   138 C    1.809
   140   6 C    3.993 --   141 C    1.465   137 C    1.379   173 H    0.971
   141   6 C    3.986 --   140 C    1.465   134 C    1.383   174 H    0.972
                           136 C    0.100
   142   6 C    3.917 --   133 C    1.330   145 N    1.293   143 C    1.123
   143   6 C    3.967 --   144 C    1.713   142 C    1.123   175 H    0.973
   144   6 C    3.965 --   143 C    1.713   146 C    1.126   176 H    0.973
   145   7 N    3.012 --   146 C    1.333   142 C    1.293
   146   6 C    3.917 --   145 N    1.333   147 C    1.271   144 C    1.126
   147   6 C    3.927 --   146 C    1.271   148 C    1.260   125 C    1.162
   148   6 C    3.893 --   147 C    1.260   149 C    1.249   152 N    1.185
   149   6 C    3.956 --   150 C    1.581   148 C    1.249   177 H    0.974
   150   6 C    3.957 --   149 C    1.581   151 C    1.243   178 H    0.974
   151   6 C    3.894 --   153 C    1.298   150 C    1.243   152 N    1.170
   152   7 N    3.472 --   148 C    1.185   151 C    1.170   179 H    0.873
   153   6 C    3.928 --   162 C    1.333   151 C    1.298   154 C    1.035
   154   6 C    3.986 --   155 C    1.383   161 C    1.379   153 C    1.035
   155   6 C    3.987 --   156 C    1.465   154 C    1.383   180 H    0.971
                           160 C    0.100
   156   6 C    3.993 --   155 C    1.465   157 C    1.378   181 H    0.971
   157   6 C    3.982 --   156 C    1.378   160 C    1.369   158 C    1.049
   158   6 C    3.864 --   159 O    1.808   157 C    1.049   182 H    0.942
   159   8 O    2.004 --   158 C    1.808
   160   6 C    3.988 --   161 C    1.472   157 C    1.369   183 H    0.968
                           155 C    0.100
   161   6 C    3.986 --   160 C    1.472   154 C    1.379   184 H    0.972
   162   6 C    3.917 --   153 C    1.333   166 N    1.290   163 C    1.123
   163   6 C    3.967 --   164 C    1.711   162 C    1.123   185 H    0.973
   164   6 C    3.965 --   163 C    1.711   165 C    1.127   186 H    0.973
   165   6 C    3.916 --   166 N    1.337   127 C    1.266   164 C    1.127
   166   7 N    3.012 --   165 C    1.337   162 C    1.290
   167   1 H    1.003 --   129 C    0.974
   168   1 H    1.004 --   130 C    0.974
   169   1 H    0.986 --   132 N    0.873
   170   1 H    1.004 --   135 C    0.972
   171   1 H    1.005 --   136 C    0.968
   172   1 H    1.010 --   138 C    0.942
   173   1 H    1.000 --   140 C    0.971
   174   1 H    1.004 --   141 C    0.972
   175   1 H    1.004 --   143 C    0.973
   176   1 H    1.003 --   144 C    0.973
   177   1 H    1.002 --   149 C    0.974
   178   1 H    1.004 --   150 C    0.974
   179   1 H    0.987 --   152 N    0.873
   180   1 H    1.004 --   155 C    0.971
   181   1 H    1.000 --   156 C    0.971
   182   1 H    1.010 --   158 C    0.942
   183   1 H    1.005 --   160 C    0.968
   184   1 H    1.004 --   161 C    0.972
   185   1 H    1.004 --   163 C    0.973
   186   1 H    1.004 --   164 C    0.973
 ---------------------------------------------------------------------------

           -------------------------------------------------
          | TOTAL ENERGY             -323.676426501418 Eh   |
          | GRADIENT NORM               0.000339676555 Eh/α |
          | HOMO-LUMO GAP               0.942878669108 eV   |
           -------------------------------------------------

 * finished run on 2022/07/30 at 03:14:09.233
