   * xtb version 6.5.1 (b24c23e) compiled by 'conda@728c89f4b128' on 2022-07-12
          program call               : xtb Ni_BSA_C2_2.xyz --gfn 1 --opt -T 48

   ID    Z sym.   atoms
    1   28 Ni     1, 65
    2    6 C      2-6, 8-12, 17-21, 23-28, 30-34, 39-44, 66-70, 72-76, 81-85,
                  87-92, 94-98, 103-108, 129, 130
    3    7 N      7, 22, 29, 45, 71, 86, 93, 109
    4   16 S      13, 35, 77, 99
    5    8 O      14-16, 36-38, 78-80, 100-102
    6    1 H      46-64, 110-128
########################################################################
[WARNING] Please study the warnings concerning your input carefully
-1- prog_main_parseArguments: Unknown option '-T' provided
########################################################################

          :  Hamiltonian                  GFN1-xTB          :
 * total energy  :  -264.3609090 Eh     change       -0.1325134E-08 Eh
 * total energy  :  -264.4733935 Eh     change       -0.1124845E+00 Eh
 * total energy  :  -264.5454991 Eh     change       -0.7210557E-01 Eh
 * total energy  :  -264.5646581 Eh     change       -0.1915902E-01 Eh
 * total energy  :  -264.5775662 Eh     change       -0.1290804E-01 Eh
 * total energy  :  -264.5856993 Eh     change       -0.8133157E-02 Eh
 * total energy  :  -264.5913954 Eh     change       -0.5696058E-02 Eh
 * total energy  :  -264.5952064 Eh     change       -0.3811073E-02 Eh
 * total energy  :  -264.5972781 Eh     change       -0.2071672E-02 Eh
 * total energy  :  -264.5984828 Eh     change       -0.1204709E-02 Eh
 * total energy  :  -264.6036453 Eh     change       -0.4315263E-04 Eh
 * total energy  :  -264.6036867 Eh     change       -0.4132418E-04 Eh
 * total energy  :  -264.6037270 Eh     change       -0.4029093E-04 Eh
 * total energy  :  -264.6037308 Eh     change       -0.3844578E-05 Eh
 * total energy  :  -264.6037585 Eh     change       -0.2767534E-04 Eh
 * total energy  :  -264.6037632 Eh     change       -0.4685300E-05 Eh
 * total energy  :  -264.6037846 Eh     change       -0.2148671E-04 Eh
 * total energy  :  -264.6037933 Eh     change       -0.8701953E-05 Eh
 * total energy  :  -264.6037978 Eh     change       -0.4485408E-05 Eh
   *** GEOMETRY OPTIMIZATION CONVERGED AFTER 44 ITERATIONS ***

 final structure:
================
130
 xtb: 6.5.1 (b24c23e)
Ni          18.31443144601421        0.02714917592096        0.05748025201047
C           14.92967190432321        0.13385611204837        0.10578911468095
C           15.58033627240370       -0.34641685740351        1.22369969766570
C           14.90879534520665       -0.83885152126713        2.38784871845957
C           15.86600156610739       -1.09273467697473        3.31074051306951
C           17.12148823991787       -0.73967458563862        2.71423908858821
N           16.93917894400466       -0.33104393239086        1.41717996946728
C           18.33494853299521       -0.73469315423177        3.39079736558360
C           18.34998761048796       -1.06665967270346        4.83420800029011
C           17.62777380063402       -0.29095867744567        5.74465634320748
C           17.64596912862261       -0.59368214724979        7.09614082769307
C           18.38812244021185       -1.68262197285030        7.52386682300954
S           18.42369561680970       -2.06556492105257        9.23432637021973
O           18.13443294995691       -0.90442629783509       10.02306240961076
O           17.12956882560574       -3.04579731676218        9.28231785754250
O           19.58546321451526       -2.84017334313424        9.55810375225178
C           19.11511021544785       -2.46994145373555        6.64579290063652
C           19.09414931039462       -2.15491868849946        5.29721339818441
C           19.53773057792740       -0.42135150499703        2.76935070975684
C           20.79127053031215       -0.31871333326316        3.45310867282509
C           21.73736030694467       -0.11363240643753        2.50506563579171
N           19.71063368134363       -0.22867957243357        1.41844687880104
C           21.06155300389869       -0.09008457876166        1.24718760576592
C           21.72005724080181       -0.04322439758934        0.01601765877718
C           21.03333374473983        0.01689211560549       -1.19933319431611
C           21.67763015931775       -0.00441953176503       -2.47356159773556
C           20.71671405019970        0.22456322587543       -3.40107147743606
C           19.48686474895795        0.39241119914637       -2.68777430082422
N           19.68531773631283        0.20726868987730       -1.33918333288678
C           18.28729659531043        0.76769676432862       -3.28074764306892
C           18.28471295794116        1.09793322233239       -4.72439502148653
C           17.48163741052120        0.38081937485667       -5.61460201391126
C           17.47999749047422        0.68902284496165       -6.96528464940098
C           18.28703048126138        1.72191028661842       -7.41312785105098
S           18.28198886459130        2.12695424188325       -9.12058770755424
O           18.65237819247039        3.49739402694608       -9.32526892478955
O           19.53656132446458        1.21737593262938       -9.60385229556700
O           17.08861774485387        1.63376670676696       -9.73775622471129
C           19.09052705451301        2.45435960150339       -6.55419411035298
C           19.08725490389674        2.13563487316547       -5.20654856252323
C           17.09596096681442        0.85128938858050       -2.57054510606094
C           15.84905590686128        1.28356946601875       -3.13198416888776
C           14.90545377188595        1.09912345431313       -2.17919891378786
C           15.57745384586155        0.56824457286070       -1.03231066099698
N           16.92598925443603        0.46206638228077       -1.26582198860637
H           13.84677698352106        0.17036472850271        0.12196932890715
H           13.84122485634293       -0.96620116801803        2.46974674550050
H           15.74589425789100       -1.48443528178560        4.30774172159730
H           17.06460628752146        0.56470776334066        5.39090447572768
H           17.09994878567037        0.00790235223585        7.81190743505648
H           16.98219266524729       -3.35984450037369       10.18279269033251
H           19.68889692908284       -3.31039149535362        7.01564034558877
H           19.64842521722895       -2.76339971447972        4.59217502840351
H           20.92072840523173       -0.38707036356554        4.52085260552563
H           22.79989355598979        0.01284566186205        2.63330523675348
H           22.73030557723041       -0.17811539111663       -2.62572221751111
H           20.82125046874539        0.27027451473765       -4.47273847738109
H           16.86695691874248       -0.43219318938324       -5.24625293679404
H           16.86092144936518        0.13996669796023       -7.66357020063410
H           19.96689840073516        1.62450503656318      -10.36560553490188
H           19.70033781084526        3.26351039619931       -6.93615293859026
H           19.69860304486107        2.70478560697688       -4.51596040087390
H           15.72495338725751        1.67794999494976       -4.12737809393864
H           13.84675668972805        1.29703311141572       -2.23004765588746
Ni          29.15908173754550        0.04643630048838       -0.04339901142598
C           32.54381321226322        0.16345619341590       -0.04887523974036
C           31.89311754910779        0.13002093276285       -1.26511345833533
C           32.56464579843635        0.10230528774072       -2.52883053817684
C           31.60743685280038        0.20727908347033       -3.48023066534042
C           30.35196114160396        0.31514206583356       -2.79550313354209
N           30.53427635514817        0.21582432874076       -1.43922162692060
C           29.13851303756742        0.56966160679242       -3.42240239275784
C           29.12349544129560        0.79426764644221       -4.88636575593917
C           29.84574105071400        1.85136842099656       -5.44593984596092
C           29.82756598019559        2.06920515112669       -6.81367484380521
C           29.08540867354932        1.21524646448788       -7.61335494450154
S           29.04987509768027        1.49110303781289       -9.34431454488650
O           29.33922131215053        2.86143360906778       -9.64844283526821
O           30.34395468203095        0.59782224476784       -9.75092215284077
O           27.88808020067800        0.89090740307962       -9.93130218095541
C           28.35839197673594        0.15930441247413       -7.08815909398692
C           28.37932398933408       -0.04602307622856       -5.71857985140423
C           27.93571859391192        0.63132369431524       -2.72918329162643
C           26.68216707150113        0.97920125610090       -3.32668977720766
C           25.73608888664760        0.81963774434978       -2.36991962647834
N           27.76282884419273        0.31145218307180       -1.40263486377163
C           26.41191454994301        0.37698082946473       -1.19227678343217
C           25.75343904040734       -0.03419882710007       -0.03083607846255
C           26.44016466046545       -0.42721041434620        1.12078260234783
C           25.79587553309596       -0.91768532550790        2.29702640357200
C           26.75679417067440       -1.04750743291324        3.24351921216180
C           27.98664013746587       -0.62804267597913        2.64266791395851
N           27.78818689980620       -0.30195382092257        1.32106207033018
C           29.18621646603970       -0.49831982306444        3.33231884985399
C           29.18880386001176       -0.72465127639517        4.79585591398586
C           29.99192938733533       -1.71980076069800        5.35827805327589
C           29.99358217709373       -1.93223495458658        6.72729107185187
C           29.18650802305968       -1.13781097036837        7.52493421694924
S           29.19149222195516       -1.39187138834049        9.26127660002041
O           28.82054581286187       -0.19398308476871        9.95742209175576
O           27.93726482878602       -2.41606804279809        9.37420971383933
O           30.38503720652950       -2.07763773581719        9.65298862991211
C           28.38293751545525       -0.13998323701314        6.99724201634103
C           28.38619495582542        0.06155009137563        5.62716938130650
C           30.37754153258639       -0.15829449403772        2.70320780058991
C           31.62444595515346        0.03605575395968        3.38461390819454
C           32.56805213276589        0.21656408969312        2.43107742619574
C           31.89605768978871        0.14681823104610        1.16920328778755
N           30.54752080801191       -0.03810209290024        1.34698578062238
H           33.62670925353508        0.20332602343335       -0.05046394137537
H           33.63220915489791        0.01412401218181       -2.65197714272033
H           31.72753431344572        0.21147875220459       -4.55141038709001
H           30.40891961180850        2.51586488776038       -4.80116221032951
H           30.37360618729846        2.89260446986965       -7.25663834528676
H           30.49134612288636        0.63853378456744      -10.70371729939163
H           27.78460839469743       -0.48511534679604       -7.74227654251448
H           27.82502255805647       -0.87186668056227       -5.28813454166250
H           26.55268142630149        1.30999362367064       -4.34419604408290
H           24.67355220243364        0.98450917175805       -2.44239247989837
H           24.74320014412562       -1.13530442541239        2.37426641620820
H           26.65227301805156       -1.40089342461414        4.25627858721570
H           30.60664262440773       -2.33926014724590        4.71570288644488
H           30.61269873517416       -2.70033515295181        7.17343446923103
H           27.50717137231676       -2.32020298218261       10.23286377073992
H           27.77306443283175        0.47082914931475        7.65103684412546
H           27.77479165237139        0.84547175947053        5.19561440285918
H           31.74855776099788        0.03491219232771        4.45528782232633
H           33.62674709350482        0.38169634836992        2.55145173856951
C           23.12885569881596       -0.05288190293954       -0.00155287674453
C           24.34463859011023       -0.04970961647573       -0.01807550952169

          :  Hamiltonian                  GFN1-xTB          :
         :: total energy            -264.603797829664 Eh    ::
         :: gradient norm              0.000434315702 Eh/a0 ::
         :: HOMO-LUMO gap              1.238480438747 eV    ::
         :: SCC energy              -267.979821407625 Eh    ::
         :: repulsion energy           3.498134317923 Eh    ::

    * Orbital Energies and Occupations

         #    Occupation            Energy/Eh            Energy/eV
      -------------------------------------------------------------
         1        2.0000           -1.0378508             -28.2414
       ...           ...                  ...                  ...
       217        2.0000           -0.4470541             -12.1650
       218        2.0000           -0.4177504             -11.3676
       219        2.0000           -0.4168809             -11.3439
       220        2.0000           -0.4168010             -11.3417
       221        2.0000           -0.4165114             -11.3339
       222        2.0000           -0.4164836             -11.3331
       223        2.0000           -0.4155243             -11.3070
       224        2.0000           -0.4155218             -11.3069
       225        2.0000           -0.4144138             -11.2768
       226        2.0000           -0.4144124             -11.2767
       227        2.0000           -0.4143005             -11.2737
       228        2.0000           -0.4142994             -11.2737
       229        2.0000           -0.4038463             -10.9892 (HOMO)
       230                         -0.3583329              -9.7507 (LUMO)
       231                         -0.3503734              -9.5341
       232                         -0.3503632              -9.5339
       233                         -0.3453379              -9.3971
       234                         -0.3452846              -9.3957
       235                         -0.3415806              -9.2949
       236                         -0.3221278              -8.7655
       237                         -0.3182317              -8.6595
       238                         -0.3106706              -8.4538
       239                         -0.3105741              -8.4512
       240                         -0.3052890              -8.3073
       ...                                ...                  ...
       474                          1.3264888              36.0956
      -------------------------------------------------------------
                  HL-Gap            0.0455133 Eh            1.2385 eV

Wiberg/Mayer (AO) data.
largest (>0.10) Wiberg bond orders for each atom

     #   Z sym  total        # sym  WBO       # sym  WBO       # sym  WBO
 ---------------------------------------------------------------------------
     1  28 Ni   3.022 --    45 N    0.665     7 N    0.664    29 N    0.661
                            22 N    0.661
     2   6 C    3.936 --    44 C    1.365     3 C    1.364    46 H    0.970
     3   6 C    3.921 --     2 C    1.364     7 N    1.212     4 C    1.174
     4   6 C    3.960 --     5 C    1.651     3 C    1.174    47 H    0.975
     5   6 C    3.963 --     4 C    1.651     6 C    1.175    48 H    0.973
     6   6 C    3.921 --     8 C    1.323     7 N    1.221     5 C    1.175
     7   7 N    3.401 --     6 C    1.221     3 C    1.212     1 Ni   0.664
     8   6 C    3.938 --    19 C    1.323     6 C    1.323     9 C    1.031
     9   6 C    3.986 --    10 C    1.390    18 C    1.390     8 C    1.031
    10   6 C    3.986 --    11 C    1.450     9 C    1.390    49 H    0.971
                            17 C    0.106
    11   6 C    3.989 --    10 C    1.450    12 C    1.407    50 H    0.967
                            18 C    0.106
    12   6 C    3.930 --    17 C    1.407    11 C    1.407    13 S    0.754
    13  16 S    5.265 --    14 O    1.720    16 O    1.719    15 O    1.013
                            12 C    0.754
    14   8 O    2.078 --    13 S    1.720    16 O    0.139
    15   8 O    2.087 --    13 S    1.013    51 H    0.827
    16   8 O    2.078 --    13 S    1.719    14 O    0.139
    17   6 C    3.989 --    18 C    1.450    12 C    1.407    52 H    0.967
                            10 C    0.106
    18   6 C    3.987 --    17 C    1.450     9 C    1.390    53 H    0.971
                            11 C    0.106
    19   6 C    3.916 --     8 C    1.323    22 N    1.209    20 C    1.183
    20   6 C    3.959 --    21 C    1.635    19 C    1.183    54 H    0.973
    21   6 C    3.962 --    20 C    1.635    23 C    1.191    55 H    0.970
    22   7 N    3.405 --    23 C    1.234    19 C    1.209     1 Ni   0.661
    23   6 C    3.908 --    24 C    1.270    22 N    1.234    21 C    1.191
    24   6 C    3.946 --    23 C    1.270    25 C    1.268   129 C    1.170
    25   6 C    3.908 --    24 C    1.268    29 N    1.234    26 C    1.191
    26   6 C    3.962 --    27 C    1.635    25 C    1.191    56 H    0.970
    27   6 C    3.959 --    26 C    1.635    28 C    1.184    57 H    0.973
    28   6 C    3.916 --    30 C    1.323    29 N    1.209    27 C    1.184
    29   7 N    3.405 --    25 C    1.234    28 C    1.209     1 Ni   0.661
    30   6 C    3.938 --    28 C    1.323    41 C    1.322    31 C    1.032
    31   6 C    3.986 --    32 C    1.391    40 C    1.388    30 C    1.032
    32   6 C    3.986 --    33 C    1.448    31 C    1.391    58 H    0.971
                            39 C    0.106
    33   6 C    3.989 --    32 C    1.448    34 C    1.409    59 H    0.966
                            40 C    0.106
    34   6 C    3.932 --    33 C    1.409    39 C    1.407    35 S    0.753
    35  16 S    5.273 --    38 O    1.733    36 O    1.711    37 O    1.018
                            34 C    0.753
    36   8 O    2.070 --    35 S    1.711    38 O    0.138
    37   8 O    2.092 --    35 S    1.018    60 H    0.827
    38   8 O    2.090 --    35 S    1.733    36 O    0.138
    39   6 C    3.989 --    40 C    1.451    34 C    1.407    61 H    0.967
                            32 C    0.106
    40   6 C    3.987 --    39 C    1.451    31 C    1.388    62 H    0.971
                            33 C    0.106
    41   6 C    3.921 --    30 C    1.322    45 N    1.221    42 C    1.175
    42   6 C    3.963 --    43 C    1.651    41 C    1.175    63 H    0.972
    43   6 C    3.960 --    42 C    1.651    44 C    1.174    64 H    0.974
    44   6 C    3.921 --     2 C    1.365    45 N    1.211    43 C    1.174
    45   7 N    3.402 --    41 C    1.221    44 C    1.211     1 Ni   0.665
    46   1 H    1.000 --     2 C    0.970
    47   1 H    0.997 --     4 C    0.975
    48   1 H    1.003 --     5 C    0.973
    49   1 H    1.003 --    10 C    0.971
    50   1 H    0.999 --    11 C    0.967
    51   1 H    0.854 --    15 O    0.827
    52   1 H    1.000 --    17 C    0.967
    53   1 H    1.003 --    18 C    0.971
    54   1 H    1.003 --    20 C    0.973
    55   1 H    1.005 --    21 C    0.970
    56   1 H    1.004 --    26 C    0.970
    57   1 H    1.003 --    27 C    0.973
    58   1 H    1.003 --    32 C    0.971
    59   1 H    1.000 --    33 C    0.966
    60   1 H    0.854 --    37 O    0.827
    61   1 H    0.999 --    39 C    0.967
    62   1 H    1.003 --    40 C    0.971
    63   1 H    1.003 --    42 C    0.972
    64   1 H    0.997 --    43 C    0.974
    65  28 Ni   3.022 --   109 N    0.665    71 N    0.664    93 N    0.661
                            86 N    0.661
    66   6 C    3.936 --   108 C    1.365    67 C    1.364   110 H    0.970
    67   6 C    3.921 --    66 C    1.364    71 N    1.212    68 C    1.174
    68   6 C    3.960 --    69 C    1.651    67 C    1.174   111 H    0.975
    69   6 C    3.963 --    68 C    1.651    70 C    1.175   112 H    0.973
    70   6 C    3.921 --    72 C    1.323    71 N    1.221    69 C    1.175
    71   7 N    3.401 --    70 C    1.221    67 C    1.212    65 Ni   0.664
    72   6 C    3.938 --    83 C    1.323    70 C    1.323    73 C    1.031
    73   6 C    3.986 --    74 C    1.390    82 C    1.390    72 C    1.031
    74   6 C    3.986 --    75 C    1.450    73 C    1.390   113 H    0.971
                            81 C    0.106
    75   6 C    3.989 --    74 C    1.450    76 C    1.407   114 H    0.967
                            82 C    0.106
    76   6 C    3.930 --    81 C    1.407    75 C    1.407    77 S    0.754
    77  16 S    5.265 --    78 O    1.720    80 O    1.719    79 O    1.013
                            76 C    0.754
    78   8 O    2.078 --    77 S    1.720    80 O    0.139
    79   8 O    2.087 --    77 S    1.013   115 H    0.827
    80   8 O    2.078 --    77 S    1.719    78 O    0.139
    81   6 C    3.989 --    82 C    1.450    76 C    1.407   116 H    0.967
                            74 C    0.106
    82   6 C    3.987 --    81 C    1.450    73 C    1.390   117 H    0.971
                            75 C    0.106
    83   6 C    3.916 --    72 C    1.323    86 N    1.209    84 C    1.183
    84   6 C    3.959 --    85 C    1.635    83 C    1.183   118 H    0.973
    85   6 C    3.962 --    84 C    1.635    87 C    1.191   119 H    0.970
    86   7 N    3.405 --    87 C    1.234    83 C    1.209    65 Ni   0.661
    87   6 C    3.908 --    88 C    1.270    86 N    1.234    85 C    1.191
    88   6 C    3.946 --    87 C    1.270    89 C    1.268   130 C    1.170
    89   6 C    3.908 --    88 C    1.268    93 N    1.234    90 C    1.191
    90   6 C    3.962 --    91 C    1.635    89 C    1.191   120 H    0.970
    91   6 C    3.959 --    90 C    1.635    92 C    1.184   121 H    0.973
    92   6 C    3.916 --    94 C    1.323    93 N    1.209    91 C    1.184
    93   7 N    3.405 --    89 C    1.234    92 C    1.209    65 Ni   0.661
    94   6 C    3.938 --    92 C    1.323   105 C    1.322    95 C    1.032
    95   6 C    3.986 --    96 C    1.391   104 C    1.388    94 C    1.032
    96   6 C    3.986 --    97 C    1.448    95 C    1.391   122 H    0.971
                           103 C    0.106
    97   6 C    3.989 --    96 C    1.448    98 C    1.409   123 H    0.966
                           104 C    0.106
    98   6 C    3.932 --    97 C    1.409   103 C    1.407    99 S    0.753
    99  16 S    5.273 --   102 O    1.733   100 O    1.711   101 O    1.018
                            98 C    0.753
   100   8 O    2.070 --    99 S    1.711   102 O    0.138
   101   8 O    2.092 --    99 S    1.018   124 H    0.827
   102   8 O    2.090 --    99 S    1.733   100 O    0.138
   103   6 C    3.989 --   104 C    1.451    98 C    1.407   125 H    0.967
                            96 C    0.106
   104   6 C    3.987 --   103 C    1.451    95 C    1.388   126 H    0.971
                            97 C    0.106
   105   6 C    3.921 --    94 C    1.322   109 N    1.221   106 C    1.175
   106   6 C    3.963 --   107 C    1.651   105 C    1.175   127 H    0.972
   107   6 C    3.960 --   106 C    1.651   108 C    1.174   128 H    0.974
   108   6 C    3.921 --    66 C    1.365   109 N    1.211   107 C    1.174
   109   7 N    3.402 --   105 C    1.221   108 C    1.211    65 Ni   0.665
   110   1 H    1.000 --    66 C    0.970
   111   1 H    0.997 --    68 C    0.975
   112   1 H    1.003 --    69 C    0.973
   113   1 H    1.003 --    74 C    0.971
   114   1 H    0.999 --    75 C    0.967
   115   1 H    0.854 --    79 O    0.827
   116   1 H    1.000 --    81 C    0.967
   117   1 H    1.003 --    82 C    0.971
   118   1 H    1.003 --    84 C    0.973
   119   1 H    1.005 --    85 C    0.970
   120   1 H    1.004 --    90 C    0.970
   121   1 H    1.003 --    91 C    0.973
   122   1 H    1.003 --    96 C    0.971
   123   1 H    1.000 --    97 C    0.966
   124   1 H    0.854 --   101 O    0.827
   125   1 H    0.999 --   103 C    0.967
   126   1 H    1.003 --   104 C    0.971
   127   1 H    1.003 --   106 C    0.972
   128   1 H    0.997 --   107 C    0.974
   129   6 C    3.937 --   130 C    2.589    24 C    1.170
   130   6 C    3.937 --   129 C    2.589    88 C    1.170
 ---------------------------------------------------------------------------

           -------------------------------------------------
          | TOTAL ENERGY             -264.603797829664 Eh   |
          | GRADIENT NORM               0.000434315702 Eh/α |
          | HOMO-LUMO GAP               1.238480438747 eV   |
           -------------------------------------------------

 * finished run on 2022/07/30 at 10:48:12.988
