   * xtb version 6.5.1 (b24c23e) compiled by 'conda@728c89f4b128' on 2022-07-12
          program call               : xtb Cu_Py_C6_2.xyz --gfn 1 --opt -T 48

   ID    Z sym.   atoms
    1   29 Cu     1, 55
    2    6 C      2-6, 8-11, 13-17, 19-24, 26-29, 31-36, 56-60, 62-65, 67-71,
                  73-78, 80-83, 85-90, 109-114
    3    7 N      7, 12, 18, 25, 30, 37, 61, 66, 72, 79, 84, 91
    4    1 H      38-54, 92-108
########################################################################
[WARNING] Please study the warnings concerning your input carefully
-1- prog_main_parseArguments: Unknown option '-T' provided
########################################################################

          :  Hamiltonian                  GFN1-xTB          :
 * total energy  :  -204.5095241 Eh     change       -0.1473666E-09 Eh
 * total energy  :  -204.8332791 Eh     change       -0.3237549E+00 Eh
 * total energy  :  -204.9057993 Eh     change       -0.7252027E-01 Eh
 * total energy  :  -204.9327070 Eh     change       -0.2690770E-01 Eh
 * total energy  :  -204.9404721 Eh     change       -0.7765081E-02 Eh
 * total energy  :  -204.9454392 Eh     change       -0.4967090E-02 Eh
 * total energy  :  -204.9484118 Eh     change       -0.2972608E-02 Eh
 * total energy  :  -204.9503692 Eh     change       -0.1957365E-02 Eh
 * total energy  :  -204.9517423 Eh     change       -0.1373114E-02 Eh
 * total energy  :  -204.9527209 Eh     change       -0.9785926E-03 Eh
 * total energy  :  -204.9569715 Eh     change       -0.2063287E-04 Eh
 * total energy  :  -204.9569896 Eh     change       -0.1814628E-04 Eh
 * total energy  :  -204.9570013 Eh     change       -0.1170895E-04 Eh
 * total energy  :  -204.9570089 Eh     change       -0.7606567E-05 Eh
 * total energy  :  -204.9570165 Eh     change       -0.7603513E-05 Eh
 * total energy  :  -204.9570244 Eh     change       -0.7885566E-05 Eh
 * total energy  :  -204.9570312 Eh     change       -0.6804358E-05 Eh
 * total energy  :  -204.9570366 Eh     change       -0.5365692E-05 Eh
 * total energy  :  -204.9570387 Eh     change       -0.2103859E-05 Eh
   *** GEOMETRY OPTIMIZATION CONVERGED AFTER 44 ITERATIONS ***

 final structure:
================
114
 xtb: 6.5.1 (b24c23e)
Cu          11.07627096021620       -0.03897275768096        0.00052658073876
C            7.66920855539820       -0.06192901596524        0.00143863474341
C            8.30090631814054       -1.29168692935056        0.10979042061648
C            7.62281604561100       -2.54876217892600        0.24992000565471
C            8.57933312495492       -3.50467940396262        0.34894131389242
C            9.85159723008204       -2.84016682569011        0.26176698790252
N            9.65105756244462       -1.49732786139611        0.12154353033110
C           11.09535869654716       -3.47000188894383        0.34736066479360
C           11.10395066230063       -4.94465862231203        0.50712022834748
C           11.62597333198449       -5.54386517565501        1.65280050932392
C           11.60653516324361       -6.92534650811843        1.76181697721144
N           11.11416732132021       -7.71959747025480        0.81657872274932
C           10.61789947577480       -7.15657085828721       -0.28038269679602
C           10.58824774194600       -5.78507606911928       -0.47856359022020
C           12.33047705291894       -2.82107210594413        0.30011106904190
C           13.60603868272691       -3.47837177414413        0.34509533312381
C           14.55486678110665       -2.51281529390611        0.25016856204544
N           12.52289856522778       -1.47127739042228        0.16802529782904
C           13.86714337749962       -1.26141988062842        0.13908606309080
C           14.50639506970029       -0.01651970581572        0.00195359066640
C           13.85085784587225        1.21980533586620       -0.13529363070045
C           14.52201629634192        2.47280340857979       -0.31041034145264
C           13.56087906056086        3.42575435874076       -0.40905267965331
C           12.29433568844793        2.76094370478304       -0.28579991443746
N           12.50425690385909        1.41620629343848       -0.13074116019059
C           11.05037502493312        3.39267803206800       -0.34221993918643
C           11.03943162493250        4.86803572295059       -0.49043613256692
C           10.46710227659492        5.47964360236589       -1.60528171283169
C           10.48315100191897        6.86218903681832       -1.70091761095157
N           11.01904194947815        7.64656593671032       -0.77127864929886
C           11.56476101837625        7.07190177240843        0.29583128363215
C           11.60080294548876        5.69858625777809        0.47887295018173
C            9.81512877939938        2.74388839434422       -0.27117836890375
C            8.53455711466174        3.39808046910889       -0.28217682516944
C            7.59093268952189        2.42883132928785       -0.18897013708934
C            8.28531978448851        1.17535648539908       -0.11097821372579
N            9.63251640288923        1.39610349895717       -0.15600576288193
H            6.58415804308050       -0.06741997522652        0.01542467472751
H            6.55119221052053       -2.66906916163240        0.27458011055304
H            8.44315598083408       -4.56599412383096        0.48076279074640
H           12.02741359003581       -4.93502397619843        2.45417732095094
H           12.00276143806688       -7.41458595564835        2.64686308932313
H           10.22576847112616       -7.83172996952645       -1.03544511310476
H           10.18349811260287       -5.37118135687886       -1.39447951089550
H           13.75247556827839       -4.54328081783429        0.42558386494179
H           15.62689770038061       -2.62834594002732        0.24819882325844
H           15.59211322287003        2.59642725883120       -0.35763183933000
H           13.69377597157547        4.48403517558191       -0.56489374669433
H           10.02987466529429        4.87981951167363       -2.39465356067743
H           10.04728076185219        7.36067316147496       -2.56186341041664
H           11.99257887797068        7.73888956779589        1.03863767363153
H           12.04576074625215        5.27524168679073        1.37152540435807
H            8.38430366645881        4.46404290586184       -0.34083689144094
H            6.51813536152954        2.53876110507020       -0.16704985012107
Cu          27.11383228422336        0.03694627686661       -0.01038230788212
C           30.52092509985634        0.05874570144210       -0.01631729185602
C           29.88938210228169        1.26738991303134       -0.26813628654627
C           30.56760407418590        2.51133547877054       -0.49679958476484
C           29.61119578933189        3.45493077609549       -0.67961777947086
C           28.33887284511350        2.79344520955551       -0.57248225926247
N           28.53926062817955        1.46755834302945       -0.31764442297773
C           27.09512968288641        3.42072392854080       -0.67559602392881
C           27.08655675096887        4.87799161092842       -0.95198548423147
C           26.56068767734689        5.78454081284544       -0.03231041289689
C           26.57986028966809        7.13786715689653       -0.33044987068740
N           27.07571166662108        7.62276172145181       -1.46435605705126
C           27.57589270551730        6.76503715964743       -2.34794619774267
C           27.60591587792418        5.39531895101468       -2.13794654611060
C           25.85993400234770        2.78577327888873       -0.53399295208027
C           24.58443719140432        3.42732004290741       -0.68454054996748
C           23.63554252559951        2.47594820715974       -0.49463551496654
N           25.66741918142990        1.45611365768534       -0.26683284400382
C           24.32315697655613        1.24674766172184       -0.23477893386079
C           23.68368681398064        0.01612749336921       -0.00275747679139
C           24.33900496511010       -1.20653521045057        0.22691154297750
C           23.66770806905909       -2.45594014478103        0.42566004522038
C           24.62878740925577       -3.39649457059488        0.60819637362384
C           25.89541888093254       -2.72499135746074        0.53070772560219
N           25.68560257114600       -1.39338148098802        0.28737889011138
C           27.13933349023394       -3.34620639122095        0.65869485351788
C           27.15021162649088       -4.80096648993154        0.94585499249725
C           27.71886477983036       -5.71071661545739        0.05510341111599
C           27.70305914476451       -7.06129052627377        0.36581167945341
N           27.17091094818560       -7.54097958135836        1.48535168253471
C           26.62872044677265       -6.68044294281120        2.34107290618695
C           26.59259851319648       -5.31325517073445        2.11678456379125
C           28.37463631837228       -2.70524746048923        0.53651628311558
C           29.65516497906859       -3.33508726048841        0.71392419453267
C           30.59891932361626       -2.38070312167568        0.52148357682618
C           29.90465028556126       -1.15807919665565        0.23399212372681
N           28.55740330871504       -1.38196726935856        0.25601833370983
H           31.60597762854482        0.06787436783093       -0.00458786368183
H           31.63922701557632        2.63376105789086       -0.50667183220997
H           29.74749492658044        4.50905366447677       -0.86005432506531
H           26.15649865952256        5.43526422822263        0.91038426515065
H           26.18069529315118        7.86336102326121        0.37238211947641
H           27.97059748415747        7.19125993069553       -3.26568599799420
H           28.01364691445162        4.73291700460132       -2.89227109982666
H           24.43807378851910        4.46926571767798       -0.91879342275099
H           22.56353332194124        2.58564276300770       -0.53161504144367
H           22.59756800111988       -2.58768287937965        0.41774781805164
H           24.49584252232597       -4.45417850922759        0.76802112020409
H           28.15311794506222       -5.36665199477255       -0.87608150297953
H           28.13602599563342       -7.78893949122085       -0.31445229988076
H           26.20395550027086       -7.10224729677072        3.24733660093011
H           26.15048998125448       -4.64827055938088        2.84915392755676
H           29.80525908947667       -4.37246533070730        0.96614115598599
H           31.67173972274414       -2.47995744131322        0.57309264665345
C           19.70907368855451       -0.00256685129480       -0.01209415294633
C           18.48096409235397       -0.00292189984399       -0.01167379982165
C           17.13605343769800       -0.00723921428642       -0.01012017174370
C           15.91248565134603       -0.00905745838514       -0.00737778510525
C           21.05399053944212        0.00239082871952       -0.01129481916377
C           22.27759105899039        0.00655572973861       -0.00947711050888

          :  Hamiltonian                  GFN1-xTB          :
         :: total energy            -204.957038685002 Eh    ::
         :: gradient norm              0.000356564069 Eh/a0 ::
         :: HOMO-LUMO gap              0.000030253936 eV    ::
         :: SCC energy              -208.170030720691 Eh    ::
         :: repulsion energy           3.315304626974 Eh    ::

    * Orbital Energies and Occupations

         #    Occupation            Energy/Eh            Energy/eV
      -------------------------------------------------------------
         1        2.0000           -0.7699076             -20.9503
       ...           ...                  ...                  ...
       178        2.0000           -0.4169172             -11.3449
       179        2.0000           -0.4169132             -11.3448
       180        2.0000           -0.4140226             -11.2661
       181        2.0000           -0.4140204             -11.2661
       182        2.0000           -0.4138046             -11.2602
       183        2.0000           -0.4137750             -11.2594
       184        2.0000           -0.4137718             -11.2593
       185        2.0000           -0.4136936             -11.2572
       186        2.0000           -0.4012222             -10.9178
       187        2.0000           -0.4012209             -10.9178
       188        2.0000           -0.3973030             -10.8112
       189        2.0000           -0.3866105             -10.5202
       190        1.0003           -0.3614086              -9.8344 (HOMO)
       191        0.9997           -0.3614075              -9.8344 (LUMO)
       192                         -0.3434648              -9.3462
       193                         -0.3343437              -9.0980
       194                         -0.3343408              -9.0979
       195                         -0.3318213              -9.0293
       196                         -0.3054906              -8.3128
       197                         -0.2990864              -8.1386
       198                         -0.2883032              -7.8451
       199                         -0.2812559              -7.6534
       200                         -0.2811419              -7.6503
       201                         -0.2810274              -7.6471
       ...                                ...                  ...
       398                          1.5762615              42.8923
      -------------------------------------------------------------
                  HL-Gap            0.0000011 Eh            0.0000 eV

Wiberg/Mayer (AO) data.
largest (>0.10) Wiberg bond orders for each atom

     #   Z sym  total        # sym  WBO       # sym  WBO       # sym  WBO
 ---------------------------------------------------------------------------
     1  29 Cu   2.184 --    37 N    0.505     7 N    0.504    18 N    0.502
                            25 N    0.502
     2   6 C    3.930 --    36 C    1.362     3 C    1.362    38 H    0.971
     3   6 C    3.916 --     2 C    1.362     7 N    1.229     4 C    1.170
     4   6 C    3.955 --     5 C    1.657     3 C    1.170    39 H    0.975
     5   6 C    3.958 --     4 C    1.657     6 C    1.171    40 H    0.973
     6   6 C    3.914 --     8 C    1.319     7 N    1.239     5 C    1.171
     7   7 N    3.244 --     6 C    1.239     3 C    1.229     1 Cu   0.504
     8   6 C    3.935 --    15 C    1.327     6 C    1.319     9 C    1.026
     9   6 C    3.986 --    14 C    1.393    10 C    1.393     8 C    1.026
                            12 N    0.107
    10   6 C    3.987 --    11 C    1.442     9 C    1.393    41 H    0.973
                            13 C    0.109
    11   6 C    3.972 --    10 C    1.442    12 N    1.415    42 H    0.972
                            14 C    0.109
    12   7 N    3.030 --    13 C    1.416    11 C    1.415     9 C    0.107
    13   6 C    3.972 --    14 C    1.442    12 N    1.416    43 H    0.972
                            10 C    0.109
    14   6 C    3.987 --    13 C    1.442     9 C    1.393    44 H    0.973
                            11 C    0.109
    15   6 C    3.908 --     8 C    1.327    18 N    1.222    16 C    1.178
    16   6 C    3.954 --    17 C    1.644    15 C    1.178    45 H    0.973
    17   6 C    3.956 --    16 C    1.644    19 C    1.186    46 H    0.974
    18   7 N    3.248 --    19 C    1.257    15 C    1.222     1 Cu   0.502
    19   6 C    3.896 --    20 C    1.259    18 N    1.257    17 C    1.186
    20   6 C    3.940 --    21 C    1.260    19 C    1.259   112 C    1.187
    21   6 C    3.896 --    20 C    1.260    25 N    1.257    22 C    1.186
    22   6 C    3.956 --    23 C    1.643    21 C    1.186    47 H    0.974
    23   6 C    3.954 --    22 C    1.643    24 C    1.179    48 H    0.973
    24   6 C    3.908 --    26 C    1.326    25 N    1.222    23 C    1.179
    25   7 N    3.248 --    21 C    1.257    24 C    1.222     1 Cu   0.502
    26   6 C    3.935 --    24 C    1.326    33 C    1.318    27 C    1.028
    27   6 C    3.986 --    28 C    1.392    32 C    1.392    26 C    1.028
                            30 N    0.107
    28   6 C    3.987 --    29 C    1.442    27 C    1.392    49 H    0.973
                            31 C    0.108
    29   6 C    3.972 --    28 C    1.442    30 N    1.415    50 H    0.972
                            32 C    0.108
    30   7 N    3.030 --    29 C    1.415    31 C    1.415    27 C    0.107
    31   6 C    3.972 --    32 C    1.442    30 N    1.415    51 H    0.972
                            28 C    0.108
    32   6 C    3.987 --    31 C    1.442    27 C    1.392    52 H    0.973
                            29 C    0.108
    33   6 C    3.914 --    26 C    1.318    37 N    1.240    34 C    1.171
    34   6 C    3.958 --    35 C    1.656    33 C    1.171    53 H    0.973
    35   6 C    3.955 --    34 C    1.656    36 C    1.170    54 H    0.975
    36   6 C    3.916 --     2 C    1.362    37 N    1.229    35 C    1.170
    37   7 N    3.244 --    33 C    1.240    36 C    1.229     1 Cu   0.505
    38   1 H    1.001 --     2 C    0.971
    39   1 H    0.998 --     4 C    0.975
    40   1 H    1.004 --     5 C    0.973
    41   1 H    1.004 --    10 C    0.973
    42   1 H    1.013 --    11 C    0.972
    43   1 H    1.013 --    13 C    0.972
    44   1 H    1.004 --    14 C    0.973
    45   1 H    1.004 --    16 C    0.973
    46   1 H    1.002 --    17 C    0.974
    47   1 H    1.002 --    22 C    0.974
    48   1 H    1.004 --    23 C    0.973
    49   1 H    1.004 --    28 C    0.973
    50   1 H    1.013 --    29 C    0.972
    51   1 H    1.013 --    31 C    0.972
    52   1 H    1.004 --    32 C    0.973
    53   1 H    1.004 --    34 C    0.973
    54   1 H    0.998 --    35 C    0.975
    55  29 Cu   2.184 --    91 N    0.505    61 N    0.504    72 N    0.502
                            79 N    0.502
    56   6 C    3.930 --    90 C    1.362    57 C    1.362    92 H    0.971
    57   6 C    3.916 --    56 C    1.362    61 N    1.229    58 C    1.170
    58   6 C    3.955 --    59 C    1.657    57 C    1.170    93 H    0.975
    59   6 C    3.958 --    58 C    1.657    60 C    1.171    94 H    0.973
    60   6 C    3.914 --    62 C    1.319    61 N    1.239    59 C    1.171
    61   7 N    3.244 --    60 C    1.239    57 C    1.229    55 Cu   0.504
    62   6 C    3.935 --    69 C    1.327    60 C    1.319    63 C    1.027
    63   6 C    3.986 --    68 C    1.393    64 C    1.393    62 C    1.027
                            66 N    0.107
    64   6 C    3.987 --    65 C    1.442    63 C    1.393    95 H    0.973
                            67 C    0.109
    65   6 C    3.972 --    64 C    1.442    66 N    1.415    96 H    0.972
                            68 C    0.108
    66   7 N    3.030 --    67 C    1.416    65 C    1.415    63 C    0.107
    67   6 C    3.972 --    68 C    1.442    66 N    1.416    97 H    0.972
                            64 C    0.109
    68   6 C    3.987 --    67 C    1.442    63 C    1.393    98 H    0.973
                            65 C    0.108
    69   6 C    3.908 --    62 C    1.327    72 N    1.222    70 C    1.178
    70   6 C    3.954 --    71 C    1.643    69 C    1.178    99 H    0.973
    71   6 C    3.956 --    70 C    1.643    73 C    1.186   100 H    0.974
    72   7 N    3.248 --    73 C    1.257    69 C    1.222    55 Cu   0.502
    73   6 C    3.896 --    74 C    1.260    72 N    1.257    71 C    1.186
    74   6 C    3.940 --    75 C    1.260    73 C    1.260   114 C    1.187
    75   6 C    3.896 --    74 C    1.260    79 N    1.257    76 C    1.186
    76   6 C    3.956 --    77 C    1.643    75 C    1.186   101 H    0.974
    77   6 C    3.954 --    76 C    1.643    78 C    1.179   102 H    0.973
    78   6 C    3.908 --    80 C    1.326    79 N    1.222    77 C    1.179
    79   7 N    3.248 --    75 C    1.257    78 C    1.222    55 Cu   0.502
    80   6 C    3.935 --    78 C    1.326    87 C    1.318    81 C    1.028
    81   6 C    3.986 --    82 C    1.393    86 C    1.393    80 C    1.028
                            84 N    0.107
    82   6 C    3.987 --    83 C    1.442    81 C    1.393   103 H    0.973
                            85 C    0.108
    83   6 C    3.972 --    82 C    1.442    84 N    1.415   104 H    0.972
                            86 C    0.108
    84   7 N    3.030 --    83 C    1.415    85 C    1.415    81 C    0.107
    85   6 C    3.972 --    86 C    1.442    84 N    1.415   105 H    0.972
                            82 C    0.108
    86   6 C    3.987 --    85 C    1.442    81 C    1.393   106 H    0.973
                            83 C    0.108
    87   6 C    3.914 --    80 C    1.318    91 N    1.240    88 C    1.171
    88   6 C    3.958 --    89 C    1.656    87 C    1.171   107 H    0.973
    89   6 C    3.955 --    88 C    1.656    90 C    1.170   108 H    0.975
    90   6 C    3.916 --    56 C    1.362    91 N    1.229    89 C    1.170
    91   7 N    3.244 --    87 C    1.240    90 C    1.229    55 Cu   0.505
    92   1 H    1.001 --    56 C    0.971
    93   1 H    0.998 --    58 C    0.975
    94   1 H    1.004 --    59 C    0.973
    95   1 H    1.004 --    64 C    0.973
    96   1 H    1.013 --    65 C    0.972
    97   1 H    1.013 --    67 C    0.972
    98   1 H    1.004 --    68 C    0.973
    99   1 H    1.004 --    70 C    0.973
   100   1 H    1.002 --    71 C    0.974
   101   1 H    1.002 --    76 C    0.974
   102   1 H    1.004 --    77 C    0.973
   103   1 H    1.004 --    82 C    0.973
   104   1 H    1.013 --    83 C    0.972
   105   1 H    1.013 --    85 C    0.972
   106   1 H    1.004 --    86 C    0.973
   107   1 H    1.004 --    88 C    0.973
   108   1 H    0.998 --    89 C    0.975
   109   6 C    3.927 --   110 C    2.373   113 C    1.332   112 C    0.191
   110   6 C    3.927 --   109 C    2.373   111 C    1.332   114 C    0.191
   111   6 C    3.936 --   112 C    2.454   110 C    1.332
   112   6 C    3.892 --   111 C    2.454    20 C    1.187   109 C    0.191
   113   6 C    3.936 --   114 C    2.454   109 C    1.332
   114   6 C    3.892 --   113 C    2.454    74 C    1.187   110 C    0.191
 ---------------------------------------------------------------------------

           -------------------------------------------------
          | TOTAL ENERGY             -204.957038685002 Eh   |
          | GRADIENT NORM               0.000356564069 Eh/α |
          | HOMO-LUMO GAP               0.000030253936 eV   |
           -------------------------------------------------

 * finished run on 2022/07/30 at 04:51:45.302
