   * xtb version 6.5.1 (b24c23e) compiled by 'conda@728c89f4b128' on 2022-07-12
          program call               : xtb Ni_Ph2OMe_C2_2.xyz --gfn 1 --opt -T 48

   ID    Z sym.   atoms
    1   28 Ni     1, 73
    2    6 C      2-6, 8-11, 13-21, 23-27, 29-33, 36, 37, 39-43, 45, 74-78,
                  80-83, 85-93, 95-99, 101-105, 108, 109, 111-115, 117, 145,
                  146
    3    7 N      7, 12, 34, 35, 79, 84, 106, 107
    4    8 O      22, 28, 38, 44, 94, 100, 110, 116
    5    1 H      46-72, 118-144
########################################################################
[WARNING] Please study the warnings concerning your input carefully
-1- prog_main_parseArguments: Unknown option '-T' provided
########################################################################

          :  Hamiltonian                  GFN1-xTB          :
 * total energy  :  -256.8057863 Eh     change       -0.9316636E-10 Eh
 * total energy  :  -256.8930553 Eh     change       -0.8726903E-01 Eh
 * total energy  :  -256.9423074 Eh     change       -0.4925208E-01 Eh
 * total energy  :  -256.9586833 Eh     change       -0.1637596E-01 Eh
 * total energy  :  -256.9683347 Eh     change       -0.9651413E-02 Eh
 * total energy  :  -256.9736218 Eh     change       -0.5287030E-02 Eh
 * total energy  :  -256.9765966 Eh     change       -0.2974814E-02 Eh
 * total energy  :  -256.9786610 Eh     change       -0.2064384E-02 Eh
 * total energy  :  -256.9799141 Eh     change       -0.1253139E-02 Eh
 * total energy  :  -256.9807431 Eh     change       -0.8290228E-03 Eh
 * total energy  :  -256.9821910 Eh     change       -0.1466647E-04 Eh
 * total energy  :  -256.9822197 Eh     change       -0.2875169E-04 Eh
 * total energy  :  -256.9822384 Eh     change       -0.1870545E-04 Eh
 * total energy  :  -256.9822492 Eh     change       -0.1079274E-04 Eh
 * total energy  :  -256.9822598 Eh     change       -0.1055584E-04 Eh
 * total energy  :  -256.9822719 Eh     change       -0.1211677E-04 Eh
 * total energy  :  -256.9822817 Eh     change       -0.9773261E-05 Eh
 * total energy  :  -256.9822870 Eh     change       -0.5381668E-05 Eh
 * total energy  :  -256.9822916 Eh     change       -0.4540471E-05 Eh
   *** GEOMETRY OPTIMIZATION CONVERGED AFTER 34 ITERATIONS ***

 final structure:
================
146
 xtb: 6.5.1 (b24c23e)
Ni          15.74127889812408        0.03554126372094        0.05657240640692
C           12.34295025121479        0.09850389323420        0.05371331472644
C           13.00419852518410        0.86885570152577        0.98788043765540
C           12.33692867993674        1.68456995484578        1.95733853709031
C           13.30203218489934        2.34672486793028        2.63735988064756
C           14.55682063570593        1.93604686997462        2.08024835899235
N           14.36513563822080        1.01189565136856        1.08377038852705
C           15.77819702797305        2.46583046851889        2.46297339970328
C           16.98282186779221        2.06036866977178        1.91245049256839
C           18.24662339377985        2.62270001148424        2.27795200333361
C           19.19195987439381        1.93208051257875        1.59687906992918
N           17.15146828841342        1.04554834979715        0.99781803343245
C           18.50489479935291        0.94612006926984        0.82359720851115
C           19.16002086736015       -0.01697157254518        0.05219053793427
C           18.47143157402193       -0.96144987686383       -0.71287172274579
C           19.12506676282099       -1.97837470278249       -1.47442688606168
C           18.15768499237278       -2.64211785930419       -2.15071749789564
C           16.91350059295088       -2.02807391314562       -1.80061608080610
C           15.69535473595965       -2.39546872837152       -2.35280432389980
C           15.68310493151133       -3.44365317403932       -3.41061880962267
C           16.21998263382909       -3.17274511803273       -4.67645086100872
O           16.72078475522257       -1.92193634784282       -4.85274589827866
C           17.31245553722087       -1.55276331937106       -6.08169287435660
C           16.21082732049816       -4.15081418825185       -5.67035677261922
C           15.67002323972660       -5.39712147824316       -5.39252119735431
C           15.13576868702537       -5.68886334919760       -4.14661162291735
C           15.13998018119308       -4.70925491491657       -3.15392226097303
O           14.64678883919922       -4.90137315914729       -1.90201844494226
C           14.09892739211892       -6.15033619524818       -1.53237506317375
C           14.49181796834761       -1.82528870202254       -1.96556661022358
C           13.22389112365378       -2.17264172309406       -2.53640995877728
C           12.28366623971637       -1.47583818351698       -1.85672063535129
C           12.97872079868012       -0.69690462779522       -0.87690628952446
N           14.33332727522678       -0.89746383597138       -0.96647795100741
N           17.11522205184840       -1.01661785634109       -0.88900450760567
C           15.79683015940584        3.52905328777322        3.50963113191355
C           15.93077713987833        3.18758706682345        4.86019326048717
O           16.03528595163489        1.85949402916582        5.12725755204779
C           16.18071715793520        1.40748776921079        6.45826896703370
C           15.94939099762662        4.18282159172537        5.83746545114849
C           15.83426362255170        5.51117436753739        5.45612929250950
C           15.70035041057917        5.87101066402159        4.12346186256682
C           15.68146832675251        4.87573480078022        3.14646757586333
O           15.55620308281384        5.12019536894922        1.81560277336260
C           15.44519897609522        6.44601223040614        1.33964001367609
H           11.25924499960834        0.12093875439266        0.04935483796335
H           11.26645291092591        1.73346861576027        2.08096081034376
H           13.19270900011757        3.05756123999352        3.44084822289609
H           18.37788136548382        3.43957396506219        2.96924497271744
H           20.26135151791909        2.06605149463966        1.60803091450566
H           20.18860665105722       -2.15300380019151       -1.47835389048572
H           18.26414429047604       -3.47330641704016       -2.82862387816711
H           16.58914046989500       -1.59504252103529       -6.90518068375410
H           17.65368465350209       -0.52346336855307       -5.95691783183382
H           18.17202496019131       -2.19047213426056       -6.32125353511418
H           16.61842445115551       -3.95008169773832       -6.65211526518993
H           15.66466963214582       -6.15853313427381       -6.16477646309132
H           14.72200855935713       -6.67041245606497       -3.95783629978360
H           13.78957127232816       -6.04989339102592       -0.49037811433218
H           13.22460901192622       -6.40304871794749       -2.14458112895724
H           14.84116911148577       -6.95390158390183       -1.61175139740668
H           13.08690936785567       -2.86772462680599       -3.34894359385952
H           11.21317501512775       -1.47575105556455       -1.98944800569411
H           16.24962415880590        0.31948388745055        6.40401004054310
H           15.31517668136302        1.68323223319890        7.07303936405572
H           17.09350205972060        1.80353649807595        6.91967040040258
H           16.05199057123200        3.93290723526266        6.88500499709518
H           15.84903565844766        6.28486441617963        6.21603875088628
H           15.61200185010032        6.91561651385005        3.85638147755926
H           16.32854031386790        7.04178167348046        1.60012020908001
H           15.36963957527412        6.37352983802944        0.25309988254786
H           14.54722206127733        6.93962541626194        1.73090856478633
Ni          26.61510201286433       -0.05058892022303       -0.04348422977361
C           30.01343593801608       -0.03919069021712       -0.10512103217541
C           29.35218044010427       -0.85445966093959       -1.00035206134363
C           30.01944918422819       -1.69820607014905       -1.94551424425923
C           29.05434541576838       -2.27727060352027       -2.69755185660031
C           27.79955650460365       -1.78414919276344       -2.21189719233060
N           27.99124267486980       -0.92902429916722       -1.15558678023869
C           26.57818353547082       -2.08773503337701       -2.79068445591730
C           25.37355372166160       -1.60040239340910       -2.31113297726730
C           24.10975283261824       -1.88230532628596       -2.91968916984368
C           23.16441687489624       -1.30624398247206       -2.13932310194891
N           25.20490807508920       -0.83916569744143       -1.17670554681978
C           23.85148270241308       -0.68086528386569       -1.05351368963800
C           23.19636549236991       -0.05408206750147        0.00939184211358
C           23.88496156000414        0.56904995671464        1.05297134917755
C           23.23132532690125        1.17843539969063        2.16775967387892
C           24.19870630824232        1.75358308785768        2.92083903855434
C           25.44289190633568        1.49425209858006        2.26329273229595
C           26.66103464708607        1.98866136243646        2.70539890811770
C           26.67328169389026        2.88685930349266        3.89321253175993
C           26.13640831494838        4.17834013802025        3.80486044496383
O           25.63560750863097        4.53052628596573        2.59177828354444
C           25.04393707860648        5.79945260428731        2.40092177488045
C           26.14556471753373        5.02323279157029        4.91419582671988
C           26.68636442754318        4.57117456368100        6.10839980336781
C           27.22061399517242        3.29645530026569        6.22020311563494
C           27.21640232108292        2.45298568510421        5.10951709889129
O           27.70958507448362        1.18648302066338        5.12185640291426
C           28.25743916550726        0.64317017689680        6.30564865515286
C           27.86457426272435        1.68633819655657        2.08600410425127
C           29.13250004798065        2.20205335987112        2.51092270333994
C           30.07272569569252        1.62823838391155        1.72463442543747
C           29.37767222054898        0.76900056323901        0.81442335331062
N           28.02306413652757        0.82920570605444        1.02564722694804
N           25.24117040579239        0.73559036934508        1.13257847121143
C           26.55955518411752       -2.97274014635600       -3.99180934698058
C           26.42560762887507       -4.35811122429522       -3.84565526532543
O           26.32109859257180       -4.81112441642867       -2.56896673912860
C           26.17567463694226       -6.19284712969843       -2.31061679315257
C           26.40698935719759       -5.18409816752783       -4.96962046635387
C           26.52211422883812       -4.61793523737220       -6.23033384924796
C           26.65602883185040       -3.24766692033645       -6.39721454470312
C           26.67491337391150       -2.42196057030674       -5.27324784729628
O           26.80017969212683       -1.06986576937137       -5.32617969080308
C           26.91117927520213       -0.41039629177061       -6.57094188542152
H           31.09714112875014       -0.03168545587320       -0.12672121004274
H           31.08992526353422       -1.81362215947197       -2.01148367276666
H           29.16366890608727       -2.97162699342150       -3.51532336790259
H           23.97849419467946       -2.45054391381526       -3.82648213060678
H           22.09502581546424       -1.29824245116758       -2.27352517419438
H           22.16778354947255        1.15752722512049        2.34116838069183
H           24.09224631254688        2.30655189465695        3.83989090278848
H           25.76725199483480        6.60858413601866        2.55974936295528
H           24.70270784409205        5.82215554810301        1.36433524105372
H           24.18436754250521        5.94599753874011        3.06619345999682
H           25.73797067100138        6.02355105051623        4.85495765256344
H           26.69171927719766        5.22744015160455        6.97178916819037
H           27.63436810199529        2.97016245678782        7.16498492159478
H           28.56679092586305       -0.37399409433589        6.05821009108352
H           29.13175920444736        1.21326629208532        6.64276450759058
H           27.51519442166567        0.60759948260849        7.11233826513167
H           29.26948064112411        2.90761944048067        3.31437002896936
H           31.14321613277770        1.75964134963816        1.74339634131231
H           26.10677157504887       -6.29369197895788       -1.22593836926336
H           27.04121730637208       -6.76220770922556       -2.67089764457487
H           25.26289029568079       -6.59331410078136       -2.76818990659951
H           26.30438695531156       -6.25651517396268       -4.87104422307665
H           26.50733882479646       -5.26023530705955       -7.10412395477933
H           26.74437656182891       -2.83490764875306       -7.39328860172554
H           26.02783797594565       -0.58360903951431       -7.19767033880630
H           26.98673439924424        0.65483000335746       -6.34485186889572
H           27.80915651708882       -0.72757517283915       -7.11513140383147
C           20.57017328889329       -0.03503507862472        0.04305412994865
C           21.78621278844278       -0.04759306291259        0.02857537465179

          :  Hamiltonian                  GFN1-xTB          :
         :: total energy            -256.982291580665 Eh    ::
         :: gradient norm              0.000251109451 Eh/a0 ::
         :: HOMO-LUMO gap              1.221981983650 eV    ::
         :: SCC energy              -260.431469983747 Eh    ::
         :: repulsion energy           3.579490541632 Eh    ::

    * Orbital Energies and Occupations

         #    Occupation            Energy/Eh            Energy/eV
      -------------------------------------------------------------
         1        2.0000           -0.8048340             -21.9006
       ...           ...                  ...                  ...
       217        2.0000           -0.4098774             -11.1533
       218        2.0000           -0.3808415             -10.3632
       219        2.0000           -0.3807610             -10.3610
       220        2.0000           -0.3807049             -10.3595
       221        2.0000           -0.3804351             -10.3522
       222        2.0000           -0.3804266             -10.3519
       223        2.0000           -0.3795852             -10.3290
       224        2.0000           -0.3795822             -10.3290
       225        2.0000           -0.3785757             -10.3016
       226        2.0000           -0.3785752             -10.3016
       227        2.0000           -0.3785331             -10.3004
       228        2.0000           -0.3785320             -10.3004
       229        2.0000           -0.3670957              -9.9892 (HOMO)
       230                         -0.3221887              -8.7672 (LUMO)
       231                         -0.3111241              -8.4661
       232                         -0.3111186              -8.4660
       233                         -0.3106731              -8.4538
       234                         -0.3106709              -8.4538
       235                         -0.3062804              -8.3343
       236                         -0.2791247              -7.5954
       237                         -0.2704666              -7.3598
       238                         -0.2535931              -6.9006
       239                         -0.2535894              -6.9005
       240                         -0.2530087              -6.8847
       ...                                ...                  ...
       486                          1.3582974              36.9612
      -------------------------------------------------------------
                  HL-Gap            0.0449070 Eh            1.2220 eV

Wiberg/Mayer (AO) data.
largest (>0.10) Wiberg bond orders for each atom

     #   Z sym  total        # sym  WBO       # sym  WBO       # sym  WBO
 ---------------------------------------------------------------------------
     1  28 Ni   3.018 --    34 N    0.665    35 N    0.664     7 N    0.664
                            12 N    0.663
     2   6 C    3.935 --    33 C    1.364     3 C    1.362    46 H    0.971
     3   6 C    3.925 --     2 C    1.362     7 N    1.217     4 C    1.174
     4   6 C    3.960 --     5 C    1.650     3 C    1.174    47 H    0.976
     5   6 C    3.963 --     4 C    1.650     6 C    1.177    48 H    0.974
     6   6 C    3.919 --     8 C    1.333     7 N    1.217     5 C    1.177
     7   7 N    3.403 --     3 C    1.217     6 C    1.217     1 Ni   0.664
     8   6 C    3.939 --     9 C    1.338     6 C    1.333    36 C    1.001
     9   6 C    3.915 --     8 C    1.338    12 N    1.204    10 C    1.183
    10   6 C    3.960 --    11 C    1.637     9 C    1.183    49 H    0.974
    11   6 C    3.962 --    10 C    1.637    13 C    1.190    50 H    0.970
    12   7 N    3.408 --    13 C    1.239     9 C    1.204     1 Ni   0.663
    13   6 C    3.911 --    14 C    1.269    12 N    1.239    11 C    1.190
    14   6 C    3.945 --    15 C    1.270    13 C    1.269   145 C    1.168
    15   6 C    3.911 --    14 C    1.270    35 N    1.237    16 C    1.190
    16   6 C    3.962 --    17 C    1.638    15 C    1.190    51 H    0.970
    17   6 C    3.960 --    16 C    1.638    18 C    1.183    52 H    0.974
    18   6 C    3.915 --    19 C    1.333    35 N    1.205    17 C    1.183
    19   6 C    3.940 --    18 C    1.333    30 C    1.329    20 C    1.014
    20   6 C    3.977 --    27 C    1.344    21 C    1.342    19 C    1.014
                            25 C    0.101
    21   6 C    3.904 --    24 C    1.362    20 C    1.342    22 O    1.032
    22   8 O    2.146 --    21 C    1.032    23 C    0.935
    23   6 C    3.908 --    54 H    0.983    55 H    0.980    53 H    0.980
                            22 O    0.935
    24   6 C    3.983 --    25 C    1.442    21 C    1.362    56 H    0.969
    25   6 C    3.993 --    26 C    1.442    24 C    1.442    57 H    0.974
                            20 C    0.101
    26   6 C    3.983 --    25 C    1.442    27 C    1.361    58 H    0.969
    27   6 C    3.903 --    26 C    1.361    20 C    1.344    28 O    1.031
    28   8 O    2.145 --    27 C    1.031    29 C    0.936
    29   6 C    3.908 --    59 H    0.983    60 H    0.980    61 H    0.980
                            28 O    0.936
    30   6 C    3.919 --    19 C    1.329    34 N    1.219    31 C    1.177
    31   6 C    3.963 --    32 C    1.651    30 C    1.177    62 H    0.974
    32   6 C    3.960 --    31 C    1.651    33 C    1.174    63 H    0.975
    33   6 C    3.925 --     2 C    1.364    34 N    1.215    32 C    1.174
    34   7 N    3.403 --    30 C    1.219    33 C    1.215     1 Ni   0.665
    35   7 N    3.408 --    15 C    1.237    18 C    1.205     1 Ni   0.664
    36   6 C    3.978 --    37 C    1.348    43 C    1.348     8 C    1.001
                            41 C    0.102
    37   6 C    3.905 --    40 C    1.360    36 C    1.348    38 O    1.033
    38   8 O    2.145 --    37 C    1.033    39 C    0.936
    39   6 C    3.908 --    64 H    0.983    65 H    0.980    66 H    0.980
                            38 O    0.936
    40   6 C    3.983 --    41 C    1.444    37 C    1.360    67 H    0.969
    41   6 C    3.995 --    40 C    1.444    42 C    1.443    68 H    0.974
                            36 C    0.102
    42   6 C    3.983 --    41 C    1.443    43 C    1.360    69 H    0.969
    43   6 C    3.905 --    42 C    1.360    36 C    1.348    44 O    1.032
    44   8 O    2.145 --    43 C    1.032    45 C    0.936
    45   6 C    3.908 --    71 H    0.983    70 H    0.980    72 H    0.980
                            44 O    0.936
    46   1 H    1.001 --     2 C    0.971
    47   1 H    0.998 --     4 C    0.976
    48   1 H    1.002 --     5 C    0.974
    49   1 H    1.002 --    10 C    0.974
    50   1 H    1.006 --    11 C    0.970
    51   1 H    1.006 --    16 C    0.970
    52   1 H    1.002 --    17 C    0.974
    53   1 H    1.009 --    23 C    0.980
    54   1 H    1.015 --    23 C    0.983
    55   1 H    1.009 --    23 C    0.980
    56   1 H    1.000 --    24 C    0.969
    57   1 H    1.003 --    25 C    0.974
    58   1 H    1.000 --    26 C    0.969
    59   1 H    1.016 --    29 C    0.983
    60   1 H    1.009 --    29 C    0.980
    61   1 H    1.009 --    29 C    0.980
    62   1 H    1.002 --    31 C    0.974
    63   1 H    0.998 --    32 C    0.975
    64   1 H    1.015 --    39 C    0.983
    65   1 H    1.009 --    39 C    0.980
    66   1 H    1.009 --    39 C    0.980
    67   1 H    1.000 --    40 C    0.969
    68   1 H    1.003 --    41 C    0.974
    69   1 H    1.000 --    42 C    0.969
    70   1 H    1.009 --    45 C    0.980
    71   1 H    1.015 --    45 C    0.983
    72   1 H    1.009 --    45 C    0.980
    73  28 Ni   3.018 --   106 N    0.665   107 N    0.664    79 N    0.664
                            84 N    0.663
    74   6 C    3.935 --   105 C    1.364    75 C    1.362   118 H    0.971
    75   6 C    3.925 --    74 C    1.362    79 N    1.217    76 C    1.174
    76   6 C    3.960 --    77 C    1.650    75 C    1.174   119 H    0.976
    77   6 C    3.963 --    76 C    1.650    78 C    1.177   120 H    0.974
    78   6 C    3.919 --    80 C    1.333    79 N    1.217    77 C    1.177
    79   7 N    3.403 --    75 C    1.217    78 C    1.217    73 Ni   0.664
    80   6 C    3.939 --    81 C    1.338    78 C    1.333   108 C    1.001
    81   6 C    3.915 --    80 C    1.338    84 N    1.204    82 C    1.183
    82   6 C    3.960 --    83 C    1.637    81 C    1.183   121 H    0.974
    83   6 C    3.962 --    82 C    1.637    85 C    1.190   122 H    0.970
    84   7 N    3.408 --    85 C    1.239    81 C    1.204    73 Ni   0.663
    85   6 C    3.911 --    86 C    1.269    84 N    1.239    83 C    1.190
    86   6 C    3.945 --    87 C    1.270    85 C    1.269   146 C    1.168
    87   6 C    3.911 --    86 C    1.270   107 N    1.237    88 C    1.190
    88   6 C    3.962 --    89 C    1.638    87 C    1.190   123 H    0.970
    89   6 C    3.960 --    88 C    1.638    90 C    1.183   124 H    0.974
    90   6 C    3.915 --    91 C    1.333   107 N    1.205    89 C    1.183
    91   6 C    3.940 --    90 C    1.333   102 C    1.329    92 C    1.014
    92   6 C    3.977 --    99 C    1.344    93 C    1.342    91 C    1.014
                            97 C    0.101
    93   6 C    3.904 --    96 C    1.362    92 C    1.342    94 O    1.032
    94   8 O    2.146 --    93 C    1.032    95 C    0.935
    95   6 C    3.908 --   126 H    0.983   127 H    0.980   125 H    0.980
                            94 O    0.935
    96   6 C    3.983 --    97 C    1.442    93 C    1.362   128 H    0.969
    97   6 C    3.993 --    98 C    1.442    96 C    1.442   129 H    0.974
                            92 C    0.101
    98   6 C    3.983 --    97 C    1.442    99 C    1.361   130 H    0.969
    99   6 C    3.903 --    98 C    1.361    92 C    1.344   100 O    1.031
   100   8 O    2.145 --    99 C    1.031   101 C    0.936
   101   6 C    3.908 --   131 H    0.983   132 H    0.980   133 H    0.980
                           100 O    0.936
   102   6 C    3.919 --    91 C    1.329   106 N    1.219   103 C    1.177
   103   6 C    3.963 --   104 C    1.651   102 C    1.177   134 H    0.974
   104   6 C    3.960 --   103 C    1.651   105 C    1.174   135 H    0.975
   105   6 C    3.925 --    74 C    1.364   106 N    1.215   104 C    1.174
   106   7 N    3.403 --   102 C    1.219   105 C    1.215    73 Ni   0.665
   107   7 N    3.408 --    87 C    1.237    90 C    1.205    73 Ni   0.664
   108   6 C    3.978 --   109 C    1.348   115 C    1.348    80 C    1.001
                           113 C    0.102
   109   6 C    3.905 --   112 C    1.360   108 C    1.348   110 O    1.033
   110   8 O    2.145 --   109 C    1.033   111 C    0.936
   111   6 C    3.908 --   136 H    0.983   137 H    0.980   138 H    0.980
                           110 O    0.936
   112   6 C    3.983 --   113 C    1.444   109 C    1.360   139 H    0.969
   113   6 C    3.995 --   112 C    1.444   114 C    1.443   140 H    0.974
                           108 C    0.102
   114   6 C    3.983 --   113 C    1.443   115 C    1.360   141 H    0.969
   115   6 C    3.905 --   114 C    1.360   108 C    1.348   116 O    1.032
   116   8 O    2.145 --   115 C    1.032   117 C    0.936
   117   6 C    3.908 --   143 H    0.983   142 H    0.980   144 H    0.980
                           116 O    0.936
   118   1 H    1.001 --    74 C    0.971
   119   1 H    0.998 --    76 C    0.976
   120   1 H    1.002 --    77 C    0.974
   121   1 H    1.002 --    82 C    0.974
   122   1 H    1.006 --    83 C    0.970
   123   1 H    1.006 --    88 C    0.970
   124   1 H    1.002 --    89 C    0.974
   125   1 H    1.009 --    95 C    0.980
   126   1 H    1.015 --    95 C    0.983
   127   1 H    1.009 --    95 C    0.980
   128   1 H    1.000 --    96 C    0.969
   129   1 H    1.003 --    97 C    0.974
   130   1 H    1.000 --    98 C    0.969
   131   1 H    1.016 --   101 C    0.983
   132   1 H    1.009 --   101 C    0.980
   133   1 H    1.009 --   101 C    0.980
   134   1 H    1.002 --   103 C    0.974
   135   1 H    0.998 --   104 C    0.975
   136   1 H    1.015 --   111 C    0.983
   137   1 H    1.009 --   111 C    0.980
   138   1 H    1.009 --   111 C    0.980
   139   1 H    1.000 --   112 C    0.969
   140   1 H    1.003 --   113 C    0.974
   141   1 H    1.000 --   114 C    0.969
   142   1 H    1.009 --   117 C    0.980
   143   1 H    1.015 --   117 C    0.983
   144   1 H    1.009 --   117 C    0.980
   145   6 C    3.937 --   146 C    2.589    14 C    1.168
   146   6 C    3.937 --   145 C    2.589    86 C    1.168
 ---------------------------------------------------------------------------

           -------------------------------------------------
          | TOTAL ENERGY             -256.982291580665 Eh   |
          | GRADIENT NORM               0.000251109451 Eh/α |
          | HOMO-LUMO GAP               1.221981983650 eV   |
           -------------------------------------------------

 * finished run on 2022/07/30 at 09:21:25.836
