   * xtb version 6.5.1 (b24c23e) compiled by 'conda@728c89f4b128' on 2022-07-12
          program call               : xtb Cu_PhNH2_C8_2.xyz --gfn 1 --opt -T 48

   ID    Z sym.   atoms
    1   29 Cu     1, 61
    2    6 C      2-6, 8-12, 14-18, 20-25, 27-31, 33-38, 62-66, 68-72, 74-78,
                  80-85, 87-91, 93-98, 121-128
    3    7 N      7, 13, 19, 26, 32, 39, 67, 73, 79, 86, 92, 99
    4    1 H      40-60, 100-120
########################################################################
[WARNING] Please study the warnings concerning your input carefully
-1- prog_main_parseArguments: Unknown option '-T' provided
########################################################################

          :  Hamiltonian                  GFN1-xTB          :
 * total energy  :  -220.9694549 Eh     change       -0.8000711E-09 Eh
 * total energy  :  -221.7806356 Eh     change       -0.8111807E+00 Eh
 * total energy  :  -221.9216772 Eh     change       -0.1410416E+00 Eh
 * total energy  :  -221.9777802 Eh     change       -0.5610306E-01 Eh
 * total energy  :  -221.9990926 Eh     change       -0.2131235E-01 Eh
 * total energy  :  -222.0098846 Eh     change       -0.1079207E-01 Eh
 * total energy  :  -222.0180210 Eh     change       -0.8136377E-02 Eh
 * total energy  :  -222.0247230 Eh     change       -0.6701989E-02 Eh
 * total energy  :  -222.0302651 Eh     change       -0.5542060E-02 Eh
 * total energy  :  -222.0344864 Eh     change       -0.4221367E-02 Eh
 * total energy  :  -222.0534272 Eh     change       -0.2902095E-04 Eh
 * total energy  :  -222.0534492 Eh     change       -0.2196890E-04 Eh
 * total energy  :  -222.0534652 Eh     change       -0.1599885E-04 Eh
 * total energy  :  -222.0534736 Eh     change       -0.8436443E-05 Eh
 * total energy  :  -222.0534795 Eh     change       -0.5898368E-05 Eh
 * total energy  :  -222.0534856 Eh     change       -0.6130967E-05 Eh
 * total energy  :  -222.0534921 Eh     change       -0.6467225E-05 Eh
 * total energy  :  -222.0534985 Eh     change       -0.6453103E-05 Eh
 * total energy  :  -222.0535009 Eh     change       -0.2397686E-05 Eh
   *** GEOMETRY OPTIMIZATION CONVERGED AFTER 44 ITERATIONS ***

 final structure:
================
128
 xtb: 6.5.1 (b24c23e)
Cu          12.81547571483680        0.01675359637293       -0.00382225126520
C            9.41265309472508        0.12485591514754        0.08170762335060
C           10.05815741037435        1.22994540670272       -0.45308533072962
C            9.39473560427553        2.37103374078096       -1.01458950764739
C           10.36294832036400        3.22891587005552       -1.42330988503494
C           11.62710825087326        2.62463271981681       -1.10259618721479
N           11.41074334353893        1.40833911157394       -0.52232277132911
C           12.87834714612702        3.19253511994796       -1.36200803999468
C           12.90722570148568        4.55663242166859       -1.94132152267442
C           13.51683345682229        4.79507277260800       -3.17559615154286
C           13.54487902467290        6.06686619544237       -3.71965199621249
C           12.96260642682169        7.13583014624190       -3.03371870505625
N           13.03220623051506        8.41813960737110       -3.55056281735768
C           12.36182762169026        6.90824448043195       -1.79295229465286
C           12.32982357796029        5.63150231684347       -1.26080098890364
C           14.10368275877558        2.56988728577532       -1.11320547957349
C           15.38830365857067        3.18039108343588       -1.30629104480966
C           16.32362448724733        2.26237768243102       -0.95290060628718
N           14.27757461576990        1.29840881194205       -0.63247390732534
C           15.61825038623054        1.08967222352233       -0.53228500260649
C           16.24079968657292       -0.09253883497928       -0.09146659969836
C           15.56917765225156       -1.23359926643583        0.38301492159811
C           16.21910426397883       -2.44834965404579        0.77213210943802
C           15.24643097102569       -3.30384601725492        1.17855320973609
C           13.99505265470240       -2.61270070433333        1.04898537822958
N           14.22476472173732       -1.35630005469815        0.55264794308390
C           12.74666442139599       -3.15320679839115        1.36653406630889
C           12.71521630356131       -4.51192943607095        1.95847309366574
C           13.36596281252370       -4.77891973470283        3.16558559740622
C           13.33095034815043       -6.04324797083946        3.72641258404367
C           12.65282641596613       -7.07910909642310        3.07879553758413
N           12.58108191359874       -8.33495064352271        3.65673656125805
C           11.99739407326117       -6.82010413685989        1.87232554734599
C           12.02907793612003       -5.55032305671640        1.32369962228792
C           11.52273829628627       -2.50627615754762        1.16866913354802
C           10.24090494339310       -3.02652630218484        1.55958270341571
C            9.30923793768135       -2.11161328976689        1.19213248553001
C           10.01381031939492       -1.01798736385309        0.58791197718211
N           11.35429646838032       -1.28180207025339        0.58952358729485
H            8.32821518241876        0.15878141972233        0.10890963973002
H            8.32460460707621        2.48344128934178       -1.09191006224532
H           10.23825482581270        4.18164199516624       -1.91253851147945
H           13.95560278524484        3.96753156442474       -3.72238829588392
H           14.01592574475775        6.23798718763432       -4.68148426394843
H           13.16767602755115        8.46842111435774       -4.54765516746484
H           12.33442306292812        9.05592765297626       -3.20210735286536
H           11.92102460811500        7.73663978097376       -1.24912412382240
H           11.87086654060752        5.46491949899177       -0.29231909192874
H           15.55107438383112        4.18898423098053       -1.65011457975740
H           17.39690174371932        2.36567080122737       -0.96314663633064
H           17.28297145141814       -2.61898516223117        0.72735955664845
H           15.36127342771447       -4.32013166197681        1.51936735043522
H           13.88626566444698       -3.97793504809475        3.67940068330745
H           13.82974113818323       -6.23489088630166        4.67021116437150
H           13.31904360547306       -8.54597893710071        4.30941184743133
H           12.37669488020467       -9.08648043988033        3.01754631735752
H           11.46687740347311       -7.61942475285703        1.36637164509926
H           11.53275854557225       -5.36177885767964        0.37792415159993
H           10.08127443416077       -3.96547713810203        2.06485099651215
H            8.23958762501004       -2.15500647315336        1.32526167492050
Cu          31.40646519457073       -0.01330910549976        0.01421245383437
C           34.80930071648019       -0.00121384448605        0.14767526240384
C           34.16465246296460       -1.05785717747365        0.77364923766969
C           34.82902216327066       -2.15611562713095        1.41389395676416
C           33.86153532897357       -2.97115955446420        1.90393691577446
C           32.59685957932267       -2.37041863167845        1.57863463695033
N           32.81220700742389       -1.21456203539614        0.88537278329872
C           31.34608122304695       -2.90054521255152        1.91020633922368
C           31.31801972070988       -4.13731412443990        2.72683690745335
C           30.70740698862242       -5.29739010506567        2.24378617394518
C           30.67937317909346       -6.45380746277103        3.00281567386534
C           31.26255323088702       -6.47342303889539        4.27237594483183
N           31.19243689644763       -7.61272025554602        5.05541142740931
C           31.86465838178448       -5.31404410042269        4.76793904939125
C           31.89673060785528       -4.16483694039128        3.99813111184691
C           30.12021601726369       -2.34913959628839        1.53022632936103
C           28.83607972108903       -2.84698496817956        1.93452099651797
C           27.89999803050803       -2.04582942357382        1.36495595325590
N           29.94526617833882       -1.24648019924223        0.73555847130052
C           28.60441622182926       -1.04803298023786        0.61802905514852
C           27.98121467195812       -0.02804237247311       -0.12401331881095
C           28.65215693612702        0.99815841683335       -0.81330450995172
C           28.00110066457918        1.99374620367076       -1.60977695456086
C           28.97294578096698        2.80601683891834       -2.09851295165395
C           30.22494576409417        2.31651239023708       -1.59526934233909
N           29.99640043274310        1.20823285715043       -0.82249158548902
C           31.47283786415754        2.88041883045859       -1.87131318681845
C           31.50345552696776        4.12428632841318       -2.67706985798774
C           30.85191685294388        5.27788941744916       -2.23364007439083
C           30.88715723181832        6.44358753250218       -2.97807705782240
C           31.56649478722180        6.47598919178828       -4.19863812914633
N           31.63903838098669        7.65153692779374       -4.92608577205329
C           32.22231230426207        5.32723815322166       -4.64858343075701
C           32.19020537346718        4.16863717402746       -3.89296920616157
C           32.69732289863648        2.35833123726466       -1.44256860395329
C           33.97881973524502        2.97203072922980       -1.66103333602940
C           34.91116423104437        2.16033983284765       -1.10249159505796
C           34.20734865759245        1.05213887290388       -0.52450640621471
N           32.86665580471682        1.19904146839199       -0.74222486062246
H           35.89377455829958        0.00302671241964        0.19009550137937
H           35.89924484840767       -2.28225329944178        1.46402926374785
H           33.98705366232186       -3.90527567815174        2.42762975172025
H           30.26770626638740       -5.29531200672479        1.25233059273951
H           30.20746884692200       -7.34962495661840        2.61409310431001
H           31.05713542584816       -8.47170247231636        4.54661088761680
H           31.88889630217781       -7.67457861035290        5.78077421549442
H           32.30634093348592       -5.31909288491457        5.75849159303100
H           32.35670829425027       -3.26604746002935        4.39429671335192
H           28.67420606373543       -3.69003193037654        2.58647322638353
H           26.82681483728339       -2.11125884766218        1.44683831646912
H           26.93709086364969        2.05027148995780       -1.77592564087043
H           28.85698497099653        3.65199380930163       -2.75658492025338
H           30.33086864907206        5.26393736546566       -1.28252927527865
H           30.38774353418547        7.33611187173709       -2.61716245281781
H           30.90139565355959        8.31245501531432       -4.74139040562649
H           31.84411511830532        7.53378916980178       -5.90544550822709
H           32.75354086054785        5.34682999861506       -5.59397545338894
H           32.68681268163122        3.27606458424911       -4.25776293730225
H           34.13779802864199        3.91218292271765       -2.16426774060300
H           35.98080418884313        2.29556933175890       -1.06594660706799
C           17.64495431044703       -0.12851946664914       -0.12542799929329
C           18.86919822745830       -0.13749683886827       -0.15923601940182
C           20.21159026030948       -0.13685569186750       -0.18564975302775
C           21.44215186010702       -0.12223728028019       -0.20658714171161
C           22.77986373165167       -0.10070769651171       -0.21682864622408
C           24.01041952498040       -0.07401222205686       -0.21546425605192
C           25.35281709018903       -0.05423129941235       -0.19945585514853
C           26.57711299693630       -0.03630337361154       -0.17410358849324

          :  Hamiltonian                  GFN1-xTB          :
         :: total energy            -222.053500941080 Eh    ::
         :: gradient norm              0.000415552980 Eh/a0 ::
         :: HOMO-LUMO gap              0.003965215994 eV    ::
         :: SCC energy              -225.644865649662 Eh    ::
         :: repulsion energy           3.702188559884 Eh    ::

    * Orbital Energies and Occupations

         #    Occupation            Energy/Eh            Energy/eV
      -------------------------------------------------------------
         1        2.0000           -0.7778486             -21.1663
       ...           ...                  ...                  ...
       194        2.0000           -0.4009139             -10.9094
       195        2.0000           -0.4008815             -10.9085
       196        2.0000           -0.4008432             -10.9075
       197        2.0000           -0.3993840             -10.8678
       198        2.0000           -0.3987804             -10.8514
       199        2.0000           -0.3961166             -10.7789
       200        2.0000           -0.3955042             -10.7622
       201        2.0000           -0.3954954             -10.7620
       202        2.0000           -0.3880844             -10.5603
       203        2.0000           -0.3880816             -10.5602
       204        2.0000           -0.3794677             -10.3258
       205        2.0000           -0.3721032             -10.1254
       206        1.0383           -0.3483994              -9.4804 (HOMO)
       207        0.9617           -0.3482536              -9.4765 (LUMO)
       208                         -0.3308096              -9.0018
       209                         -0.3209173              -8.7326
       210                         -0.3194257              -8.6920
       211                         -0.3194245              -8.6920
       212                         -0.2935803              -7.9887
       213                         -0.2915390              -7.9332
       214                         -0.2845554              -7.7431
       215                         -0.2659220              -7.2361
       216                         -0.2559619              -6.9651
       217                         -0.2559555              -6.9649
       ...                                ...                  ...
       438                          1.6137495              43.9124
      -------------------------------------------------------------
                  HL-Gap            0.0001457 Eh            0.0040 eV

Wiberg/Mayer (AO) data.
largest (>0.10) Wiberg bond orders for each atom

     #   Z sym  total        # sym  WBO       # sym  WBO       # sym  WBO
 ---------------------------------------------------------------------------
     1  29 Cu   2.183 --    39 N    0.504     7 N    0.503    19 N    0.502
                            26 N    0.501
     2   6 C    3.926 --    38 C    1.361     3 C    1.360    40 H    0.971
     3   6 C    3.919 --     2 C    1.360     7 N    1.229     4 C    1.173
     4   6 C    3.954 --     5 C    1.652     3 C    1.173    41 H    0.976
     5   6 C    3.958 --     4 C    1.652     6 C    1.175    42 H    0.973
     6   6 C    3.911 --     8 C    1.314     7 N    1.242     5 C    1.175
     7   7 N    3.242 --     6 C    1.242     3 C    1.229     1 Cu   0.503
     8   6 C    3.934 --    16 C    1.326     6 C    1.314     9 C    1.034
     9   6 C    3.988 --    15 C    1.381    10 C    1.380     8 C    1.034
    10   6 C    3.988 --    11 C    1.469     9 C    1.380    43 H    0.973
    11   6 C    3.990 --    10 C    1.469    12 C    1.354    44 H    0.972
    12   6 C    3.952 --    14 C    1.354    11 C    1.354    13 N    1.115
    13   7 N    3.134 --    12 C    1.115    45 H    0.934    46 H    0.934
    14   6 C    3.989 --    15 C    1.468    12 C    1.354    47 H    0.972
    15   6 C    3.987 --    14 C    1.468     9 C    1.381    48 H    0.973
    16   6 C    3.907 --     8 C    1.326    19 N    1.221    17 C    1.181
    17   6 C    3.955 --    18 C    1.640    16 C    1.181    49 H    0.973
    18   6 C    3.956 --    17 C    1.640    20 C    1.188    50 H    0.974
    19   7 N    3.246 --    20 C    1.258    16 C    1.221     1 Cu   0.502
    20   6 C    3.897 --    19 N    1.258    21 C    1.255    18 C    1.188
    21   6 C    3.936 --    22 C    1.257    20 C    1.255   121 C    1.192
    22   6 C    3.898 --    26 N    1.258    21 C    1.257    23 C    1.189
    23   6 C    3.956 --    24 C    1.640    22 C    1.189    51 H    0.974
    24   6 C    3.955 --    23 C    1.640    25 C    1.181    52 H    0.973
    25   6 C    3.907 --    27 C    1.325    26 N    1.221    24 C    1.181
    26   7 N    3.246 --    22 C    1.258    25 C    1.221     1 Cu   0.501
    27   6 C    3.934 --    25 C    1.325    35 C    1.314    28 C    1.034
    28   6 C    3.988 --    34 C    1.381    29 C    1.381    27 C    1.034
    29   6 C    3.988 --    30 C    1.469    28 C    1.381    53 H    0.973
    30   6 C    3.990 --    29 C    1.469    31 C    1.354    54 H    0.972
    31   6 C    3.952 --    30 C    1.354    33 C    1.354    32 N    1.115
    32   7 N    3.134 --    31 C    1.115    56 H    0.934    55 H    0.933
    33   6 C    3.989 --    34 C    1.468    31 C    1.354    57 H    0.972
    34   6 C    3.987 --    33 C    1.468    28 C    1.381    58 H    0.973
    35   6 C    3.911 --    27 C    1.314    39 N    1.241    36 C    1.175
    36   6 C    3.958 --    37 C    1.652    35 C    1.175    59 H    0.973
    37   6 C    3.954 --    36 C    1.652    38 C    1.173    60 H    0.976
    38   6 C    3.919 --     2 C    1.361    39 N    1.228    37 C    1.173
    39   7 N    3.242 --    35 C    1.241    38 C    1.228     1 Cu   0.504
    40   1 H    1.002 --     2 C    0.971
    41   1 H    0.998 --     4 C    0.976
    42   1 H    1.006 --     5 C    0.973
    43   1 H    1.005 --    10 C    0.973
    44   1 H    0.999 --    11 C    0.972
    45   1 H    0.961 --    13 N    0.934
    46   1 H    0.961 --    13 N    0.934
    47   1 H    0.999 --    14 C    0.972
    48   1 H    1.005 --    15 C    0.973
    49   1 H    1.005 --    17 C    0.973
    50   1 H    1.002 --    18 C    0.974
    51   1 H    1.002 --    23 C    0.974
    52   1 H    1.005 --    24 C    0.973
    53   1 H    1.005 --    29 C    0.973
    54   1 H    0.999 --    30 C    0.972
    55   1 H    0.961 --    32 N    0.933
    56   1 H    0.961 --    32 N    0.934
    57   1 H    0.999 --    33 C    0.972
    58   1 H    1.005 --    34 C    0.973
    59   1 H    1.005 --    36 C    0.973
    60   1 H    0.998 --    37 C    0.976
    61  29 Cu   2.183 --    99 N    0.504    67 N    0.504    79 N    0.502
                            86 N    0.501
    62   6 C    3.926 --    98 C    1.361    63 C    1.360   100 H    0.971
    63   6 C    3.919 --    62 C    1.360    67 N    1.229    64 C    1.173
    64   6 C    3.954 --    65 C    1.652    63 C    1.173   101 H    0.976
    65   6 C    3.958 --    64 C    1.652    66 C    1.175   102 H    0.973
    66   6 C    3.911 --    68 C    1.314    67 N    1.241    65 C    1.175
    67   7 N    3.242 --    66 C    1.241    63 C    1.229    61 Cu   0.504
    68   6 C    3.934 --    76 C    1.326    66 C    1.314    69 C    1.034
    69   6 C    3.988 --    75 C    1.381    70 C    1.380    68 C    1.034
    70   6 C    3.988 --    71 C    1.469    69 C    1.380   103 H    0.973
    71   6 C    3.990 --    70 C    1.469    72 C    1.354   104 H    0.972
    72   6 C    3.952 --    74 C    1.354    71 C    1.354    73 N    1.115
    73   7 N    3.134 --    72 C    1.115   106 H    0.934   105 H    0.934
    74   6 C    3.989 --    75 C    1.468    72 C    1.354   107 H    0.972
    75   6 C    3.987 --    74 C    1.468    69 C    1.381   108 H    0.973
    76   6 C    3.907 --    68 C    1.326    79 N    1.221    77 C    1.181
    77   6 C    3.955 --    78 C    1.640    76 C    1.181   109 H    0.973
    78   6 C    3.956 --    77 C    1.640    80 C    1.188   110 H    0.974
    79   7 N    3.246 --    80 C    1.258    76 C    1.221    61 Cu   0.502
    80   6 C    3.898 --    79 N    1.258    81 C    1.256    78 C    1.188
    81   6 C    3.936 --    82 C    1.257    80 C    1.256   128 C    1.192
    82   6 C    3.898 --    86 N    1.258    81 C    1.257    83 C    1.189
    83   6 C    3.956 --    84 C    1.640    82 C    1.189   111 H    0.974
    84   6 C    3.955 --    83 C    1.640    85 C    1.181   112 H    0.973
    85   6 C    3.907 --    87 C    1.325    86 N    1.221    84 C    1.181
    86   7 N    3.246 --    82 C    1.258    85 C    1.221    61 Cu   0.501
    87   6 C    3.934 --    85 C    1.325    95 C    1.314    88 C    1.034
    88   6 C    3.988 --    94 C    1.381    89 C    1.381    87 C    1.034
    89   6 C    3.988 --    90 C    1.469    88 C    1.381   113 H    0.973
    90   6 C    3.990 --    89 C    1.469    91 C    1.354   114 H    0.972
    91   6 C    3.952 --    93 C    1.354    90 C    1.354    92 N    1.115
    92   7 N    3.134 --    91 C    1.115   116 H    0.934   115 H    0.933
    93   6 C    3.989 --    94 C    1.468    91 C    1.354   117 H    0.972
    94   6 C    3.987 --    93 C    1.468    88 C    1.381   118 H    0.973
    95   6 C    3.911 --    87 C    1.314    99 N    1.241    96 C    1.175
    96   6 C    3.958 --    97 C    1.652    95 C    1.175   119 H    0.973
    97   6 C    3.954 --    96 C    1.652    98 C    1.173   120 H    0.976
    98   6 C    3.919 --    62 C    1.361    99 N    1.229    97 C    1.173
    99   7 N    3.242 --    95 C    1.241    98 C    1.229    61 Cu   0.504
   100   1 H    1.002 --    62 C    0.971
   101   1 H    0.998 --    64 C    0.976
   102   1 H    1.006 --    65 C    0.973
   103   1 H    1.005 --    70 C    0.973
   104   1 H    0.999 --    71 C    0.972
   105   1 H    0.961 --    73 N    0.934
   106   1 H    0.961 --    73 N    0.934
   107   1 H    0.999 --    74 C    0.972
   108   1 H    1.005 --    75 C    0.973
   109   1 H    1.005 --    77 C    0.973
   110   1 H    1.002 --    78 C    0.974
   111   1 H    1.002 --    83 C    0.974
   112   1 H    1.005 --    84 C    0.973
   113   1 H    1.005 --    89 C    0.973
   114   1 H    0.999 --    90 C    0.972
   115   1 H    0.961 --    92 N    0.933
   116   1 H    0.961 --    92 N    0.934
   117   1 H    0.999 --    93 C    0.972
   118   1 H    1.005 --    94 C    0.973
   119   1 H    1.005 --    96 C    0.973
   120   1 H    0.998 --    97 C    0.976
   121   6 C    3.877 --   122 C    2.438    21 C    1.192   124 C    0.187
   122   6 C    3.934 --   121 C    2.438   123 C    1.345
   123   6 C    3.893 --   124 C    2.336   122 C    1.345   126 C    0.182
   124   6 C    3.925 --   123 C    2.336   125 C    1.369   121 C    0.187
   125   6 C    3.925 --   126 C    2.336   124 C    1.369   128 C    0.187
   126   6 C    3.893 --   125 C    2.336   127 C    1.345   123 C    0.182
   127   6 C    3.934 --   128 C    2.438   126 C    1.345
   128   6 C    3.877 --   127 C    2.438    81 C    1.192   125 C    0.187
 ---------------------------------------------------------------------------

           -------------------------------------------------
          | TOTAL ENERGY             -222.053500941080 Eh   |
          | GRADIENT NORM               0.000415552980 Eh/α |
          | HOMO-LUMO GAP               0.003965215994 eV   |
           -------------------------------------------------

 * finished run on 2022/07/30 at 07:45:09.989
