   * xtb version 6.5.1 (b24c23e) compiled by 'conda@728c89f4b128' on 2022-07-12
          program call               : xtb m-CP_C8_3.xyz --gfn 1 --opt -T 48

   ID    Z sym.   atoms
    1    6 C      1-5, 7-11, 14-19, 21-26, 28-34, 37-41, 64-68, 70-74, 77-82,
                  84-89, 91-97, 100-104, 127-147, 149-153, 156-161, 163-168,
                  170-176, 179-183
    2    7 N      6, 20, 27, 42, 69, 83, 90, 105, 148, 162, 169, 184
    3    8 O      12, 13, 35, 36, 75, 76, 98, 99, 154, 155, 177, 178
    4    1 H      43-63, 106-126, 185-204

          :  Hamiltonian                  GFN1-xTB          :
 * total energy  :  -374.5056985 Eh     change       -0.3069601E-08 Eh
 * total energy  :  -376.2242094 Eh     change       -0.1718511E+01 Eh
 * total energy  :  -376.5618481 Eh     change       -0.3376387E+00 Eh
 * total energy  :  -376.7344896 Eh     change       -0.1726415E+00 Eh
 * total energy  :  -376.8548988 Eh     change       -0.1204092E+00 Eh
 * total energy  :  -376.9484226 Eh     change       -0.9352382E-01 Eh
 * total energy  :  -377.0104564 Eh     change       -0.6203381E-01 Eh
 * total energy  :  -377.0484566 Eh     change       -0.3800011E-01 Eh
 * total energy  :  -377.0756157 Eh     change       -0.2715919E-01 Eh
 * total energy  :  -377.0932597 Eh     change       -0.1764395E-01 Eh
 * total energy  :  -377.1471009 Eh     change       -0.2305660E-04 Eh
 * total energy  :  -377.1471232 Eh     change       -0.2227792E-04 Eh
 * total energy  :  -377.1471391 Eh     change       -0.1597375E-04 Eh
 * total energy  :  -377.1471497 Eh     change       -0.1058441E-04 Eh
 * total energy  :  -377.1471575 Eh     change       -0.7795768E-05 Eh
 * total energy  :  -377.1471654 Eh     change       -0.7885425E-05 Eh
 * total energy  :  -377.1471642 Eh     change        0.1152309E-05 Eh
 * total energy  :  -377.1471704 Eh     change       -0.6113414E-05 Eh
 * total energy  :  -377.1471744 Eh     change       -0.4070889E-05 Eh
   *** GEOMETRY OPTIMIZATION CONVERGED AFTER 91 ITERATIONS ***

 final structure:
================
204
 xtb: 6.5.1 (b24c23e)
C           23.66543934909856       -0.12335134383361       -0.22252868514966
C           24.23880048886376        1.10278575720900       -0.53338267125554
C           23.55204990875231        2.31708888384647       -0.81529331612636
C           24.48696771132086        3.27931894298953       -1.07427077233509
C           25.77522008770789        2.68120058559573       -0.96752919925802
N           25.57465747350379        1.37233134054024       -0.63332808342179
C           27.02088442821486        3.29473073335631       -1.14026852143800
C           27.00603346786283        4.73060763404891       -1.51710481067484
C           27.56293384091141        5.68821927721323       -0.67437500773271
C           27.54105668942893        7.03738005871486       -1.02553993889550
C           28.14224809596592        8.01229091563953       -0.08067564929748
O           28.06565847248643        9.28313807254039       -0.50162251768704
O           28.65353597280061        7.71585846533159        0.96854320751230
C           26.96393638439111        7.43709037925056       -2.23082099862986
C           26.41154003941171        6.48497451926557       -3.07298955859836
C           26.42841524230284        5.14281532525341       -2.72016975370215
C           28.25701380950002        2.66459637051027       -0.98446897353892
C           29.53428734305687        3.31570777840512       -1.21593918566636
C           30.48462527452414        2.39128902549164       -0.96775887901289
N           28.45255700178721        1.36673485223249       -0.62192905128516
C           29.78661355080130        1.17586706084694       -0.59442995729509
C           30.46077884046467       -0.01457809020943       -0.25411257047173
C           29.86087429401278       -1.24177035399852        0.08808558717218
C           30.54094742048433       -2.43243800265289        0.45729568719729
C           29.60191132017662       -3.39349567020737        0.71055217763589
C           28.31808305506185       -2.81995537132891        0.49473808258415
N           28.52674522926379       -1.51703974429034        0.12676085434123
C           27.07363421773455       -3.43926887137615        0.65100169049076
C           27.08494676790478       -4.87114761843918        1.03921302499444
C           27.68410884916004       -5.82617825803805        0.21475431969335
C           27.69375085973960       -7.16641342813253        0.57581484154718
C           27.10862565400054       -7.56987637769946        1.76426584391300
C           26.50795092597982       -6.62493660914150        2.59756190955605
C           25.89235604138840       -7.09683853800525        3.86355797220370
O           25.34153386817809       -6.11479668911532        4.59135638311349
O           25.87571213792907       -8.24615679811102        4.22319565197067
C           26.49621830293720       -5.27997345309046        2.23423027944849
C           25.83636554407830       -2.81151177556344        0.47338614031989
C           24.55181466641528       -3.48399218398091        0.59478911630015
C           23.60845183904092       -2.55188959869212        0.35319002200942
C           24.31532190634496       -1.31431222474706        0.07312538594991
N           25.65474046945113       -1.51026878490602        0.14646878402284
H           22.58036205615315       -0.14417293789834       -0.21301116855625
H           22.47945542347506        2.42801080308934       -0.81111125145216
H           24.30653062111548        4.31560783333946       -1.31002340785559
H           26.31910964067757        0.70200118579848       -0.47309134574202
H           28.00585926798567        5.39667395509276        0.27164395734433
H           28.47709685331554        9.85456104542186        0.16703229900430
H           26.94982741953579        8.48549109938211       -2.50293969742474
H           25.96448341585798        6.78807398367757       -4.01303202677645
H           26.00466093224942        4.40220621399392       -3.38933181400502
H           29.66344673886519        4.33705531802497       -1.53538608965781
H           31.55614218055722        2.49353607548322       -1.03040079334587
H           31.61245913484932       -2.52985759452789        0.52437900363146
H           29.77976314943513       -4.40736524346607        1.02997145335884
H           27.78500081405279       -0.85411089345868       -0.07321176399674
H           28.12966223997205       -5.51529836419659       -0.72366877424930
H           28.15871757084105       -7.89652201235503       -0.07678416692289
H           27.10755128428036       -8.61242662293440        2.06163935744839
H           24.96357548173895       -6.50280182370798        5.39714713456648
H           26.04194362232388       -4.54660548987942        2.88987691702636
H           24.41553068923265       -4.52913535567388        0.82151023799134
H           22.53537592031584       -2.66195913017459        0.34940677618562
C           67.59298385820992        0.03233907977577       -0.28707018085571
C           67.01690657594601       -1.21189329196726       -0.06590946933076
C           67.70139800363701       -2.43674936666614        0.17244339588135
C           66.76462180492665       -3.41846025545149        0.33292246939601
C           65.47735821045205       -2.82634495122012        0.18779152944212
N           65.68044348300192       -1.49565112590745       -0.04272212565596
C           64.23016470369167       -3.45440573209035        0.27917304526384
C           64.23969148147138       -4.91914704794683        0.51884490627385
C           63.66584757178216       -5.44957664220544        1.67085409567390
C           63.67958159943267       -6.82493427496302        1.89894292996329
C           63.05763064389090       -7.32914471256390        3.14945844582031
O           63.12235824706668       -8.66209845775578        3.28018775056682
O           62.53942421944294       -6.62935664033063        3.98125192190418
C           64.26689481911978       -7.68227986587083        0.96858901596346
C           64.83693655605531       -7.15679632419035       -0.18026581418273
C           64.82693114304396       -5.78720815661416       -0.40457209638006
C           62.99580047029614       -2.81154612550709        0.16532883907811
C           61.71654698477905       -3.49746456460431        0.21068644703344
C           60.76896701305947       -2.54801193700467        0.06959404917433
N           62.80414517576780       -1.47637990529548       -0.02059742781700
C           61.47060180745014       -1.28629937345370       -0.07012495274550
C           60.79975279139521       -0.05581395484809       -0.22312667250067
C           61.40271742155785        1.20453192250245       -0.39844105089243
C           60.72595657125841        2.44617691683267       -0.52764269853942
C           61.66697943051838        3.42447934765627       -0.69177282347837
C           62.94855055826858        2.80716235944787       -0.67658170714808
N           62.73688847632221        1.46689662206138       -0.48876109103851
C           64.19405299657163        3.43171208459457       -0.80008091961819
C           64.18466143457937        4.89826198564622       -1.02406179080509
C           63.57157448667219        5.43941923627385       -2.15638991574408
C           63.56123345978510        6.81118558305165       -2.36787753840079
C           64.15924828083600        7.65976663987952       -1.45143272611265
C           64.77397847833774        7.13141779488607       -0.31521246578161
C           65.40195278200893        8.07405858422032        0.64462615788130
O           65.96350575190856        7.46948774248555        1.70139957185326
O           65.41913119491066        9.27062401541985        0.50843120634366
C           64.78686740930225        5.75429544188733       -0.10417208202430
C           65.42946269389766        2.78034103773181       -0.72428689682254
C           66.71503861237620        3.43852147101694       -0.90022167366113
C           67.65585070994757        2.48445596433882       -0.75241209561206
C           66.94619312978678        1.24287299986339       -0.49807614222724
N           65.60767852831572        1.45748593775267       -0.49728435194826
H           68.67812463143935        0.05134044882031       -0.29407661766353
H           68.77387791518485       -2.53868878250355        0.21914016598393
H           66.94341706869517       -4.46057771565242        0.54271013694932
H           64.93702091293018       -0.81688369783174       -0.16856232358619
H           63.21532974120957       -4.79701197594868        2.41066996352964
H           62.69640126092869       -8.91065546093594        4.11668976338363
H           64.27487767367086       -8.75077609806217        1.14649145236258
H           65.29196255566468       -7.81754438581125       -0.90950046637402
H           65.26320850480487       -5.38466540643772       -1.31202308081455
H           61.58401871339942       -4.56125506727325        0.32285641501730
H           59.69715665539514       -2.66380014515938        0.05192947582611
H           59.65528316610603        2.56656528607473       -0.49181165122983
H           61.49208130754376        4.48219414318477       -0.80253510849033
H           63.47691365585806        0.77641574966459       -0.41634913069082
H           63.11514746296353        4.77633025065422       -2.88288346704312
H           63.08515436036634        7.21588023379379       -3.25369931692336
H           64.15937205916970        8.73359202946238       -1.60055984165371
H           66.34893978474324        8.14968097255681        2.27715460824975
H           65.25212912946562        5.34790758468008        0.78599992021177
H           66.85345302866412        4.48518010838225       -1.11862496088851
H           68.72879547806866        2.57883515044128       -0.81183779711634
C           31.86571912149245        0.01032621085655       -0.24550351821775
C           33.09041800554353        0.01986795146632       -0.22845000967131
C           34.43233094189677        0.03010845044057       -0.20466346745400
C           35.66291935223364        0.03220476698307       -0.17392161698996
C           36.99977408399167        0.03165952858951       -0.13814499449444
C           38.23016886945204        0.02766684512146       -0.09776419941972
C           39.57142485892035        0.02183805727479       -0.05683349687901
C           40.79586629125781        0.01232687623511       -0.01891915971754
C           50.46485683057515       -0.02116013417602        0.02012040171603
C           51.68960863457365       -0.03158321840576       -0.00912902777214
C           53.03103474282285       -0.03950103815338       -0.03962580848101
C           54.26157155775124       -0.05266294901699       -0.07281398035414
C           55.59829506623664       -0.06152375355221       -0.10694354894982
C           56.82877097343027       -0.06998723393680       -0.13956042846137
C           58.17043100762110       -0.07059793274775       -0.17131204168402
C           59.39500178147402       -0.07093769540102       -0.19814177692329
C           42.19940990106949        0.00455142089714        0.01648737302243
C           42.82908091702065        1.24979965435247        0.20796740776729
C           42.18367869964569        2.50423792624442        0.35909475629685
C           43.14987485520050        3.45409934294664        0.54946674386787
C           44.41391433451503        2.80424301099867        0.52551401822570
N           44.16947318450723        1.47495903824081        0.30735723005508
C           45.67409442454522        3.39636554209774        0.67249246467071
C           45.68825343414956        4.85616454862406        0.94357050284750
C           46.28746226427230        5.73652482393963        0.04733519314661
C           46.30148878418917        7.10675102982355        0.30490822248207
C           46.95312128869815        7.99488331925351       -0.69074803899281
O           46.92107455106338        9.29218892570816       -0.35324657561035
O           47.46764377117284        7.61154661950897       -1.70984523361187
C           45.71568993085425        7.60577756356688        1.46817151980701
C           45.11836875498793        6.73103071443388        2.36205330304815
C           45.10133894802647        5.36767019429475        2.10334100506947
C           46.89913927810055        2.73450429425493        0.58222323006559
C           48.18546567158071        3.37954300211261        0.77859603220626
C           49.12244422344528        2.42690271967643        0.59483390769200
N           47.07551437007593        1.41184171862822        0.31069507862833
C           48.40685771019724        1.20055295829283        0.30181972408140
C           49.06111939370882       -0.02099491325912        0.04388947772699
C           48.43166683436629       -1.25834995737711       -0.19419285381381
C           49.07803577428880       -2.49101193310352       -0.46942491853149
C           48.11208129626742       -3.44798719250155       -0.61987709035723
C           46.84698320691332       -2.82666552614181       -0.43390405140906
N           47.09091895281398       -1.50201491628420       -0.18852162681947
C           45.58643185163327       -3.43207338593191       -0.50545484572876
C           45.57394306726307       -4.89674571709646       -0.74759730258956
C           44.96922286862586       -5.42091129812684       -1.89227361122087
C           44.96138928561054       -6.78934843935442       -2.12400844056005
C           45.55519749422749       -7.65110889844475       -1.21705520029556
C           46.16255105510356       -7.13955918713786       -0.06932475456510
C           46.79049629564009       -8.09497894189751        0.87782417310940
O           47.35927015355152       -7.50381003331731        1.93849276790496
O           46.80384607114517       -9.28985546909601        0.72785395883621
C           46.17165486380573       -5.76566480487668        0.16280341872128
C           44.36144287778826       -2.77664500574540       -0.37339302806281
C           43.07498217199140       -3.44934572437735       -0.40505550091648
C           42.13791314799978       -2.48878559712860       -0.26604518602944
C           42.85366172040907       -1.23491837498490       -0.13651649419398
N           44.18501254184928       -1.43858544231813       -0.19264155975464
H           41.11659498244062        2.65273282207590        0.32240754822528
H           43.00228958595314        4.51320474209508        0.68396005832485
H           44.88856302595681        0.76409524056440        0.22459716528187
H           46.73754096575657        5.36750078393705       -0.86773543332082
H           47.36518868085626        9.80270234868680       -1.04969756618611
H           45.72998570159399        8.67034717026655        1.66785964882755
H           44.66354676164093        7.11149156527342        3.26964517468874
H           44.64377067479167        4.68788554833520        2.81349391381545
H           48.32984616130877        4.41712102532745        1.03216706923429
H           50.19517543839966        2.51632596621929        0.65573893983537
H           50.14563647253935       -2.61971196437766       -0.54470072673947
H           48.26108696114478       -4.49035197358099       -0.84944728117857
H           46.37164941980781       -0.80368617098098       -0.03291507881332
H           44.51658571475459       -4.74675541589047       -2.61069082428180
H           44.49140342805390       -7.18119996004906       -3.01880420613600
H           45.55848747441323       -8.72247713970106       -1.38290819333384
H           47.74418670053799       -8.19186372737664        2.50533868145864
H           46.63088675499609       -5.37272392328450        1.06221323024807
H           42.93017591492126       -4.51271697529678       -0.50608555854527
H           41.06508390212797       -2.59318482384246       -0.24008298792695

          :  Hamiltonian                  GFN1-xTB          :
         :: total energy            -377.147174426902 Eh    ::
         :: gradient norm              0.000546549887 Eh/a0 ::
         :: HOMO-LUMO gap              0.884053675863 eV    ::
         :: SCC energy              -383.093555319529 Eh    ::
         :: repulsion energy           6.117090740092 Eh    ::

    * Orbital Energies and Occupations

         #    Occupation            Energy/Eh            Energy/eV
      -------------------------------------------------------------
         1        2.0000           -0.8342748             -22.7018
       ...           ...                  ...                  ...
       321        2.0000           -0.4222461             -11.4899
       322        2.0000           -0.4219160             -11.4809
       323        2.0000           -0.4213801             -11.4663
       324        2.0000           -0.4202430             -11.4354
       325        2.0000           -0.4160666             -11.3217
       326        2.0000           -0.4130486             -11.2396
       327        2.0000           -0.4121331             -11.2147
       328        2.0000           -0.4064066             -11.0589
       329        2.0000           -0.4056848             -11.0392
       330        2.0000           -0.4052049             -11.0262
       331        2.0000           -0.3935713             -10.7096
       332        2.0000           -0.3892541             -10.5921
       333        2.0000           -0.3834619             -10.4345 (HOMO)
       334                         -0.3509735              -9.5505 (LUMO)
       335                         -0.3434127              -9.3447
       336                         -0.3396383              -9.2420
       337                         -0.3386771              -9.2159
       338                         -0.3382676              -9.2047
       339                         -0.3375965              -9.1865
       340                         -0.3166666              -8.6169
       341                         -0.3130467              -8.5184
       342                         -0.3125293              -8.5044
       343                         -0.3118423              -8.4857
       344                         -0.3116508              -8.4804
       ...                                ...                  ...
       692                          1.6015641              43.5808
      -------------------------------------------------------------
                  HL-Gap            0.0324884 Eh            0.8841 eV

Wiberg/Mayer (AO) data.
largest (>0.10) Wiberg bond orders for each atom

     #   Z sym  total        # sym  WBO       # sym  WBO       # sym  WBO
 ---------------------------------------------------------------------------
     1   6 C    3.926 --    41 C    1.366     2 C    1.347    43 H    0.971
     2   6 C    3.902 --     1 C    1.347     3 C    1.229     6 N    1.169
     3   6 C    3.954 --     4 C    1.596     2 C    1.229    44 H    0.976
     4   6 C    3.959 --     3 C    1.596     5 C    1.234    45 H    0.974
     5   6 C    3.897 --     7 C    1.303     4 C    1.234     6 N    1.178
     6   7 N    3.470 --     5 C    1.178     2 C    1.169    46 H    0.873
     7   6 C    3.939 --    17 C    1.338     5 C    1.303     8 C    1.026
     8   6 C    3.988 --     9 C    1.409    16 C    1.389     7 C    1.026
                            14 C    0.103
     9   6 C    3.984 --     8 C    1.409    10 C    1.397    47 H    0.968
                            15 C    0.104
    10   6 C    3.988 --     9 C    1.397    14 C    1.391    11 C    1.004
                            16 C    0.100
    11   6 C    3.836 --    13 O    1.693    12 O    1.090    10 C    1.004
    12   8 O    2.098 --    11 C    1.090    48 H    0.838    13 O    0.129
    13   8 O    1.962 --    11 C    1.693    12 O    0.129
    14   6 C    3.987 --    15 C    1.448    10 C    1.391    49 H    0.970
                             8 C    0.103
    15   6 C    3.994 --    14 C    1.448    16 C    1.441    50 H    0.972
                             9 C    0.104
    16   6 C    3.987 --    15 C    1.441     8 C    1.389    51 H    0.973
                            10 C    0.100
    17   6 C    3.914 --     7 C    1.338    20 N    1.284    18 C    1.123
    18   6 C    3.966 --    19 C    1.712    17 C    1.123    52 H    0.973
    19   6 C    3.964 --    18 C    1.712    21 C    1.126    53 H    0.974
    20   7 N    3.023 --    21 C    1.345    17 C    1.284
    21   6 C    3.907 --    20 N    1.345    22 C    1.254    19 C    1.126
    22   6 C    3.938 --    21 C    1.254    23 C    1.250   127 C    1.193
    23   6 C    3.884 --    22 C    1.250    24 C    1.249    27 N    1.190
    24   6 C    3.959 --    25 C    1.583    23 C    1.249    54 H    0.975
    25   6 C    3.954 --    24 C    1.583    26 C    1.240    55 H    0.974
    26   6 C    3.899 --    28 C    1.310    25 C    1.240    27 N    1.165
    27   7 N    3.475 --    23 C    1.190    26 C    1.165    56 H    0.873
    28   6 C    3.924 --    38 C    1.321    26 C    1.310    29 C    1.029
    29   6 C    3.988 --    37 C    1.404    30 C    1.389    28 C    1.029
                            32 C    0.102
    30   6 C    3.986 --    31 C    1.440    29 C    1.389    57 H    0.973
    31   6 C    3.994 --    32 C    1.450    30 C    1.440    58 H    0.972
                            37 C    0.104
    32   6 C    3.985 --    31 C    1.450    33 C    1.388    59 H    0.969
                            29 C    0.102
    33   6 C    3.988 --    37 C    1.400    32 C    1.388    34 C    1.005
    34   6 C    3.836 --    36 O    1.693    35 O    1.090    33 C    1.005
    35   8 O    2.099 --    34 C    1.090    60 H    0.838    36 O    0.129
    36   8 O    1.961 --    34 C    1.693    35 O    0.129
    37   6 C    3.984 --    29 C    1.404    33 C    1.400    61 H    0.969
                            31 C    0.104
    38   6 C    3.929 --    28 C    1.321    42 N    1.317    39 C    1.117
    39   6 C    3.967 --    40 C    1.724    38 C    1.117    62 H    0.973
    40   6 C    3.966 --    39 C    1.724    41 C    1.116    63 H    0.976
    41   6 C    3.929 --     1 C    1.366    42 N    1.300    40 C    1.116
    42   7 N    3.013 --    38 C    1.317    41 C    1.300
    43   1 H    1.002 --     1 C    0.971
    44   1 H    0.997 --     3 C    0.976
    45   1 H    1.004 --     4 C    0.974
    46   1 H    0.986 --     6 N    0.873
    47   1 H    1.007 --     9 C    0.968
    48   1 H    0.873 --    12 O    0.838
    49   1 H    1.005 --    14 C    0.970
    50   1 H    1.002 --    15 C    0.972
    51   1 H    1.004 --    16 C    0.973
    52   1 H    1.004 --    18 C    0.973
    53   1 H    1.002 --    19 C    0.974
    54   1 H    1.002 --    24 C    0.975
    55   1 H    1.004 --    25 C    0.974
    56   1 H    0.987 --    27 N    0.873
    57   1 H    1.004 --    30 C    0.973
    58   1 H    1.002 --    31 C    0.972
    59   1 H    1.005 --    32 C    0.969
    60   1 H    0.873 --    35 O    0.838
    61   1 H    1.007 --    37 C    0.969
    62   1 H    1.004 --    39 C    0.973
    63   1 H    0.998 --    40 C    0.976
    64   6 C    3.926 --   104 C    1.366    65 C    1.347   106 H    0.971
    65   6 C    3.902 --    64 C    1.347    66 C    1.229    69 N    1.169
    66   6 C    3.953 --    67 C    1.596    65 C    1.229   107 H    0.976
    67   6 C    3.959 --    66 C    1.596    68 C    1.234   108 H    0.974
    68   6 C    3.897 --    70 C    1.302    67 C    1.234    69 N    1.178
    69   7 N    3.470 --    68 C    1.178    65 C    1.169   109 H    0.873
    70   6 C    3.939 --    80 C    1.338    68 C    1.302    71 C    1.027
    71   6 C    3.988 --    72 C    1.408    79 C    1.389    70 C    1.027
                            77 C    0.103
    72   6 C    3.984 --    71 C    1.408    73 C    1.397   110 H    0.968
                            78 C    0.104
    73   6 C    3.988 --    72 C    1.397    77 C    1.391    74 C    1.004
    74   6 C    3.836 --    76 O    1.693    75 O    1.090    73 C    1.004
    75   8 O    2.098 --    74 C    1.090   111 H    0.838    76 O    0.129
    76   8 O    1.962 --    74 C    1.693    75 O    0.129
    77   6 C    3.987 --    78 C    1.448    73 C    1.391   112 H    0.970
                            71 C    0.103
    78   6 C    3.994 --    77 C    1.448    79 C    1.441   113 H    0.972
                            72 C    0.104
    79   6 C    3.987 --    78 C    1.441    71 C    1.389   114 H    0.973
    80   6 C    3.914 --    70 C    1.338    83 N    1.285    81 C    1.123
    81   6 C    3.966 --    82 C    1.712    80 C    1.123   115 H    0.973
    82   6 C    3.964 --    81 C    1.712    84 C    1.126   116 H    0.974
    83   7 N    3.022 --    84 C    1.345    80 C    1.285
    84   6 C    3.907 --    83 N    1.345    85 C    1.253    82 C    1.126
    85   6 C    3.938 --    84 C    1.253    86 C    1.250   142 C    1.193
    86   6 C    3.883 --    85 C    1.250    87 C    1.249    90 N    1.190
    87   6 C    3.959 --    88 C    1.583    86 C    1.249   117 H    0.975
    88   6 C    3.954 --    87 C    1.583    89 C    1.240   118 H    0.974
    89   6 C    3.899 --    91 C    1.310    88 C    1.240    90 N    1.166
    90   7 N    3.475 --    86 C    1.190    89 C    1.166   119 H    0.873
    91   6 C    3.924 --   101 C    1.322    89 C    1.310    92 C    1.029
    92   6 C    3.988 --   100 C    1.405    93 C    1.389    91 C    1.029
                            95 C    0.102
    93   6 C    3.986 --    94 C    1.440    92 C    1.389   120 H    0.973
    94   6 C    3.994 --    95 C    1.450    93 C    1.440   121 H    0.972
                           100 C    0.104
    95   6 C    3.985 --    94 C    1.450    96 C    1.388   122 H    0.969
                            92 C    0.102
    96   6 C    3.988 --   100 C    1.400    95 C    1.388    97 C    1.005
    97   6 C    3.836 --    99 O    1.692    98 O    1.090    96 C    1.005
    98   8 O    2.099 --    97 C    1.090   123 H    0.838    99 O    0.129
    99   8 O    1.961 --    97 C    1.692    98 O    0.129
   100   6 C    3.984 --    92 C    1.405    96 C    1.400   124 H    0.969
                            94 C    0.104
   101   6 C    3.929 --    91 C    1.322   105 N    1.317   102 C    1.117
   102   6 C    3.967 --   103 C    1.724   101 C    1.117   125 H    0.973
   103   6 C    3.966 --   102 C    1.724   104 C    1.116   126 H    0.976
   104   6 C    3.929 --    64 C    1.366   105 N    1.300   103 C    1.116
   105   7 N    3.012 --   101 C    1.317   104 C    1.300
   106   1 H    1.002 --    64 C    0.971
   107   1 H    0.997 --    66 C    0.976
   108   1 H    1.004 --    67 C    0.974
   109   1 H    0.986 --    69 N    0.873
   110   1 H    1.007 --    72 C    0.968
   111   1 H    0.873 --    75 O    0.838
   112   1 H    1.005 --    77 C    0.970
   113   1 H    1.002 --    78 C    0.972
   114   1 H    1.004 --    79 C    0.973
   115   1 H    1.004 --    81 C    0.973
   116   1 H    1.002 --    82 C    0.974
   117   1 H    1.002 --    87 C    0.975
   118   1 H    1.004 --    88 C    0.974
   119   1 H    0.987 --    90 N    0.873
   120   1 H    1.004 --    93 C    0.973
   121   1 H    1.001 --    94 C    0.972
   122   1 H    1.005 --    95 C    0.969
   123   1 H    0.873 --    98 O    0.838
   124   1 H    1.007 --   100 C    0.969
   125   1 H    1.004 --   102 C    0.973
   126   1 H    0.998 --   103 C    0.976
   127   6 C    3.876 --   128 C    2.436    22 C    1.193   130 C    0.186
   128   6 C    3.932 --   127 C    2.436   129 C    1.346
   129   6 C    3.891 --   130 C    2.332   128 C    1.346   132 C    0.182
   130   6 C    3.924 --   129 C    2.332   131 C    1.372   127 C    0.186
   131   6 C    3.922 --   132 C    2.331   130 C    1.372   134 C    0.186
   132   6 C    3.892 --   131 C    2.331   133 C    1.348   129 C    0.182
   133   6 C    3.929 --   134 C    2.433   132 C    1.348
   134   6 C    3.877 --   133 C    2.433   143 C    1.197   131 C    0.186
   135   6 C    3.877 --   136 C    2.432   164 C    1.197   138 C    0.186
   136   6 C    3.929 --   135 C    2.432   137 C    1.348
   137   6 C    3.892 --   138 C    2.331   136 C    1.348   140 C    0.182
   138   6 C    3.922 --   137 C    2.331   139 C    1.372   135 C    0.186
   139   6 C    3.924 --   140 C    2.332   138 C    1.372   142 C    0.186
   140   6 C    3.891 --   139 C    2.332   141 C    1.347   137 C    0.182
   141   6 C    3.932 --   142 C    2.436   140 C    1.347
   142   6 C    3.876 --   141 C    2.436    85 C    1.193   139 C    0.186
   143   6 C    3.925 --   183 C    1.251   144 C    1.246   134 C    1.197
   144   6 C    3.885 --   145 C    1.253   143 C    1.246   148 N    1.189
   145   6 C    3.955 --   146 C    1.577   144 C    1.253   185 H    0.975
   146   6 C    3.955 --   145 C    1.577   147 C    1.246   186 H    0.974
   147   6 C    3.894 --   149 C    1.299   146 C    1.246   148 N    1.167
   148   7 N    3.471 --   144 C    1.189   147 C    1.167   187 H    0.874
   149   6 C    3.927 --   159 C    1.340   147 C    1.299   150 C    1.026
   150   6 C    3.988 --   151 C    1.408   158 C    1.388   149 C    1.026
                           156 C    0.103
   151   6 C    3.984 --   150 C    1.408   152 C    1.397   188 H    0.968
                           157 C    0.104
   152   6 C    3.988 --   151 C    1.397   156 C    1.391   153 C    1.004
                           158 C    0.100
   153   6 C    3.836 --   155 O    1.693   154 O    1.090   152 C    1.004
   154   8 O    2.099 --   153 C    1.090   189 H    0.838   155 O    0.129
   155   8 O    1.962 --   153 C    1.693   154 O    0.129
   156   6 C    3.987 --   157 C    1.448   152 C    1.391   190 H    0.970
                           150 C    0.103
   157   6 C    3.994 --   156 C    1.448   158 C    1.441   191 H    0.972
                           151 C    0.104
   158   6 C    3.987 --   157 C    1.441   150 C    1.388   192 H    0.973
                           152 C    0.100
   159   6 C    3.916 --   149 C    1.340   162 N    1.282   160 C    1.123
   160   6 C    3.966 --   161 C    1.712   159 C    1.123   193 H    0.973
   161   6 C    3.964 --   160 C    1.712   163 C    1.128   194 H    0.974
   162   7 N    3.010 --   163 C    1.345   159 C    1.282
   163   6 C    3.907 --   162 N    1.345   164 C    1.252   161 C    1.128
   164   6 C    3.925 --   163 C    1.252   165 C    1.246   135 C    1.197
   165   6 C    3.884 --   166 C    1.253   164 C    1.246   169 N    1.190
   166   6 C    3.956 --   167 C    1.578   165 C    1.253   195 H    0.975
   167   6 C    3.955 --   166 C    1.578   168 C    1.245   196 H    0.974
   168   6 C    3.894 --   170 C    1.300   167 C    1.245   169 N    1.167
   169   7 N    3.472 --   165 C    1.190   168 C    1.167   197 H    0.874
   170   6 C    3.927 --   180 C    1.339   168 C    1.300   171 C    1.027
   171   6 C    3.988 --   179 C    1.406   172 C    1.388   170 C    1.027
                           174 C    0.102
   172   6 C    3.987 --   173 C    1.440   171 C    1.388   198 H    0.972
                           175 C    0.100
   173   6 C    3.994 --   174 C    1.450   172 C    1.440   199 H    0.972
                           179 C    0.104
   174   6 C    3.985 --   173 C    1.450   175 C    1.388   200 H    0.969
                           171 C    0.102
   175   6 C    3.988 --   179 C    1.399   174 C    1.388   176 C    1.005
                           172 C    0.100
   176   6 C    3.836 --   178 O    1.693   177 O    1.090   175 C    1.005
   177   8 O    2.099 --   176 C    1.090   201 H    0.838   178 O    0.129
   178   8 O    1.961 --   176 C    1.693   177 O    0.129
   179   6 C    3.985 --   171 C    1.406   175 C    1.399   202 H    0.969
                           173 C    0.104
   180   6 C    3.917 --   170 C    1.339   184 N    1.283   181 C    1.125
   181   6 C    3.966 --   182 C    1.710   180 C    1.125   203 H    0.973
   182   6 C    3.963 --   181 C    1.710   183 C    1.129   204 H    0.974
   183   6 C    3.907 --   184 N    1.346   143 C    1.251   182 C    1.129
   184   7 N    3.009 --   183 C    1.346   180 C    1.283
   185   1 H    1.001 --   145 C    0.975
   186   1 H    1.004 --   146 C    0.974
   187   1 H    0.987 --   148 N    0.874
   188   1 H    1.007 --   151 C    0.968
   189   1 H    0.873 --   154 O    0.838
   190   1 H    1.005 --   156 C    0.970
   191   1 H    1.001 --   157 C    0.972
   192   1 H    1.004 --   158 C    0.973
   193   1 H    1.004 --   160 C    0.973
   194   1 H    1.002 --   161 C    0.974
   195   1 H    1.001 --   166 C    0.975
   196   1 H    1.004 --   167 C    0.974
   197   1 H    0.987 --   169 N    0.874
   198   1 H    1.005 --   172 C    0.972
   199   1 H    1.001 --   173 C    0.972
   200   1 H    1.005 --   174 C    0.969
   201   1 H    0.873 --   177 O    0.838
   202   1 H    1.007 --   179 C    0.969
   203   1 H    1.004 --   181 C    0.973
   204   1 H    1.002 --   182 C    0.974
 ---------------------------------------------------------------------------

           -------------------------------------------------
          | TOTAL ENERGY             -377.147174426902 Eh   |
          | GRADIENT NORM               0.000546549887 Eh/α |
          | HOMO-LUMO GAP               0.884053675863 eV   |
           -------------------------------------------------

 * finished run on 2022/07/28 at 01:48:22.709
