   * xtb version 6.5.1 (b24c23e) compiled by 'conda@728c89f4b128' on 2022-07-12
          program call               : xtb Co_H_C6_2.xyz --gfn 1 --opt -T 48

   ID    Z sym.   atoms
    1   27 Co     1, 37
    2    6 C      2-6, 8-11, 13-18, 20-24, 38-42, 44-47, 49-54, 56-60, 73-78
    3    7 N      7, 12, 19, 25, 43, 48, 55, 61
    4    1 H      26-36, 62-72
########################################################################
[WARNING] Please study the warnings concerning your input carefully
-1- prog_main_parseArguments: Unknown option '-T' provided
########################################################################

          :  Hamiltonian                  GFN1-xTB          :
 * total energy  :  -140.3999025 Eh     change        0.5435965E-08 Eh
 * total energy  :  -141.2800185 Eh     change       -0.8801161E+00 Eh
 * total energy  :  -141.3943779 Eh     change       -0.1143593E+00 Eh
 * total energy  :  -141.4481474 Eh     change       -0.5376953E-01 Eh
 * total energy  :  -141.4700556 Eh     change       -0.2190817E-01 Eh
 * total energy  :  -141.4806761 Eh     change       -0.1062058E-01 Eh
 * total energy  :  -141.4876798 Eh     change       -0.7003687E-02 Eh
 * total energy  :  -141.4926543 Eh     change       -0.4974521E-02 Eh
 * total energy  :  -141.4959553 Eh     change       -0.3300939E-02 Eh
 * total energy  :  -141.4981445 Eh     change       -0.2189180E-02 Eh
 * total energy  :  -141.5035834 Eh     change       -0.1319089E-04 Eh
 * total energy  :  -141.5035980 Eh     change       -0.1457387E-04 Eh
 * total energy  :  -141.5036126 Eh     change       -0.1462768E-04 Eh
 * total energy  :  -141.5036272 Eh     change       -0.1465116E-04 Eh
 * total energy  :  -141.5036412 Eh     change       -0.1397579E-04 Eh
 * total energy  :  -141.5036536 Eh     change       -0.1238085E-04 Eh
 * total energy  :  -141.5036632 Eh     change       -0.9583571E-05 Eh
 * total energy  :  -141.5036720 Eh     change       -0.8790548E-05 Eh
 * total energy  :  -141.5036752 Eh     change       -0.3224328E-05 Eh
   *** GEOMETRY OPTIMIZATION CONVERGED AFTER 94 ITERATIONS ***

 final structure:
================
78
 xtb: 6.5.1 (b24c23e)
Co           6.56723480505570       -0.00852907010852        0.02778344935600
C            3.32984144094276       -0.61293726706175        0.73990506258047
C            3.93001288534096       -1.36211701452066       -0.25130970303343
C            3.24590694207283       -2.34636268487880       -1.03708402870757
C            4.11065025426139       -2.74719461802394       -1.99891976777477
C            5.34071307041125       -2.05062281631966       -1.76345881726122
N            5.21302943041273       -1.19278092048765       -0.70299812102427
C            6.51772688933190       -2.31677352115060       -2.43312297911366
C            7.73967076326107       -1.83261134108914       -2.01760274028998
C            8.99646912076678       -2.30637248405673       -2.51213702638569
C            9.95697345496597       -1.71955896978919       -1.75765181972291
N            7.93300471273288       -0.92689069240732       -1.00176358775527
C            9.28657170663831       -0.84564782274091       -0.84436815208013
C            9.95416703029201        0.06544430867317       -0.01938496839722
C            9.26703614322177        1.09091702137348        0.63825447874317
C            9.91511502336139        2.20675240202619        1.25589914307690
C            8.93607289018508        3.05367604872853        1.65635010262984
C            7.69172340554021        2.42433049886561        1.33307585288744
N            7.91030267054619        1.22921285915088        0.68930530164806
C            6.46315967809070        2.89610008540338        1.74259578105429
C            5.30692831853820        2.14727414061471        1.65515467018282
C            4.07956738108678        2.48842164348992        2.31140538893327
C            3.23297826294114        1.44930854389759        2.11896493284577
C            3.92431804998657        0.50095578256161        1.29605822252716
N            5.19802258155322        0.93331534178179        1.03041914077201
H            2.30912329550719       -0.84716199661872        1.01838469563706
H            2.22565397964002       -2.65563380973996       -0.87350065166707
H            3.95969840866079       -3.46872291907010       -2.78626614806926
H            6.49523861985736       -3.02058482370096       -3.25686371461517
H            9.10810854800853       -3.01886087859102       -3.31392276506743
H           11.02741889857649       -1.83332787404945       -1.81942558020765
H           10.98390585924778        2.32199553879937        1.33993236430798
H            9.02793305206253        4.00546475496256        2.15494994916857
H            6.42133359081236        3.85296762467349        2.24958302870776
H            3.91760579436244        3.39903835832598        2.86623268052583
H            2.21960446941088        1.32889244637189        2.46805377794198
Co          22.49735110032418       -0.00931451450223        0.01642010351021
C           25.71669158168189       -0.06659917691150        0.99556285141445
C           25.12539663603068        1.15973125389942        0.77034569126707
C           25.81370553081221        2.41247704074377        0.87610964994994
C           24.96680194976251        3.36289912028388        0.41431116068563
C           23.74157823547131        2.69757948922279        0.08298913874027
N           23.85504553400338        1.34852131445897        0.29098157449699
C           22.57949580526961        3.35157770604162       -0.27388156095059
C           21.35378236326956        2.72250435092209       -0.32144274053272
C           20.10303555411742        3.41344648402684       -0.40525112439085
C           19.13276436037464        2.48204028570853       -0.23901840553695
N           21.14714749354120        1.37280850062416       -0.16186921210865
C           19.79198910164986        1.21829925833011       -0.11495705776119
C           19.11570963485593       -0.00619065074199       -0.09382545884857
C           19.79493966351151       -1.21506287187441       -0.27899911123363
C           19.13898641405522       -2.45429381921255       -0.56317117640024
C           20.11193281130779       -3.35614027592287       -0.83972154715829
C           21.36083222527632       -2.67922877116467       -0.66385448326329
N           21.15063587769872       -1.36015509413861       -0.33854727543055
C           22.58692670774101       -3.30890192811346       -0.68562388741732
C           23.74570602049531       -2.70341327685516       -0.24271691037927
C           24.96919625166519       -3.40379141648107        0.01430356237229
C           25.81310020691521       -2.51525896395227        0.59063204669729
C           25.12516045439459       -1.25845337080837        0.62991009219764
N           23.85688834013293       -1.38912884043395        0.12615063519454
H           26.73068766823118       -0.08880222524232        1.37719436537032
H           26.82538329023578        2.52399817463218        1.23295469547577
H           25.12678532706827        4.42582066985467        0.32540582056287
H           22.61412256498758        4.42529662659326       -0.41646694395033
H           20.00119991550494        4.47830018686611       -0.54193710561132
H           18.06288127158180        2.61612937251461       -0.22924026864616
H           18.06942028557456       -2.59054554588288       -0.57300105446118
H           20.01305153975783       -4.39602030019827       -1.10768268717426
H           22.62364878126851       -4.35681382664108       -0.95932044459242
H           25.13009735621941       -4.44867187136109       -0.19928944002401
H           26.82272766425478       -2.66882467607020        0.93758232040119
C           15.15016709615000       -0.02457820174078        0.09578422045429
C           13.92146715956135       -0.02160906834367        0.10869029252659
C           12.57798364756711       -0.00022318579406        0.09037227666323
C           11.35501464684786        0.03010284861225        0.04375682358127
C           16.49331910679096       -0.02409274783064        0.05622636747659
C           17.71526639625216       -0.01277293844127       -0.01847324567056

          :  Hamiltonian                  GFN1-xTB          :
         :: total energy            -141.503675184574 Eh    ::
         :: gradient norm              0.000700678632 Eh/a0 ::
         :: HOMO-LUMO gap              0.008797142156 eV    ::
         :: SCC energy              -143.812820369280 Eh    ::
         :: repulsion energy           2.374320452381 Eh    ::

    * Orbital Energies and Occupations

         #    Occupation            Energy/Eh            Energy/eV
      -------------------------------------------------------------
         1        2.0000           -0.7728659             -21.0308
       ...           ...                  ...                  ...
       120        2.0000           -0.4260381             -11.5931
       121        2.0000           -0.4191819             -11.4065
       122        2.0000           -0.4021218             -10.9423
       123        2.0000           -0.3984223             -10.8416
       124        2.0000           -0.3982348             -10.8365
       125        2.0000           -0.3981870             -10.8352
       126        1.9999           -0.3941063             -10.7242
       127        1.9999           -0.3940432             -10.7225
       128        1.9999           -0.3939954             -10.7212
       129        1.9999           -0.3939086             -10.7188
       130        1.9997           -0.3931121             -10.6971
       131        1.9065           -0.3875849             -10.5467
       132        1.1318           -0.3849719             -10.4756 (HOMO)
       133        0.9624           -0.3846486             -10.4668 (LUMO)
       134                         -0.3400825              -9.2541
       135                         -0.3297205              -8.9722
       136                         -0.3293751              -8.9628
       137                         -0.3291116              -8.9556
       138                         -0.3007261              -8.1832
       139                         -0.2958206              -8.0497
       140                         -0.2907807              -7.9125
       141                         -0.2903576              -7.9010
       142                         -0.2846483              -7.7457
       143                         -0.2652227              -7.2171
       ...                                ...                  ...
       278                          1.5743486              42.8402
      -------------------------------------------------------------
                  HL-Gap            0.0003233 Eh            0.0088 eV

Wiberg/Mayer (AO) data.
largest (>0.10) Wiberg bond orders for each atom

     #   Z sym  total        # sym  WBO       # sym  WBO       # sym  WBO
 ---------------------------------------------------------------------------
     1  27 Co   3.036 --    25 N    0.639     7 N    0.639    12 N    0.634
                            19 N    0.634
     2   6 C    3.932 --    24 C    1.364     3 C    1.363    26 H    0.971
     3   6 C    3.924 --     2 C    1.363     7 N    1.207     4 C    1.171
     4   6 C    3.960 --     5 C    1.654     3 C    1.171    27 H    0.975
     5   6 C    3.962 --     4 C    1.654     6 C    1.171    28 H    0.975
     6   6 C    3.921 --     8 C    1.359     7 N    1.209     5 C    1.171
     7   7 N    3.352 --     6 C    1.209     3 C    1.207     1 Co   0.639
     8   6 C    3.938 --     9 C    1.371     6 C    1.359    29 H    0.970
     9   6 C    3.917 --     8 C    1.371    12 N    1.191    10 C    1.176
    10   6 C    3.957 --    11 C    1.643     9 C    1.176    30 H    0.975
    11   6 C    3.961 --    10 C    1.643    13 C    1.185    31 H    0.974
    12   7 N    3.354 --    13 C    1.236     9 C    1.191     1 Co   0.634
    13   6 C    3.903 --    14 C    1.258    12 N    1.236    11 C    1.185
    14   6 C    3.938 --    13 C    1.258    15 C    1.257    76 C    1.192
    15   6 C    3.903 --    14 C    1.257    19 N    1.237    16 C    1.185
    16   6 C    3.961 --    17 C    1.643    15 C    1.185    32 H    0.974
    17   6 C    3.957 --    16 C    1.643    18 C    1.175    33 H    0.975
    18   6 C    3.917 --    20 C    1.373    19 N    1.190    17 C    1.175
    19   7 N    3.354 --    15 C    1.237    18 C    1.190     1 Co   0.634
    20   6 C    3.938 --    18 C    1.373    21 C    1.358    34 H    0.970
    21   6 C    3.921 --    20 C    1.358    25 N    1.210    22 C    1.171
    22   6 C    3.962 --    23 C    1.654    21 C    1.171    35 H    0.975
    23   6 C    3.960 --    22 C    1.654    24 C    1.170    36 H    0.975
    24   6 C    3.924 --     2 C    1.364    25 N    1.206    23 C    1.170
    25   7 N    3.352 --    21 C    1.210    24 C    1.206     1 Co   0.639
    26   1 H    1.000 --     2 C    0.971
    27   1 H    0.997 --     4 C    0.975
    28   1 H    0.997 --     5 C    0.975
    29   1 H    1.000 --     8 C    0.970
    30   1 H    0.997 --    10 C    0.975
    31   1 H    1.001 --    11 C    0.974
    32   1 H    1.001 --    16 C    0.974
    33   1 H    0.997 --    17 C    0.975
    34   1 H    1.000 --    20 C    0.970
    35   1 H    0.997 --    22 C    0.975
    36   1 H    0.997 --    23 C    0.975
    37  27 Co   3.045 --    43 N    0.640    61 N    0.639    55 N    0.635
                            48 N    0.635
    38   6 C    3.932 --    60 C    1.364    39 C    1.363    62 H    0.971
    39   6 C    3.924 --    38 C    1.363    43 N    1.206    40 C    1.171
    40   6 C    3.960 --    41 C    1.654    39 C    1.171    63 H    0.975
    41   6 C    3.962 --    40 C    1.654    42 C    1.171    64 H    0.975
    42   6 C    3.922 --    44 C    1.358    43 N    1.210    41 C    1.171
    43   7 N    3.352 --    42 C    1.210    39 C    1.206    37 Co   0.640
    44   6 C    3.938 --    45 C    1.372    42 C    1.358    65 H    0.971
    45   6 C    3.917 --    44 C    1.372    48 N    1.190    46 C    1.176
    46   6 C    3.957 --    47 C    1.642    45 C    1.176    66 H    0.975
    47   6 C    3.961 --    46 C    1.642    49 C    1.185    67 H    0.974
    48   7 N    3.354 --    49 C    1.237    45 C    1.190    37 Co   0.635
    49   6 C    3.903 --    50 C    1.257    48 N    1.237    47 C    1.185
    50   6 C    3.938 --    49 C    1.257    51 C    1.257    78 C    1.193
    51   6 C    3.903 --    50 C    1.257    55 N    1.237    52 C    1.185
    52   6 C    3.961 --    53 C    1.643    51 C    1.185    68 H    0.974
    53   6 C    3.957 --    52 C    1.643    54 C    1.176    69 H    0.975
    54   6 C    3.917 --    56 C    1.372    55 N    1.190    53 C    1.176
    55   7 N    3.354 --    51 C    1.237    54 C    1.190    37 Co   0.635
    56   6 C    3.938 --    54 C    1.372    57 C    1.358    70 H    0.971
    57   6 C    3.922 --    56 C    1.358    61 N    1.210    58 C    1.171
    58   6 C    3.962 --    59 C    1.654    57 C    1.171    71 H    0.975
    59   6 C    3.960 --    58 C    1.654    60 C    1.170    72 H    0.975
    60   6 C    3.924 --    38 C    1.364    61 N    1.206    59 C    1.170
    61   7 N    3.352 --    57 C    1.210    60 C    1.206    37 Co   0.639
    62   1 H    1.000 --    38 C    0.971
    63   1 H    0.997 --    40 C    0.975
    64   1 H    0.997 --    41 C    0.975
    65   1 H    1.000 --    44 C    0.971
    66   1 H    0.997 --    46 C    0.975
    67   1 H    1.001 --    47 C    0.974
    68   1 H    1.001 --    52 C    0.974
    69   1 H    0.997 --    53 C    0.975
    70   1 H    1.000 --    56 C    0.971
    71   1 H    0.997 --    58 C    0.975
    72   1 H    0.997 --    59 C    0.975
    73   6 C    3.921 --    74 C    2.362    77 C    1.338    76 C    0.189
    74   6 C    3.920 --    73 C    2.362    75 C    1.338    78 C    0.189
    75   6 C    3.931 --    76 C    2.444    74 C    1.338
    76   6 C    3.886 --    75 C    2.444    14 C    1.192    73 C    0.189
    77   6 C    3.931 --    78 C    2.443    73 C    1.338
    78   6 C    3.886 --    77 C    2.443    50 C    1.193    74 C    0.189
 ---------------------------------------------------------------------------

           -------------------------------------------------
          | TOTAL ENERGY             -141.503675184574 Eh   |
          | GRADIENT NORM               0.000700678632 Eh/α |
          | HOMO-LUMO GAP               0.008797142156 eV   |
           -------------------------------------------------

 * finished run on 2022/07/29 at 22:12:27.049
