   * xtb version 6.5.1 (b24c23e) compiled by 'conda@728c89f4b128' on 2022-07-12
          program call               : xtb Fe_Py_C2_4.xyz --gfn 1 --opt -T 48

   ID    Z sym.   atoms
    1   26 Fe     1, 55, 115, 168
    2    6 C      2-6, 8-11, 13-17, 19-24, 26-29, 31-36, 56-60, 62-65, 67-71,
                  73-78, 80-83, 85-90, 109-114, 116-120, 122-125, 127-131,
                  133-138, 140-143, 145-150, 169-173, 175-178, 180-184,
                  186-191, 193-196, 198-203
    3    7 N      7, 12, 18, 25, 30, 37, 61, 66, 72, 79, 84, 91, 121, 126,
                  132, 139, 144, 151, 174, 179, 185, 192, 197, 204
    4    1 H      38-54, 92-108, 152-167, 205-220

          :  Hamiltonian                  GFN1-xTB          :
 * total energy  :  -389.7243080 Eh     change       -0.1128842E-07 Eh
 * total energy  :  -389.9035658 Eh     change       -0.1792579E+00 Eh
 * total energy  :  -390.0284240 Eh     change       -0.1248582E+00 Eh
 * total energy  :  -390.1023728 Eh     change       -0.7394874E-01 Eh
 * total energy  :  -390.1505181 Eh     change       -0.4814537E-01 Eh
 * total energy  :  -390.1795291 Eh     change       -0.2901101E-01 Eh
 * total energy  :  -390.2041215 Eh     change       -0.2459233E-01 Eh
 * total energy  :  -390.2238575 Eh     change       -0.1973606E-01 Eh
 * total energy  :  -390.2396641 Eh     change       -0.1580661E-01 Eh
 * total energy  :  -390.2524701 Eh     change       -0.1280593E-01 Eh
 * total energy  :  -390.3096938 Eh     change       -0.7709417E-05 Eh
 * total energy  :  -390.3097020 Eh     change       -0.8127445E-05 Eh
 * total energy  :  -390.3097105 Eh     change       -0.8549402E-05 Eh
 * total energy  :  -390.3097189 Eh     change       -0.8356310E-05 Eh
 * total energy  :  -390.3097269 Eh     change       -0.7970556E-05 Eh
 * total energy  :  -390.3097350 Eh     change       -0.8151197E-05 Eh
 * total energy  :  -390.3097443 Eh     change       -0.9285370E-05 Eh
 * total energy  :  -390.3097552 Eh     change       -0.1094282E-04 Eh
 * total energy  :  -390.3097591 Eh     change       -0.3858455E-05 Eh
   *** GEOMETRY OPTIMIZATION CONVERGED AFTER 68 ITERATIONS ***

 final structure:
================
220
 xtb: 6.5.1 (b24c23e)
Fe          41.00906750307372       -0.01563770485581       -0.02845461430084
C           37.62362327933052       -0.03447685288177       -0.04686410557874
C           38.27512519583059       -1.25077192544432       -0.02842685746732
C           37.60150249922313       -2.51444259544052       -0.01537188058731
C           38.55648851685525       -3.46190995205195        0.13631926878221
C           39.81421120029365       -2.77557623784809        0.21083583291309
N           39.62965446214311       -1.42578828808280        0.08159056425871
C           41.02343933722388       -3.39665775620099        0.50434699046768
C           41.03094251870338       -4.86307446296903        0.71926123047001
C           41.33187312137947       -5.41340299502424        1.96389932902550
C           41.32829229159250       -6.79183802929432        2.11017383033554
N           41.05412981695044       -7.62539355980826        1.11202806520209
C           40.76733429742282       -7.10787224126988       -0.07805443867460
C           40.74039635106393       -5.74366154884776       -0.32152790828926
C           42.22323092838457       -2.70667534491291        0.60195501436094
C           43.48240196576850       -3.32401792527242        0.89690926716848
C           44.42945600739564       -2.36530705246947        0.76024774073693
N           42.40338106667993       -1.37546997238178        0.31073274448550
C           43.74953055471020       -1.16819120997031        0.37410258730084
C           44.41262797410784       -0.00006245514464       -0.01943096752231
C           43.73911753103414        1.16223405088665       -0.41169929702265
C           44.40439276934814        2.35620004149519       -0.83101369292836
C           43.44855594346822        3.30668681516168       -0.96780098512577
C           42.20152959626689        2.69076889964392       -0.62322166637211
N           42.39254873586669        1.36210238723682       -0.33055652370769
C           40.99345858734905        3.36980174042296       -0.54216490407347
C           40.99191267179982        4.83573305460553       -0.74720461503648
C           40.26485475457012        5.42622318964792       -1.78011742987490
C           40.29926230389491        6.80386029634867       -1.92803008834814
N           40.99318808962008        7.60197947441991       -1.12299914426648
C           41.68716553249858        7.04730303160571       -0.13440692993305
C           41.72040836586339        5.68019502767593        0.09009191961828
C           39.78660011404786        2.73091498933168       -0.27667621819947
C           38.52628356383816        3.40565255794513       -0.15634273103356
C           37.57935381946759        2.44621089945808       -0.02942816305327
C           38.26307848200122        1.18833602534482       -0.05568458799924
N           39.61576848063723        1.37768945118920       -0.16501206355898
H           36.53946171693921       -0.03977565872394       -0.04779289067410
H           36.53358193623357       -2.63936353229921       -0.09854225000594
H           38.43192554448132       -4.53001874505654        0.21041671907024
H           41.55157224786078       -4.77117448871947        2.80833541254950
H           41.55628971442371       -7.24526498407995        3.07036033936776
H           40.54968111156945       -7.81463172381891       -0.87346067401093
H           40.51179233145306       -5.36579579825878       -1.31087278928484
H           43.61687449016928       -4.36132261537830        1.15649574858551
H           45.49642615387275       -2.45269513960482        0.88688856255402
H           45.46708779439752        2.44430044566299       -0.98939890755928
H           43.56658725985465        4.33231034869709       -1.27731127172125
H           39.69444355152698        4.81388746201682       -2.46826132907679
H           39.74528987982386        7.28681954965237       -2.72765423260895
H           42.24203158991013        7.72542436403127        0.50734686297278
H           42.29156048925645        5.27233455698686        0.91555839776164
H           38.39600418749048        4.47558431779779       -0.16744563701144
H           36.51202840173713        2.56025734150375        0.07439842762682
Fe          73.54240161187616        0.05411008122796       -0.01648215636177
C           76.93511598061365        0.06045086712968       -0.05164859644347
C           76.28576645374288        1.22509137431835       -0.40501315660401
C           76.96660965388359        2.42984550979757       -0.77314877658589
C           76.01353777041649        3.37377072216022       -0.95378990589215
C           74.75059815687899        2.74085142106526       -0.70347340319466
N           74.93007934851995        1.42275424814559       -0.38315319783328
C           73.53414321857943        3.41440181502663       -0.69650574340979
C           73.53102843440844        4.86779224633101       -0.98779395049945
C           73.17269697437031        5.79998455942744       -0.01542492658861
C           73.18594464703780        7.14831248906574       -0.33656949718524
N           73.52234551394595        7.60294057368234       -1.53926784742570
C           73.86355956050878        6.71991950259934       -2.47205467174934
C           73.88562615161720        5.35261484022103       -2.24560690117518
C           72.32400023370656        2.79066416178654       -0.43172619571406
C           71.06093985270560        3.46711405441983       -0.44148447621564
C           70.11093535937256        2.52140343653536       -0.24973622402938
N           72.14219902042080        1.44376709254702       -0.22298974957153
C           70.79281058601055        1.27039292990366       -0.13469157698870
C           70.12796608446692        0.04534956036968       -0.00136461957136
C           70.80159532127844       -1.17451510150669        0.13511933796340
C           70.13104919387206       -2.43381898351423        0.22204176447966
C           71.08795831852741       -3.37264455714028        0.41483876471636
C           72.34225792535983       -2.68116694372088        0.44878577886891
N           72.15148299157727       -1.33616406287504        0.23854297087133
C           73.55945294272136       -3.30136773233578        0.69109001757681
C           73.56542668319608       -4.75089914971592        0.99410611499362
C           74.21853583062776       -5.66188962405864        0.16488578828725
C           74.19233483073968       -7.00909297388950        0.48935322390276
N           73.57426082927215       -7.48280255442778        1.56640518712211
C           72.95142648561379       -6.62061005547245        2.36339445694586
C           72.91636766948358       -5.25669735681196        2.11974238849703
C           74.77393289381924       -2.62456387663090        0.65650484065906
C           76.04077481308346       -3.23696655468946        0.93601724261742
C           76.98711879625878       -2.29401947389143        0.71772541440446
C           76.29649807970745       -1.10471877178798        0.31908791439480
N           74.94174774840943       -1.31026595988934        0.31500832404114
H           78.01929552763323        0.06308206765842       -0.05889859938308
H           78.03701846122696        2.52430421672529       -0.86395422101665
H           76.14194360302906        4.41072827230467       -1.21833147508045
H           72.90126608649707        5.47450404440438        0.98167160534690
H           72.91415906855528        7.89459218850665        0.40418289614485
H           74.13143198683527        7.12238950484932       -3.44457085573415
H           74.16036631030573        4.66795090818777       -3.03906526446932
H           70.92740521183627        4.52620843126231       -0.58927773105304
H           69.04207147855765        2.64626106989703       -0.19267646379644
H           69.06549298579316       -2.56989195876765        0.13621554569064
H           70.96639939428539       -4.43871050565260        0.51561961117945
H           74.72556105574114       -5.32175994802351       -0.73016127969845
H           74.68931789165917       -7.73859687582099       -0.14339161161654
H           72.45762556686819       -7.03806838574687        3.23598913293293
H           72.40480528587665       -4.58900297274166        2.80268335284533
H           76.17496453926029       -4.25608096842405        1.26030360585450
H           78.05803502509124       -2.37613997814018        0.81430415426387
C           45.81709827718787        0.00411428108676       -0.02300171601924
C           47.03532304994719        0.00551189792126       -0.02341814945986
C           56.66622178140131       -0.00611678941148       -0.02290660541770
C           57.88594692654593       -0.00552218991143       -0.02593884076004
C           67.50455432118345        0.03077210826335       -0.01589521464274
C           68.72355711616291        0.03903099000026       -0.00803821698715
Fe          51.85198789544570       -0.00378658424459       -0.02635564012500
C           48.43914362104207        0.00324089894546       -0.02459273929433
C           49.10778324942123       -0.79601912311659        0.91049410976714
C           48.43717226648194       -1.56836939662509        1.90798197614107
C           49.39174077283910       -2.28395201898804        2.55165366927108
C           50.64050894871310       -1.95019143822537        1.93589131833875
N           50.45471095894286       -1.00131731674539        0.96145844008018
C           51.84917713424295       -2.56479469045941        2.24341713292289
C           51.84758402890813       -3.66969339227885        3.22830619744443
C           51.11469566643002       -4.83546151049754        3.00867996126252
C           51.14632551717739       -5.84195880330737        3.96100394048606
N           51.84265373966940       -5.74970744547158        5.08924013257095
C           52.54181587517839       -4.64073432369830        5.30748767930256
C           52.57847205322528       -3.58295284072475        4.41271678398408
C           53.05781577576091       -2.18947945602815        1.67151079100577
C           54.30526523550535       -2.84453611764058        1.92745599609770
C           55.26136614915018       -2.12075738491892        1.29555431064151
N           53.24748673728477       -1.10654293154781        0.84752306566559
C           54.59338324182562       -1.03377871357001        0.65212025141945
C           55.26573654210877       -0.00541341853600       -0.02273827099921
C           54.59549306661120        1.02292164574339       -0.69982247239461
C           55.26583060334832        2.10792012124432       -1.34414384524084
C           54.31207106878883        2.82966603345649       -1.98185532927878
C           53.06358779388432        2.17588564223511       -1.72776733080707
N           53.25023853652353        1.09555169736650       -0.89976426744545
C           51.85662830181796        2.55105529881028       -2.30341818742604
C           51.85920457537421        3.65255110506469       -3.29201946594223
C           52.59376039979335        3.56129563514726       -4.47377382934421
C           52.56172453616836        4.61672100619337       -5.37164415354004
N           51.86367236248779        5.72736348736354       -5.15885167683497
C           51.16356919177746        5.82382218509835       -4.03321680683335
C           51.12736419922260        4.82016350960798       -3.07814550947616
C           50.64610147106230        1.94103818905992       -1.99422739016108
C           49.39806092515879        2.27732085628515       -2.61020070566535
C           48.44105163769096        1.56953708332846       -1.96155550929936
C           49.10964127142575        0.79814777393318       -0.96199114647206
N           50.45732007716471        0.99702241409790       -1.01564981262071
H           47.37419624903055       -1.55314620377368        2.08609322630365
H           49.26995717718836       -2.97196006140308        3.37212885288694
H           50.54188354274422       -4.95862828329596        2.09734307543951
H           50.58774656257025       -6.76111206643869        3.81085184536225
H           53.09802182609246       -4.59471001447969        6.23912223424067
H           53.15305665509177       -2.69231389673932        4.63738150151199
H           54.42447515502722       -3.74340363314821        2.50993055870755
H           56.32363632664914       -2.29931700915383        1.25739707900988
H           56.32790941274173        2.28676699576993       -1.30263851285892
H           54.43355408402654        3.72654487921814       -2.56689583411168
H           53.16775800971121        2.66920479288065       -4.69418447543586
H           53.12114534449267        4.56695281881018       -6.30116201440551
H           50.60604293996709        6.74432710813663       -3.88739660565093
H           50.55205751322292        4.94698974150497       -2.16887284573642
H           49.27841630755947        2.96175963428282       -3.43396199822449
H           47.37772062502502        1.55837193943051       -2.13793836583995
Fe          62.69355404231378        0.00214686165563       -0.03301980802255
C           59.28608344586498       -0.00487099913165       -0.02884188976103
C           59.96256840124966       -0.73601659609825        0.95811977010473
C           59.30685071404720       -1.43642141309515        2.01673690735750
C           60.26569470109069       -2.13674721452962        2.67177862189969
C           61.50227299348001       -1.86580595991408        2.00237884205288
N           61.30570325108405       -0.95941845920059        0.98936202202971
C           62.70325754771611       -2.50805102625419        2.27840694737887
C           62.71072324827511       -3.58957374549430        3.28760125544493
C           61.91240816751526       -4.72356957678245        3.14043272803194
C           61.95588517587407       -5.71071333396662        4.11227606086729
N           62.72407904448126       -5.62886067640963        5.19371237906581
C           63.48554505411551       -4.54991452975957        5.34348708369947
C           63.51563465024489       -3.51340675496158        4.42401695694544
C           63.89926805144853       -2.17764436199164        1.64972675860491
C           65.13995786890420       -2.85798602950804        1.86686750891311
C           66.09343818215800       -2.14468386600235        1.21827492030410
N           64.08727319433605       -1.09844157821884        0.82241192130653
C           65.43095393482535       -1.04190616488898        0.59741255867595
C           66.10144678123447        0.02139842957594       -0.02336774459950
C           65.42255575732081        1.07327094314258       -0.65393360478703
C           66.07633292970344        2.17819304955414       -1.28037496778653
C           65.11944016302043        2.87282656639598       -1.94401530218011
C           63.88511474044731        2.18073502002504       -1.72779096797597
N           64.07985715676567        1.11143424071896       -0.88964962354382
C           62.68786012220981        2.49567471867145       -2.36227999604098
C           62.68900585313355        3.56592844448734       -3.38351321743908
C           63.49371191461736        3.47992619915670       -4.51934427908946
C           63.45446669564572        4.50275092771806       -5.45370028666295
N           62.68474423108614        5.57775197539684       -5.31860711557927
C           61.91812126809527        5.66988812806004       -4.23686942307294
C           61.88334607963357        4.69655007418268       -3.25085898349414
C           61.49060480692795        1.84959589501726       -2.07964723475680
C           60.25100602868650        2.11175861117084       -2.74710041709501
C           59.29601581231093        1.41562674124748       -2.08215652561773
C           59.95726614016117        0.72467071039575       -1.02073947846527
N           61.29972072369211        0.95037650389533       -1.05890444472937
H           58.25026380370497       -1.38845582566660        2.22448000364165
H           60.15411511013896       -2.77589407006631        3.53233396191205
H           61.28031408741766       -4.83864017209585        2.26803188074103
H           61.34710318609363       -6.60504680074464        4.01764735292307
H           64.09991611565054       -4.51152938832790        6.23820049057775
H           64.14249497512871       -2.64619676541163        4.59387888882735
H           65.25856336494192       -3.76231899300112        2.44092491401426
H           67.15275868230894       -2.33507804143309        1.16622098757439
H           67.13303503872454        2.38119189507134       -1.22274524774118
H           65.23133502979586        3.77221221019387       -2.52715329733483
H           64.12705071339381        2.61518333658475       -4.67734438023715
H           64.06769947307960        4.45592735608761       -6.34878140789316
H           61.30280850983886        6.56095637507593       -4.15427479076399
H           61.25181817262344        4.81975852242007       -2.37915100065859
H           60.13481593275230        2.74324592104888       -3.61266498440878
H           58.23883422397979        1.36357858390937       -2.28578536930786

          :  Hamiltonian                  GFN1-xTB          :
         :: total energy            -390.309759123960 Eh    ::
         :: gradient norm              0.000406650520 Eh/a0 ::
         :: HOMO-LUMO gap              0.033600180569 eV    ::
         :: SCC energy              -396.371108189526 Eh    ::
         :: repulsion energy           6.274591521397 Eh    ::

    * Orbital Energies and Occupations

         #    Occupation            Energy/Eh            Energy/eV
      -------------------------------------------------------------
         1        2.0000           -0.7802871             -21.2327
       ...           ...                  ...                  ...
       349        1.9935           -0.3956624             -10.7665
       350        1.9927           -0.3955631             -10.7638
       351        1.9922           -0.3955007             -10.7621
       352        1.9917           -0.3954390             -10.7604
       353        1.9706           -0.3942247             -10.7274
       354        1.9704           -0.3942191             -10.7272
       355        1.9637           -0.3940220             -10.7219
       356        1.9608           -0.3939457             -10.7198
       357        1.9537           -0.3937843             -10.7154
       358        1.9508           -0.3937266             -10.7138
       359        1.9502           -0.3937132             -10.7135
       360        1.9460           -0.3936353             -10.7114
       361        0.9278           -0.3900921             -10.6149 (HOMO)
       362        0.3817           -0.3888573             -10.5813 (LUMO)
       363        0.3785           -0.3888474             -10.5811
       364        0.3404           -0.3887246             -10.5777
       365        0.3388           -0.3887190             -10.5776
       366                         -0.3540408              -9.6339
       367                         -0.3445531              -9.3758
       368                         -0.3396061              -9.2412
       369                         -0.3392821              -9.2323
       370                         -0.3355306              -9.1303
       371                         -0.3352723              -9.1232
       372                         -0.3352073              -9.1215
       ...                                ...                  ...
       768                          1.3273812              36.1199
      -------------------------------------------------------------
                  HL-Gap            0.0012348 Eh            0.0336 eV

Wiberg/Mayer (AO) data.
largest (>0.10) Wiberg bond orders for each atom

     #   Z sym  total        # sym  WBO       # sym  WBO       # sym  WBO
 ---------------------------------------------------------------------------
     1  26 Fe   3.111 --    37 N    0.666     7 N    0.666    18 N    0.659
                            25 N    0.659
     2   6 C    3.918 --     3 C    1.363    36 C    1.363    38 H    0.970
     3   6 C    3.924 --     2 C    1.363     7 N    1.209     4 C    1.172
     4   6 C    3.959 --     5 C    1.651     3 C    1.172    39 H    0.975
     5   6 C    3.961 --     4 C    1.651     6 C    1.174    40 H    0.973
     6   6 C    3.921 --     8 C    1.314     7 N    1.224     5 C    1.174
     7   7 N    3.379 --     6 C    1.224     3 C    1.209     1 Fe   0.666
     8   6 C    3.921 --    15 C    1.335     6 C    1.314     9 C    1.023
     9   6 C    3.986 --    10 C    1.395    14 C    1.394     8 C    1.023
                            12 N    0.107
    10   6 C    3.987 --    11 C    1.441     9 C    1.395    41 H    0.973
                            13 C    0.109
    11   6 C    3.972 --    10 C    1.441    12 N    1.416    42 H    0.972
                            14 C    0.109
    12   7 N    3.031 --    11 C    1.416    13 C    1.416     9 C    0.107
    13   6 C    3.972 --    14 C    1.441    12 N    1.416    43 H    0.972
                            10 C    0.109
    14   6 C    3.987 --    13 C    1.441     9 C    1.394    44 H    0.973
                            11 C    0.109
    15   6 C    3.918 --     8 C    1.335    18 N    1.200    16 C    1.178
    16   6 C    3.957 --    17 C    1.640    15 C    1.178    45 H    0.972
    17   6 C    3.961 --    16 C    1.640    19 C    1.186    46 H    0.971
    18   7 N    3.377 --    19 C    1.244    15 C    1.200     1 Fe   0.659
    19   6 C    3.909 --    20 C    1.256    18 N    1.244    17 C    1.186
    20   6 C    3.920 --    21 C    1.256    19 C    1.256   109 C    1.189
    21   6 C    3.909 --    20 C    1.256    25 N    1.242    22 C    1.187
    22   6 C    3.960 --    23 C    1.638    21 C    1.187    47 H    0.971
    23   6 C    3.957 --    22 C    1.638    24 C    1.179    48 H    0.973
    24   6 C    3.919 --    26 C    1.331    25 N    1.201    23 C    1.179
    25   7 N    3.377 --    21 C    1.242    24 C    1.201     1 Fe   0.659
    26   6 C    3.921 --    24 C    1.331    33 C    1.313    27 C    1.030
    27   6 C    3.986 --    28 C    1.392    32 C    1.391    26 C    1.030
                            30 N    0.106
    28   6 C    3.986 --    29 C    1.442    27 C    1.392    49 H    0.973
                            31 C    0.109
    29   6 C    3.972 --    28 C    1.442    30 N    1.416    50 H    0.972
                            32 C    0.109
    30   7 N    3.030 --    29 C    1.416    31 C    1.415    27 C    0.106
    31   6 C    3.972 --    32 C    1.442    30 N    1.415    51 H    0.972
                            28 C    0.109
    32   6 C    3.986 --    31 C    1.442    27 C    1.391    52 H    0.973
                            29 C    0.109
    33   6 C    3.921 --    26 C    1.313    37 N    1.224    34 C    1.175
    34   6 C    3.962 --    35 C    1.650    33 C    1.175    53 H    0.973
    35   6 C    3.959 --    34 C    1.650    36 C    1.173    54 H    0.975
    36   6 C    3.924 --     2 C    1.363    37 N    1.208    35 C    1.173
    37   7 N    3.379 --    33 C    1.224    36 C    1.208     1 Fe   0.666
    38   1 H    1.000 --     2 C    0.970
    39   1 H    0.997 --     4 C    0.975
    40   1 H    1.004 --     5 C    0.973
    41   1 H    1.003 --    10 C    0.973
    42   1 H    1.013 --    11 C    0.972
    43   1 H    1.013 --    13 C    0.972
    44   1 H    1.003 --    14 C    0.973
    45   1 H    1.004 --    16 C    0.972
    46   1 H    1.004 --    17 C    0.971
    47   1 H    1.004 --    22 C    0.971
    48   1 H    1.004 --    23 C    0.973
    49   1 H    1.004 --    28 C    0.973
    50   1 H    1.013 --    29 C    0.972
    51   1 H    1.013 --    31 C    0.972
    52   1 H    1.004 --    32 C    0.973
    53   1 H    1.004 --    34 C    0.973
    54   1 H    0.997 --    35 C    0.975
    55  26 Fe   3.089 --    91 N    0.662    61 N    0.662    72 N    0.656
                            79 N    0.655
    56   6 C    3.917 --    57 C    1.363    90 C    1.363    92 H    0.970
    57   6 C    3.924 --    56 C    1.363    61 N    1.210    58 C    1.172
    58   6 C    3.959 --    59 C    1.651    57 C    1.172    93 H    0.975
    59   6 C    3.962 --    58 C    1.651    60 C    1.174    94 H    0.973
    60   6 C    3.921 --    62 C    1.313    61 N    1.226    59 C    1.174
    61   7 N    3.377 --    60 C    1.226    57 C    1.210    55 Fe   0.662
    62   6 C    3.919 --    69 C    1.336    60 C    1.313    63 C    1.023
    63   6 C    3.986 --    68 C    1.394    64 C    1.394    62 C    1.023
                            66 N    0.107
    64   6 C    3.987 --    65 C    1.441    63 C    1.394    95 H    0.973
                            67 C    0.109
    65   6 C    3.972 --    64 C    1.441    66 N    1.416    96 H    0.972
                            68 C    0.109
    66   7 N    3.031 --    67 C    1.416    65 C    1.416    63 C    0.107
    67   6 C    3.972 --    68 C    1.441    66 N    1.416    97 H    0.972
                            64 C    0.109
    68   6 C    3.987 --    67 C    1.441    63 C    1.394    98 H    0.973
                            65 C    0.109
    69   6 C    3.919 --    62 C    1.336    72 N    1.199    70 C    1.178
    70   6 C    3.956 --    71 C    1.639    69 C    1.178    99 H    0.972
    71   6 C    3.961 --    70 C    1.639    73 C    1.187   100 H    0.969
    72   7 N    3.376 --    73 C    1.247    69 C    1.199    55 Fe   0.656
    73   6 C    3.909 --    74 C    1.253    72 N    1.247    71 C    1.187
    74   6 C    3.918 --    75 C    1.253    73 C    1.253   114 C    1.194
    75   6 C    3.909 --    74 C    1.253    79 N    1.246    76 C    1.188
    76   6 C    3.961 --    77 C    1.638    75 C    1.188   101 H    0.969
    77   6 C    3.957 --    76 C    1.638    78 C    1.179   102 H    0.973
    78   6 C    3.919 --    80 C    1.334    79 N    1.201    77 C    1.179
    79   7 N    3.375 --    75 C    1.246    78 C    1.201    55 Fe   0.655
    80   6 C    3.920 --    78 C    1.334    87 C    1.312    81 C    1.028
    81   6 C    3.986 --    82 C    1.392    86 C    1.392    80 C    1.028
                            84 N    0.107
    82   6 C    3.986 --    83 C    1.442    81 C    1.392   103 H    0.973
                            85 C    0.109
    83   6 C    3.972 --    82 C    1.442    84 N    1.416   104 H    0.972
                            86 C    0.109
    84   7 N    3.030 --    83 C    1.416    85 C    1.416    81 C    0.107
    85   6 C    3.972 --    86 C    1.442    84 N    1.416   105 H    0.972
                            82 C    0.109
    86   6 C    3.987 --    85 C    1.442    81 C    1.392   106 H    0.973
                            83 C    0.109
    87   6 C    3.921 --    80 C    1.312    91 N    1.226    88 C    1.175
    88   6 C    3.962 --    89 C    1.650    87 C    1.175   107 H    0.973
    89   6 C    3.959 --    88 C    1.650    90 C    1.173   108 H    0.975
    90   6 C    3.924 --    56 C    1.363    91 N    1.210    89 C    1.173
    91   7 N    3.377 --    87 C    1.226    90 C    1.210    55 Fe   0.662
    92   1 H    1.000 --    56 C    0.970
    93   1 H    0.997 --    58 C    0.975
    94   1 H    1.004 --    59 C    0.973
    95   1 H    1.003 --    64 C    0.973
    96   1 H    1.013 --    65 C    0.972
    97   1 H    1.013 --    67 C    0.972
    98   1 H    1.003 --    68 C    0.973
    99   1 H    1.004 --    70 C    0.972
   100   1 H    1.005 --    71 C    0.969
   101   1 H    1.005 --    76 C    0.969
   102   1 H    1.004 --    77 C    0.973
   103   1 H    1.004 --    82 C    0.973
   104   1 H    1.013 --    83 C    0.972
   105   1 H    1.013 --    85 C    0.972
   106   1 H    1.004 --    86 C    0.973
   107   1 H    1.004 --    88 C    0.973
   108   1 H    0.997 --    89 C    0.975
   109   6 C    3.915 --   110 C    2.549    20 C    1.189
   110   6 C    3.923 --   109 C    2.549   116 C    1.193
   111   6 C    3.916 --   112 C    2.530   134 C    1.208
   112   6 C    3.917 --   111 C    2.530   169 C    1.209
   113   6 C    3.922 --   114 C    2.545   187 C    1.199
   114   6 C    3.916 --   113 C    2.545    74 C    1.194
   115  26 Fe   3.049 --   121 N    0.646   151 N    0.646   139 N    0.644
                           132 N    0.644
   116   6 C    3.903 --   117 C    1.252   150 C    1.252   110 C    1.193
   117   6 C    3.911 --   116 C    1.252   121 N    1.245   118 C    1.191
   118   6 C    3.960 --   119 C    1.632   117 C    1.191   152 H    0.971
   119   6 C    3.959 --   118 C    1.632   120 C    1.184   153 H    0.973
   120   6 C    3.916 --   122 C    1.316   121 N    1.209   119 C    1.184
   121   7 N    3.365 --   117 C    1.245   120 C    1.209   115 Fe   0.646
   122   6 C    3.911 --   129 C    1.325   120 C    1.316   123 C    1.031
   123   6 C    3.986 --   124 C    1.391   128 C    1.391   122 C    1.031
                           126 N    0.106
   124   6 C    3.986 --   125 C    1.441   123 C    1.391   154 H    0.973
                           127 C    0.109
   125   6 C    3.972 --   124 C    1.441   126 N    1.416   155 H    0.972
                           128 C    0.109
   126   7 N    3.030 --   127 C    1.416   125 C    1.416   123 C    0.106
   127   6 C    3.972 --   128 C    1.442   126 N    1.416   156 H    0.972
                           124 C    0.109
   128   6 C    3.986 --   127 C    1.442   123 C    1.391   157 H    0.973
                           125 C    0.109
   129   6 C    3.917 --   122 C    1.325   132 N    1.203   130 C    1.183
   130   6 C    3.958 --   131 C    1.633   129 C    1.183   158 H    0.973
   131   6 C    3.960 --   130 C    1.633   133 C    1.191   159 H    0.971
   132   7 N    3.363 --   133 C    1.252   129 C    1.203   115 Fe   0.644
   133   6 C    3.909 --   132 N    1.252   134 C    1.244   131 C    1.191
   134   6 C    3.902 --   133 C    1.244   135 C    1.244   111 C    1.208
   135   6 C    3.909 --   139 N    1.252   134 C    1.244   136 C    1.191
   136   6 C    3.960 --   137 C    1.633   135 C    1.191   160 H    0.971
   137   6 C    3.958 --   136 C    1.633   138 C    1.183   161 H    0.973
   138   6 C    3.917 --   140 C    1.325   139 N    1.203   137 C    1.183
   139   7 N    3.363 --   135 C    1.252   138 C    1.203   115 Fe   0.644
   140   6 C    3.911 --   138 C    1.325   147 C    1.317   141 C    1.031
   141   6 C    3.986 --   142 C    1.391   146 C    1.391   140 C    1.031
                           144 N    0.106
   142   6 C    3.986 --   143 C    1.441   141 C    1.391   162 H    0.973
                           145 C    0.109
   143   6 C    3.972 --   142 C    1.441   144 N    1.416   163 H    0.972
                           146 C    0.109
   144   7 N    3.030 --   143 C    1.416   145 C    1.416   141 C    0.106
   145   6 C    3.972 --   146 C    1.442   144 N    1.416   164 H    0.972
                           142 C    0.109
   146   6 C    3.986 --   145 C    1.442   141 C    1.391   165 H    0.973
                           143 C    0.109
   147   6 C    3.916 --   140 C    1.317   151 N    1.209   148 C    1.184
   148   6 C    3.959 --   149 C    1.632   147 C    1.184   166 H    0.973
   149   6 C    3.960 --   148 C    1.632   150 C    1.191   167 H    0.971
   150   6 C    3.911 --   116 C    1.252   151 N    1.245   149 C    1.191
   151   7 N    3.365 --   150 C    1.245   147 C    1.209   115 Fe   0.646
   152   1 H    1.003 --   118 C    0.971
   153   1 H    1.004 --   119 C    0.973
   154   1 H    1.004 --   124 C    0.973
   155   1 H    1.013 --   125 C    0.972
   156   1 H    1.013 --   127 C    0.972
   157   1 H    1.004 --   128 C    0.973
   158   1 H    1.004 --   130 C    0.973
   159   1 H    1.004 --   131 C    0.971
   160   1 H    1.004 --   136 C    0.971
   161   1 H    1.004 --   137 C    0.973
   162   1 H    1.004 --   142 C    0.973
   163   1 H    1.013 --   143 C    0.972
   164   1 H    1.013 --   145 C    0.972
   165   1 H    1.004 --   146 C    0.973
   166   1 H    1.004 --   148 C    0.973
   167   1 H    1.003 --   149 C    0.971
   168  26 Fe   3.070 --   185 N    0.649   192 N    0.648   204 N    0.646
                           174 N    0.646
   169   6 C    3.901 --   170 C    1.244   203 C    1.243   112 C    1.209
   170   6 C    3.909 --   174 N    1.251   169 C    1.244   171 C    1.192
   171   6 C    3.960 --   172 C    1.632   170 C    1.192   205 H    0.971
   172   6 C    3.958 --   171 C    1.632   173 C    1.183   206 H    0.973
   173   6 C    3.917 --   175 C    1.323   174 N    1.203   172 C    1.183
   174   7 N    3.362 --   170 C    1.251   173 C    1.203   168 Fe   0.646
   175   6 C    3.911 --   173 C    1.323   182 C    1.316   176 C    1.033
   176   6 C    3.986 --   177 C    1.390   181 C    1.390   175 C    1.033
                           179 N    0.106
   177   6 C    3.986 --   178 C    1.442   176 C    1.390   207 H    0.972
                           180 C    0.109
   178   6 C    3.972 --   177 C    1.442   179 N    1.416   208 H    0.972
                           181 C    0.109
   179   7 N    3.030 --   178 C    1.416   180 C    1.416   176 C    0.106
   180   6 C    3.972 --   181 C    1.442   179 N    1.416   209 H    0.972
                           177 C    0.109
   181   6 C    3.986 --   180 C    1.442   176 C    1.390   210 H    0.972
                           178 C    0.109
   182   6 C    3.916 --   175 C    1.316   185 N    1.207   183 C    1.185
   183   6 C    3.959 --   184 C    1.631   182 C    1.185   211 H    0.973
   184   6 C    3.960 --   183 C    1.631   186 C    1.192   212 H    0.969
   185   7 N    3.365 --   186 C    1.245   182 C    1.207   168 Fe   0.649
   186   6 C    3.910 --   187 C    1.249   185 N    1.245   184 C    1.192
   187   6 C    3.903 --   188 C    1.250   186 C    1.249   113 C    1.199
   188   6 C    3.910 --   187 C    1.250   192 N    1.244   189 C    1.192
   189   6 C    3.960 --   190 C    1.631   188 C    1.192   213 H    0.969
   190   6 C    3.959 --   189 C    1.631   191 C    1.185   214 H    0.973
   191   6 C    3.916 --   193 C    1.315   192 N    1.208   190 C    1.185
   192   7 N    3.365 --   188 C    1.244   191 C    1.208   168 Fe   0.648
   193   6 C    3.911 --   200 C    1.324   191 C    1.315   194 C    1.033
   194   6 C    3.986 --   199 C    1.390   195 C    1.390   193 C    1.033
                           197 N    0.106
   195   6 C    3.986 --   196 C    1.442   194 C    1.390   215 H    0.972
                           198 C    0.109
   196   6 C    3.972 --   195 C    1.442   197 N    1.416   216 H    0.972
                           199 C    0.109
   197   7 N    3.030 --   198 C    1.416   196 C    1.416   194 C    0.106
   198   6 C    3.972 --   199 C    1.442   197 N    1.416   217 H    0.972
                           195 C    0.109
   199   6 C    3.986 --   198 C    1.442   194 C    1.390   218 H    0.972
                           196 C    0.109
   200   6 C    3.917 --   193 C    1.324   204 N    1.202   201 C    1.183
   201   6 C    3.958 --   202 C    1.632   200 C    1.183   219 H    0.973
   202   6 C    3.960 --   201 C    1.632   203 C    1.192   220 H    0.971
   203   6 C    3.909 --   204 N    1.251   169 C    1.243   202 C    1.192
   204   7 N    3.363 --   203 C    1.251   200 C    1.202   168 Fe   0.646
   205   1 H    1.004 --   171 C    0.971
   206   1 H    1.004 --   172 C    0.973
   207   1 H    1.004 --   177 C    0.972
   208   1 H    1.013 --   178 C    0.972
   209   1 H    1.013 --   180 C    0.972
   210   1 H    1.004 --   181 C    0.972
   211   1 H    1.004 --   183 C    0.973
   212   1 H    1.005 --   184 C    0.969
   213   1 H    1.005 --   189 C    0.969
   214   1 H    1.003 --   190 C    0.973
   215   1 H    1.004 --   195 C    0.972
   216   1 H    1.013 --   196 C    0.972
   217   1 H    1.013 --   198 C    0.972
   218   1 H    1.004 --   199 C    0.972
   219   1 H    1.004 --   201 C    0.973
   220   1 H    1.004 --   202 C    0.971
 ---------------------------------------------------------------------------

           -------------------------------------------------
          | TOTAL ENERGY             -390.309759123960 Eh   |
          | GRADIENT NORM               0.000406650520 Eh/α |
          | HOMO-LUMO GAP               0.033600180569 eV   |
           -------------------------------------------------

 * finished run on 2022/07/29 at 16:39:53.105
