   * xtb version 6.5.1 (b24c23e) compiled by 'conda@728c89f4b128' on 2022-07-12
          program call               : xtb Zn_BSA_C8_3.xyz --gfn 1 --opt -T 48

   ID    Z sym.   atoms
    1   30 Zn     1, 65, 145
    2    6 C      2-6, 8-12, 17-21, 23-28, 30-34, 39-44, 66-70, 72-76, 81-85,
                  87-92, 94-98, 103-108, 129-144, 146-150, 152-156, 161-165,
                  167-172, 174-178, 183-188
    3    7 N      7, 22, 29, 45, 71, 86, 93, 109, 151, 166, 173, 189
    4   16 S      13, 35, 77, 99, 157, 179
    5    8 O      14-16, 36-38, 78-80, 100-102, 158-160, 180-182
    6    1 H      46-64, 110-128, 190-207

          :  Hamiltonian                  GFN1-xTB          :
 * total energy  :  -412.3477976 Eh     change       -0.1127160E-07 Eh
 * total energy  :  -412.7613582 Eh     change       -0.4135606E+00 Eh
 * total energy  :  -412.9276089 Eh     change       -0.1662508E+00 Eh
 * total energy  :  -412.9991819 Eh     change       -0.7157291E-01 Eh
 * total energy  :  -413.0504092 Eh     change       -0.5122729E-01 Eh
 * total energy  :  -413.1039483 Eh     change       -0.5353913E-01 Eh
 * total energy  :  -413.1630058 Eh     change       -0.5905756E-01 Eh
 * total energy  :  -413.2078280 Eh     change       -0.4482213E-01 Eh
 * total energy  :  -413.2399814 Eh     change       -0.3215344E-01 Eh
 * total energy  :  -413.2662938 Eh     change       -0.2631241E-01 Eh
 * total energy  :  -413.4347110 Eh     change       -0.2491096E-04 Eh
 * total energy  :  -413.4346980 Eh     change        0.1301799E-04 Eh
 * total energy  :  -413.4347183 Eh     change       -0.2026122E-04 Eh
 * total energy  :  -413.4346920 Eh     change        0.2623142E-04 Eh
 * total energy  :  -413.4347219 Eh     change       -0.2992614E-04 Eh
 * total energy  :  -413.4347225 Eh     change       -0.5987202E-06 Eh
 * total energy  :  -413.4347292 Eh     change       -0.6691862E-05 Eh
 * total energy  :  -413.4347329 Eh     change       -0.3675444E-05 Eh
 * total energy  :  -413.4347366 Eh     change       -0.3657086E-05 Eh
   *** GEOMETRY OPTIMIZATION CONVERGED AFTER 78 ITERATIONS ***

 final structure:
================
207
 xtb: 6.5.1 (b24c23e)
Zn          28.86044985940404        0.04671919807105        0.01173255064592
C           25.45156622291876        0.10494080714622        0.06072917690696
C           26.08224267568078       -0.19766651455617        1.26129753709018
C           25.40904861125541       -0.50933236432547        2.49136596057794
C           26.36843960980657       -0.74806799772535        3.41958562489536
C           27.64095964752346       -0.57358325116192        2.76951917217490
N           27.43197873126732       -0.24914641260170        1.46160328917446
C           28.89346298422467       -0.73839902577378        3.37330287140035
C           28.90654396282742       -1.08452737148606        4.81622874996865
C           28.37540680155417       -0.20053182761995        5.75897976121796
C           28.38433789921227       -0.51991199890702        7.10667095882107
C           28.92333733262657       -1.73472164259050        7.49861383294967
S           28.94149731042530       -2.14250775680011        9.20304817520150
O           28.92183059229851       -0.95893853364695       10.01164032353073
O           27.47709325316222       -2.84090065380022        9.29395914205672
O           29.93186530429205       -3.14161899803155        9.47864803973634
C           29.45936407770471       -2.63120504858797        6.58841310531969
C           29.45044409539600       -2.29837921322280        5.24390806430702
C           30.13299306875296       -0.60689589048270        2.73751464463685
C           31.41306486854165       -0.72199584161262        3.38083404767154
C           32.35829512714255       -0.51052435504562        2.43018837228149
N           30.32475582696310       -0.31579159413220        1.41389119201543
C           31.66673224326790       -0.25738123088352        1.20005552544360
C           32.29631160144018        0.00437518220217       -0.03317703723303
C           31.64141169627383        0.27599840144140       -1.25092652850733
C           32.30653259397800        0.50508059740895       -2.50008958595557
C           31.34203352395104        0.73147593658182       -3.42780624030013
C           30.07678160023016        0.65265752401692       -2.75059208043513
N           30.29606911473200        0.36487247595545       -1.43052758387218
C           28.82433162112723        0.81562065369172       -3.35326679221348
C           28.80641927813148        1.14817312093214       -4.79915422587294
C           28.20878690352012        0.27864552248786       -5.71525558414985
C           28.18330245322640        0.58686313453746       -7.06534146108312
C           28.75959129917960        1.77409784880439       -7.48730299833623
S           28.71459985789538        2.17771399243152       -9.19254153336135
O           28.86223975682840        3.59009121714350       -9.39297350228308
O           30.10486599144953        1.46914414918487       -9.64601290797041
O           27.62766126408379        1.50402264136540       -9.83857509593598
C           29.35661250590370        2.65838791297982       -6.60340720392599
C           29.37932708979466        2.33788247101072       -5.25610684171695
C           27.58480004442537        0.69623712996676       -2.71274504848155
C           26.30084246078073        0.91433897743870       -3.32634687266045
C           25.36102326430421        0.71520367647687       -2.36932745187594
C           26.05801311695614        0.38317244763988       -1.15800850295292
N           27.40243438672251        0.38488345311427       -1.39766788991516
H           24.36632025069418        0.12505649775554        0.07637650545233
H           24.33812500663338       -0.54587466031057        2.61495388975806
H           26.23148172894577       -1.02843731226261        4.45169084740729
H           27.96874941834063        0.74948465579874        5.43233872214798
H           27.98578296319639        0.16270738400213        7.84665491076553
H           27.30497331295436       -3.13727107043758       10.19593019280027
H           29.87740963238718       -3.56970237021492        6.93023294371943
H           29.85554599135639       -2.98984137067697        4.51425287163494
H           31.56700661659428       -0.92493709600657        4.42838546962614
H           33.43039908615703       -0.51747677360102        2.54537861943162
H           33.37520135158843        0.48579583166216       -2.64280993871475
H           31.47367901813927        0.92277066582577       -4.48059683988448
H           27.77305377653594       -0.65013887613862       -5.36582747876518
H           27.72108763606086       -0.07903639880795       -7.78316218929662
H           30.35563729936928        1.76626202759993      -10.52907964621116
H           29.78690008529232        3.58346097838834       -6.96607065824338
H           29.82893823157156        3.02247336659805       -4.54632251354087
H           26.14368083771667        1.19603805889910       -4.35516340309601
H           24.28903926177854        0.79105396346715       -2.46177949882826
Zn          66.10499919539056        0.03970260071862       -0.00834364578191
C           69.51411189687985        0.12301310129028       -0.03243336257027
C           68.88291862269995        0.28395688217154       -1.25974925033249
C           69.55546145342430        0.45282841605947       -2.51773226097721
C           68.59557745527836        0.57087294932554       -3.46837120156705
C           67.32338673686208        0.48626248802643       -2.79997791484270
N           67.53307711104732        0.30453187528089       -1.46491779235084
C           66.07065288533573        0.54895754789390       -3.42234018473019
C           66.05775351580560        0.76291954355571       -4.89071887288857
C           66.58154170844230        1.93768189346544       -5.43657375804802
C           66.57419470197667        2.14165909326292       -6.80648378628517
C           66.04414336217521        1.15539769857383       -7.62269379310549
S           66.02959100394075        1.40894819480196       -9.35681064396685
O           66.04501206517131        2.80816575470630       -9.66785709432277
O           67.49662909494171        0.79796297096749       -9.69638948424138
O           65.04436955569568        0.57987831850967       -9.98705066060654
C           65.51522198369643       -0.01875212702360       -7.11169581502989
C           65.52246110873804       -0.20905927585218       -5.73971997901481
C           64.83156909619471        0.42760318670215       -2.78378837266365
C           63.55102519300295        0.54764533436086       -3.42527199444322
C           62.60627307165707        0.38867104917738       -2.46402015390606
N           64.64039073910955        0.21059978893124       -1.44585561430376
C           63.29847258034014        0.17791477512765       -1.22623821759234
C           62.66921460000874       -0.02945965417864        0.01754243402773
C           63.32458216273245       -0.21714104324031        1.25081526321223
C           62.66024756196033       -0.46225558605633        2.49739351624026
C           63.62525955045292       -0.59019612313670        3.44318419361942
C           64.89005583924761       -0.41381473600491        2.78370041814628
N           64.66994421779698       -0.19785649234906        1.45009909601094
C           66.14286171029916       -0.48266634109509        3.40334633376335
C           66.16259807373918       -0.70738293702204        4.86988696370947
C           66.76133950905810       -1.85388677784437        5.39860809012226
C           66.79006311588438       -2.06619985220290        6.76696574115614
C           66.21590860135267       -1.11867808928920        7.59896183158886
S           66.26583367504182       -1.37338027329762        9.33260866867915
O           66.12650770766560       -0.13432632960855       10.04128203614560
O           64.87212871066494       -2.19227660899170        9.49837184350820
O           67.35023418934648       -2.24298485010314        9.67963162697118
C           65.61759152849757        0.02949597399853        7.10560052433748
C           65.59155746631130        0.22932982553636        5.73522106449996
C           67.38205349946536       -0.35598352980294        2.76348618277497
C           68.66612036726264       -0.37720004345280        3.41414096767737
C           69.60551904317437       -0.20739591671161        2.45107104872255
C           68.90812356790273       -0.07047612405849        1.20280967369838
N           67.56389033346947       -0.16015857088342        1.42628362262732
H           70.59928156856053        0.15073616114948       -0.03946107894528
H           70.62633309230600        0.46923515164535       -2.64603037337453
H           68.73206387777522        0.69343562693418       -4.53089433071527
H           66.98150168755510        2.70120328185497       -4.77955561270212
H           66.96733552047328        3.05304410216448       -7.23915557099826
H           67.66021382107220        0.83361342697956      -10.64663371032971
H           65.10399895396807       -0.76613730934137       -7.77854794010246
H           65.12311831693900       -1.12499451979981       -5.31996359821998
H           63.39638348737496        0.74218001053791       -4.47430919666946
H           61.53402698748144        0.41690825741397       -2.57447232897761
H           61.59172987817048       -0.53411537727318        2.62348344557777
H           63.49435445967303       -0.79800353715949        4.49293569899873
H           67.19566495399543       -2.58777662672181        4.72974816003388
H           67.25330520704134       -2.95013547936997        7.18694999820951
H           64.61688915430071       -2.22689155890442       10.42827393426042
H           65.18904473647105        0.75527024331197        7.78533459676762
H           65.14102976726051        1.12771039850094        5.32958970825977
H           68.82364179058899       -0.49449960590579        4.47430239577095
H           70.67744293867970       -0.16886068820348        2.56486188238533
C           33.70215925633755       -0.00613489281544       -0.04871141511970
C           34.92651097394205       -0.01200126354244       -0.05745624231082
C           36.26963574770267       -0.01742198843803       -0.06260607930592
C           37.50007733557290       -0.02103009738318       -0.06345075693638
C           38.83838918599699       -0.02294944221801       -0.06362544555296
C           40.06889787664998       -0.02456244397161       -0.06241308876268
C           41.41183891231549       -0.02679306513609       -0.05913491506161
C           42.63639465018316       -0.02918950219002       -0.05379529889361
C           52.32903459082051       -0.06610709172518        0.00770705954406
C           53.55358747998304       -0.07242988887603        0.01580072391716
C           54.89657948061971       -0.07350924157950        0.02259776394586
C           56.12708017834828       -0.07500964833354        0.02874300974280
C           57.46542418743174       -0.07278940089424        0.03408215351267
C           58.69584342793452       -0.07026797000441        0.03375565660016
C           60.03900221735667       -0.06103705270133        0.03190755618078
C           61.26336398053793       -0.04907632452996        0.02764184187816
Zn          47.48330880762736       -0.04522436293421       -0.02681054417553
C           44.04170358777731       -0.03275558208214       -0.04723668538260
C           44.68570876241951        1.04841979592753        0.58704124886130
C           44.00842215357680        2.12843985877099        1.24190487166354
C           44.96475610179233        2.96592577592915        1.71806968901874
C           46.23627511161282        2.40748875463855        1.35035776544917
N           46.02997245353439        1.23715852442928        0.67151447186277
C           47.48345311585860        2.95904808283663        1.66361828785119
C           47.48166226148069        4.25644726410499        2.38475482146279
C           48.02715303146972        4.35292120217065        3.66720523009349
C           48.02491602514107        5.56169239115610        4.34380344844489
C           47.47501867888889        6.67080137586334        3.72184669247343
S           47.48072172653816        8.20705897848542        4.56663794491370
O           47.41327481556078        9.30344120555740        3.64452096525710
O           46.03220090902370        8.09022400228527        5.29332733248943
O           48.49865765363282        8.22005483921542        5.57436200168061
C           46.93213107348044        6.60829283992194        2.44860350347757
C           46.93555187901110        5.39339423737640        1.78356882493222
C           48.73049485837036        2.40281154446981        1.35845905336563
C           50.00261081194213        3.00421354349180        1.64791670857716
C           50.95825861584581        2.15968389706062        1.18306963257179
N           48.93590611820082        1.21398019738603        0.71191735028479
C           50.28014273959187        1.04104749594663        0.59747624699706
C           50.92364433220917       -0.06024572275932       -0.00201498417611
C           50.27938157137750       -1.15527668204737       -0.61202139364852
C           50.95615110338483       -2.27834819419547       -1.19066451339174
C           50.00003229638577       -3.11303869004617       -1.67202823477726
C           48.72915137969781       -2.50129780126479       -1.39926694278813
N           48.93549821344494       -1.31616398610139       -0.74634771379453
C           47.48186187251390       -3.04608013027630       -1.72350486564617
C           47.47942100012416       -4.33970449063667       -2.45129972259789
C           48.04211374174012       -4.43330692092154       -3.72656490130780
C           48.03847027051489       -5.63776800917303       -4.41070969309744
C           47.46963089299447       -6.74555373775080       -3.80353357781012
S           47.47171740962391       -8.27585126340793       -4.65885487355351
O           47.36478137216144       -9.37718995327393       -3.74650481729531
O           46.04354566373861       -8.12897265914273       -5.41977690532643
O           48.51301723557082       -8.29928071655230       -5.64236628415338
C           46.90986177206070       -6.68606001745374       -2.53750647621192
C           46.91514476409917       -5.47539638896005       -1.86475003505797
C           46.23508918472015       -2.48589324474842       -1.42421811683768
C           44.96396532507519       -3.03409688585505       -1.80828642465294
C           44.00818199620028       -2.19126306809519       -1.34053378961370
C           44.68554278272602       -1.11758789850641       -0.67544827706554
N           46.02930679292714       -1.31574744645438       -0.74484293933521
H           42.93782466600462        2.22369826359515        1.32821533900885
H           44.82311260753035        3.87512272662792        2.27976992378505
H           48.44289322137701        3.47075158913167        4.13995544111492
H           48.44506060150008        5.64760955223603        5.33799414923471
H           45.75295999568065        8.95555091308947        5.61629151868147
H           46.52184054502573        7.49784106027959        1.98730350515361
H           46.52634353443458        5.32502039391311        0.78232925778355
H           50.14524568621150        3.95609958816812        2.13341851565430
H           52.02900961301938        2.28033040648396        1.22300623439128
H           52.02627290724219       -2.40831644049344       -1.21535665329912
H           50.14135630184450       -4.06477090084342       -2.15822397119869
H           48.47231330404038       -3.55202569218869       -4.18789815684626
H           48.47174725137195       -5.72142354928563       -5.39944294461841
H           45.76840132363213       -8.98238368937820       -5.77620354096197
H           46.48503681425154       -7.57464656712303       -2.08766113923331
H           46.49285324668040       -5.40957363586338       -0.86878985159678
H           44.82219553930402       -3.94070355687550       -2.37411588540481
H           42.93799668856268       -2.27873149010317       -1.43930296700595

          :  Hamiltonian                  GFN1-xTB          :
         :: total energy            -413.434736574878 Eh    ::
         :: gradient norm              0.000447429541 Eh/a0 ::
         :: HOMO-LUMO gap              1.111547909237 eV    ::
         :: SCC energy              -419.294690155765 Eh    ::
         :: repulsion energy           6.046907783041 Eh    ::

    * Orbital Energies and Occupations

         #    Occupation            Energy/Eh            Energy/eV
      -------------------------------------------------------------
         1        2.0000           -1.0354352             -28.1756
       ...           ...                  ...                  ...
       345        2.0000           -0.4374690             -11.9041
       346        2.0000           -0.4373336             -11.9005
       347        2.0000           -0.4370841             -11.8937
       348        2.0000           -0.4298841             -11.6977
       349        2.0000           -0.4248012             -11.5594
       350        2.0000           -0.4238308             -11.5330
       351        2.0000           -0.4188534             -11.3976
       352        2.0000           -0.4118923             -11.2082
       353        2.0000           -0.4106754             -11.1750
       354        2.0000           -0.4097406             -11.1496
       355        2.0000           -0.3989930             -10.8572
       356        2.0000           -0.3977443             -10.8232
       357        2.0000           -0.3947320             -10.7412 (HOMO)
       358                         -0.3538834              -9.6297 (LUMO)
       359                         -0.3484795              -9.4826
       360                         -0.3472393              -9.4489
       361                         -0.3463319              -9.4242
       362                         -0.3455506              -9.4029
       363                         -0.3446064              -9.3772
       364                         -0.3257837              -8.8650
       365                         -0.3187949              -8.6749
       366                         -0.3179601              -8.6521
       367                         -0.3091150              -8.4114
       368                         -0.3081295              -8.3846
       ...                                ...                  ...
       746                          1.5948525              43.3981
      -------------------------------------------------------------
                  HL-Gap            0.0408486 Eh            1.1115 eV

Wiberg/Mayer (AO) data.
largest (>0.10) Wiberg bond orders for each atom

     #   Z sym  total        # sym  WBO       # sym  WBO       # sym  WBO
 ---------------------------------------------------------------------------
     1  30 Zn   1.992 --    45 N    0.459     7 N    0.459    22 N    0.455
                            29 N    0.454
     2   6 C    3.930 --    44 C    1.359     3 C    1.358    46 H    0.971
     3   6 C    3.920 --     2 C    1.358     7 N    1.232     4 C    1.169
     4   6 C    3.961 --     5 C    1.661     3 C    1.169    47 H    0.975
     5   6 C    3.963 --     4 C    1.661     6 C    1.170    48 H    0.973
     6   6 C    3.919 --     8 C    1.314     7 N    1.246     5 C    1.170
     7   7 N    3.294 --     6 C    1.246     3 C    1.232     1 Zn   0.459
     8   6 C    3.932 --    19 C    1.322     6 C    1.314     9 C    1.029
     9   6 C    3.985 --    18 C    1.391    10 C    1.390     8 C    1.029
    10   6 C    3.986 --    11 C    1.451     9 C    1.390    49 H    0.971
                            17 C    0.105
    11   6 C    3.989 --    10 C    1.451    12 C    1.406    50 H    0.967
                            18 C    0.106
    12   6 C    3.929 --    17 C    1.407    11 C    1.406    13 S    0.754
    13  16 S    5.263 --    14 O    1.719    16 O    1.719    15 O    1.012
                            12 C    0.754
    14   8 O    2.077 --    13 S    1.719    16 O    0.139
    15   8 O    2.086 --    13 S    1.012    51 H    0.828
    16   8 O    2.077 --    13 S    1.719    14 O    0.139
    17   6 C    3.989 --    18 C    1.450    12 C    1.407    52 H    0.967
                            10 C    0.105
    18   6 C    3.987 --    17 C    1.450     9 C    1.391    53 H    0.971
                            11 C    0.106
    19   6 C    3.913 --     8 C    1.322    22 N    1.228    20 C    1.177
    20   6 C    3.960 --    21 C    1.648    19 C    1.177    54 H    0.973
    21   6 C    3.962 --    20 C    1.648    23 C    1.184    55 H    0.974
    22   7 N    3.297 --    23 C    1.261    19 C    1.228     1 Zn   0.455
    23   6 C    3.900 --    22 N    1.261    24 C    1.256    21 C    1.184
    24   6 C    3.941 --    25 C    1.256    23 C    1.256   129 C    1.189
    25   6 C    3.900 --    29 N    1.261    24 C    1.256    26 C    1.185
    26   6 C    3.962 --    27 C    1.648    25 C    1.185    56 H    0.974
    27   6 C    3.959 --    26 C    1.648    28 C    1.177    57 H    0.973
    28   6 C    3.913 --    30 C    1.321    29 N    1.228    27 C    1.177
    29   7 N    3.297 --    25 C    1.261    28 C    1.228     1 Zn   0.454
    30   6 C    3.932 --    28 C    1.321    41 C    1.313    31 C    1.030
    31   6 C    3.985 --    40 C    1.390    32 C    1.390    30 C    1.030
    32   6 C    3.986 --    33 C    1.450    31 C    1.390    58 H    0.971
                            39 C    0.105
    33   6 C    3.989 --    32 C    1.450    34 C    1.406    59 H    0.967
                            40 C    0.106
    34   6 C    3.929 --    39 C    1.406    33 C    1.406    35 S    0.754
    35  16 S    5.264 --    38 O    1.725    36 O    1.714    37 O    1.012
                            34 C    0.754
    36   8 O    2.073 --    35 S    1.714    38 O    0.139
    37   8 O    2.087 --    35 S    1.012    60 H    0.828
    38   8 O    2.082 --    35 S    1.725    36 O    0.139
    39   6 C    3.989 --    40 C    1.451    34 C    1.406    61 H    0.967
                            32 C    0.105
    40   6 C    3.986 --    39 C    1.451    31 C    1.390    62 H    0.971
                            33 C    0.106
    41   6 C    3.919 --    30 C    1.313    45 N    1.246    42 C    1.170
    42   6 C    3.963 --    43 C    1.661    41 C    1.170    63 H    0.973
    43   6 C    3.961 --    42 C    1.661    44 C    1.169    64 H    0.975
    44   6 C    3.920 --     2 C    1.359    45 N    1.232    43 C    1.169
    45   7 N    3.294 --    41 C    1.246    44 C    1.232     1 Zn   0.459
    46   1 H    1.001 --     2 C    0.971
    47   1 H    0.997 --     4 C    0.975
    48   1 H    1.004 --     5 C    0.973
    49   1 H    1.003 --    10 C    0.971
    50   1 H    0.999 --    11 C    0.967
    51   1 H    0.854 --    15 O    0.828
    52   1 H    1.000 --    17 C    0.967
    53   1 H    1.003 --    18 C    0.971
    54   1 H    1.003 --    20 C    0.973
    55   1 H    1.002 --    21 C    0.974
    56   1 H    1.002 --    26 C    0.974
    57   1 H    1.004 --    27 C    0.973
    58   1 H    1.003 --    32 C    0.971
    59   1 H    0.999 --    33 C    0.967
    60   1 H    0.855 --    37 O    0.828
    61   1 H    1.000 --    39 C    0.967
    62   1 H    1.003 --    40 C    0.971
    63   1 H    1.004 --    42 C    0.973
    64   1 H    0.997 --    43 C    0.975
    65  30 Zn   1.992 --   109 N    0.459    71 N    0.459    86 N    0.455
                            93 N    0.454
    66   6 C    3.930 --   108 C    1.359    67 C    1.358   110 H    0.971
    67   6 C    3.920 --    66 C    1.358    71 N    1.232    68 C    1.169
    68   6 C    3.961 --    69 C    1.661    67 C    1.169   111 H    0.975
    69   6 C    3.963 --    68 C    1.661    70 C    1.170   112 H    0.973
    70   6 C    3.919 --    72 C    1.313    71 N    1.246    69 C    1.170
    71   7 N    3.294 --    70 C    1.246    67 C    1.232    65 Zn   0.459
    72   6 C    3.932 --    83 C    1.322    70 C    1.313    73 C    1.029
    73   6 C    3.985 --    82 C    1.391    74 C    1.390    72 C    1.029
    74   6 C    3.986 --    75 C    1.451    73 C    1.390   113 H    0.971
                            81 C    0.106
    75   6 C    3.989 --    74 C    1.451    76 C    1.406   114 H    0.967
                            82 C    0.106
    76   6 C    3.929 --    81 C    1.407    75 C    1.406    77 S    0.754
    77  16 S    5.262 --    78 O    1.719    80 O    1.718    79 O    1.011
                            76 C    0.754
    78   8 O    2.078 --    77 S    1.719    80 O    0.139
    79   8 O    2.086 --    77 S    1.011   115 H    0.828
    80   8 O    2.077 --    77 S    1.718    78 O    0.139
    81   6 C    3.989 --    82 C    1.450    76 C    1.407   116 H    0.967
                            74 C    0.106
    82   6 C    3.987 --    81 C    1.450    73 C    1.391   117 H    0.971
                            75 C    0.106
    83   6 C    3.913 --    72 C    1.322    86 N    1.228    84 C    1.177
    84   6 C    3.960 --    85 C    1.649    83 C    1.177   118 H    0.973
    85   6 C    3.962 --    84 C    1.649    87 C    1.184   119 H    0.974
    86   7 N    3.297 --    87 C    1.261    83 C    1.228    65 Zn   0.455
    87   6 C    3.900 --    86 N    1.261    88 C    1.256    85 C    1.184
    88   6 C    3.941 --    89 C    1.256    87 C    1.256   144 C    1.189
    89   6 C    3.900 --    93 N    1.261    88 C    1.256    90 C    1.185
    90   6 C    3.962 --    91 C    1.648    89 C    1.185   120 H    0.974
    91   6 C    3.959 --    90 C    1.648    92 C    1.177   121 H    0.973
    92   6 C    3.913 --    94 C    1.322    93 N    1.228    91 C    1.177
    93   7 N    3.297 --    89 C    1.261    92 C    1.228    65 Zn   0.454
    94   6 C    3.932 --    92 C    1.322   105 C    1.313    95 C    1.030
    95   6 C    3.985 --   104 C    1.390    96 C    1.390    94 C    1.030
    96   6 C    3.986 --    97 C    1.450    95 C    1.390   122 H    0.971
                           103 C    0.106
    97   6 C    3.989 --    96 C    1.450    98 C    1.406   123 H    0.967
                           104 C    0.105
    98   6 C    3.929 --   103 C    1.406    97 C    1.406    99 S    0.754
    99  16 S    5.264 --   102 O    1.725   100 O    1.714   101 O    1.012
                            98 C    0.754
   100   8 O    2.072 --    99 S    1.714   102 O    0.138
   101   8 O    2.087 --    99 S    1.012   124 H    0.828
   102   8 O    2.083 --    99 S    1.725   100 O    0.138
   103   6 C    3.989 --   104 C    1.450    98 C    1.406   125 H    0.967
                            96 C    0.106
   104   6 C    3.986 --   103 C    1.450    95 C    1.390   126 H    0.971
                            97 C    0.105
   105   6 C    3.919 --    94 C    1.313   109 N    1.246   106 C    1.170
   106   6 C    3.963 --   107 C    1.661   105 C    1.170   127 H    0.973
   107   6 C    3.961 --   106 C    1.661   108 C    1.169   128 H    0.975
   108   6 C    3.920 --    66 C    1.359   109 N    1.232   107 C    1.169
   109   7 N    3.294 --   105 C    1.246   108 C    1.232    65 Zn   0.459
   110   1 H    1.001 --    66 C    0.971
   111   1 H    0.997 --    68 C    0.975
   112   1 H    1.004 --    69 C    0.973
   113   1 H    1.003 --    74 C    0.971
   114   1 H    0.999 --    75 C    0.967
   115   1 H    0.854 --    79 O    0.828
   116   1 H    1.000 --    81 C    0.967
   117   1 H    1.003 --    82 C    0.971
   118   1 H    1.003 --    84 C    0.973
   119   1 H    1.002 --    85 C    0.974
   120   1 H    1.002 --    90 C    0.974
   121   1 H    1.004 --    91 C    0.973
   122   1 H    1.003 --    96 C    0.971
   123   1 H    0.999 --    97 C    0.967
   124   1 H    0.855 --   101 O    0.828
   125   1 H    1.000 --   103 C    0.967
   126   1 H    1.003 --   104 C    0.971
   127   1 H    1.004 --   106 C    0.973
   128   1 H    0.997 --   107 C    0.975
   129   6 C    3.877 --   130 C    2.442    24 C    1.189   132 C    0.186
   130   6 C    3.935 --   129 C    2.442   131 C    1.341
   131   6 C    3.892 --   132 C    2.339   130 C    1.341   134 C    0.182
   132   6 C    3.924 --   131 C    2.339   133 C    1.366   129 C    0.186
   133   6 C    3.923 --   134 C    2.338   132 C    1.366   136 C    0.186
   134   6 C    3.892 --   133 C    2.338   135 C    1.342   131 C    0.182
   135   6 C    3.932 --   136 C    2.440   134 C    1.342
   136   6 C    3.877 --   135 C    2.440   146 C    1.192   133 C    0.186
   137   6 C    3.877 --   138 C    2.440   168 C    1.192   140 C    0.186
   138   6 C    3.932 --   137 C    2.440   139 C    1.342
   139   6 C    3.892 --   140 C    2.338   138 C    1.342   142 C    0.182
   140   6 C    3.923 --   139 C    2.338   141 C    1.366   137 C    0.186
   141   6 C    3.924 --   142 C    2.339   140 C    1.366   144 C    0.186
   142   6 C    3.892 --   141 C    2.339   143 C    1.341   139 C    0.182
   143   6 C    3.935 --   144 C    2.442   142 C    1.341
   144   6 C    3.877 --   143 C    2.442    88 C    1.189   141 C    0.186
   145  30 Zn   1.989 --   166 N    0.456   173 N    0.456   189 N    0.455
                           151 N    0.455
   146   6 C    3.931 --   147 C    1.253   188 C    1.253   136 C    1.192
   147   6 C    3.900 --   151 N    1.262   146 C    1.253   148 C    1.186
   148   6 C    3.960 --   149 C    1.646   147 C    1.186   190 H    0.974
   149   6 C    3.960 --   148 C    1.646   150 C    1.179   191 H    0.973
   150   6 C    3.911 --   152 C    1.319   151 N    1.227   149 C    1.179
   151   7 N    3.292 --   147 C    1.262   150 C    1.227   145 Zn   0.455
   152   6 C    3.928 --   163 C    1.319   150 C    1.319   153 C    1.028
   153   6 C    3.985 --   154 C    1.391   162 C    1.390   152 C    1.028
   154   6 C    3.987 --   155 C    1.449   153 C    1.391   192 H    0.971
                           161 C    0.106
   155   6 C    3.989 --   154 C    1.449   156 C    1.407   193 H    0.967
                           162 C    0.106
   156   6 C    3.930 --   155 C    1.407   161 C    1.406   157 S    0.754
   157  16 S    5.265 --   160 O    1.726   158 O    1.713   159 O    1.013
                           156 C    0.754
   158   8 O    2.072 --   157 S    1.713   160 O    0.138
   159   8 O    2.087 --   157 S    1.013   194 H    0.828
   160   8 O    2.084 --   157 S    1.726   158 O    0.138
   161   6 C    3.989 --   162 C    1.451   156 C    1.406   195 H    0.967
                           154 C    0.106
   162   6 C    3.987 --   161 C    1.451   153 C    1.390   196 H    0.971
                           155 C    0.106
   163   6 C    3.911 --   152 C    1.319   166 N    1.227   164 C    1.179
   164   6 C    3.960 --   165 C    1.646   163 C    1.179   197 H    0.973
   165   6 C    3.960 --   164 C    1.646   167 C    1.186   198 H    0.974
   166   7 N    3.292 --   167 C    1.262   163 C    1.227   145 Zn   0.456
   167   6 C    3.900 --   166 N    1.262   168 C    1.253   165 C    1.186
   168   6 C    3.931 --   169 C    1.253   167 C    1.253   137 C    1.192
   169   6 C    3.900 --   173 N    1.262   168 C    1.253   170 C    1.186
   170   6 C    3.960 --   171 C    1.646   169 C    1.186   199 H    0.974
   171   6 C    3.960 --   170 C    1.646   172 C    1.179   200 H    0.973
   172   6 C    3.911 --   174 C    1.319   173 N    1.227   171 C    1.179
   173   7 N    3.292 --   169 C    1.262   172 C    1.227   145 Zn   0.456
   174   6 C    3.928 --   172 C    1.319   185 C    1.319   175 C    1.028
   175   6 C    3.985 --   176 C    1.391   184 C    1.390   174 C    1.028
   176   6 C    3.987 --   177 C    1.450   175 C    1.391   201 H    0.971
                           183 C    0.106
   177   6 C    3.989 --   176 C    1.450   178 C    1.407   202 H    0.967
                           184 C    0.106
   178   6 C    3.930 --   177 C    1.407   183 C    1.406   179 S    0.754
   179  16 S    5.265 --   182 O    1.725   180 O    1.714   181 O    1.013
                           178 C    0.754
   180   8 O    2.073 --   179 S    1.714   182 O    0.139
   181   8 O    2.087 --   179 S    1.013   203 H    0.828
   182   8 O    2.083 --   179 S    1.725   180 O    0.139
   183   6 C    3.989 --   184 C    1.451   178 C    1.406   204 H    0.967
                           176 C    0.106
   184   6 C    3.987 --   183 C    1.451   175 C    1.390   205 H    0.971
                           177 C    0.106
   185   6 C    3.911 --   174 C    1.319   189 N    1.227   186 C    1.179
   186   6 C    3.960 --   187 C    1.645   185 C    1.179   206 H    0.973
   187   6 C    3.960 --   186 C    1.645   188 C    1.186   207 H    0.974
   188   6 C    3.900 --   189 N    1.262   146 C    1.253   187 C    1.186
   189   7 N    3.292 --   188 C    1.262   185 C    1.227   145 Zn   0.455
   190   1 H    1.002 --   148 C    0.974
   191   1 H    1.004 --   149 C    0.973
   192   1 H    1.003 --   154 C    0.971
   193   1 H    0.999 --   155 C    0.967
   194   1 H    0.855 --   159 O    0.828
   195   1 H    1.000 --   161 C    0.967
   196   1 H    1.003 --   162 C    0.971
   197   1 H    1.003 --   164 C    0.973
   198   1 H    1.001 --   165 C    0.974
   199   1 H    1.001 --   170 C    0.974
   200   1 H    1.003 --   171 C    0.973
   201   1 H    1.003 --   176 C    0.971
   202   1 H    0.999 --   177 C    0.967
   203   1 H    0.855 --   181 O    0.828
   204   1 H    1.000 --   183 C    0.967
   205   1 H    1.003 --   184 C    0.971
   206   1 H    1.004 --   186 C    0.973
   207   1 H    1.002 --   187 C    0.974
 ---------------------------------------------------------------------------

           -------------------------------------------------
          | TOTAL ENERGY             -413.434736574878 Eh   |
          | GRADIENT NORM               0.000447429541 Eh/α |
          | HOMO-LUMO GAP               1.111547909237 eV   |
           -------------------------------------------------

 * finished run on 2022/07/30 at 16:12:42.316
