   * xtb version 6.5.1 (b24c23e) compiled by 'conda@728c89f4b128' on 2022-07-12
          program call               : xtb Ph_C4_2.xyz --gfn 1 --opt -T 48

   ID    Z sym.   atoms
    1    6 C      1-5, 7-10, 12-28, 31-36, 58-62, 64-67, 69-85, 88-93, 115-118
    2    7 N      6, 11, 29, 30, 63, 68, 86, 87
    3    1 H      37-57, 94-114
########################################################################
[WARNING] Please study the warnings concerning your input carefully
-1- prog_main_parseArguments: Unknown option '-T' provided
########################################################################

          :  Hamiltonian                  GFN1-xTB          :
 * total energy  :  -191.4146170 Eh     change        0.7304379E-10 Eh
 * total energy  :  -191.6007866 Eh     change       -0.1861696E+00 Eh
 * total energy  :  -191.6711902 Eh     change       -0.7040364E-01 Eh
 * total energy  :  -191.6954247 Eh     change       -0.2423453E-01 Eh
 * total energy  :  -191.7069372 Eh     change       -0.1151248E-01 Eh
 * total energy  :  -191.7136443 Eh     change       -0.6707045E-02 Eh
 * total energy  :  -191.7180198 Eh     change       -0.4375507E-02 Eh
 * total energy  :  -191.7211210 Eh     change       -0.3101238E-02 Eh
 * total energy  :  -191.7233478 Eh     change       -0.2226772E-02 Eh
 * total energy  :  -191.7248475 Eh     change       -0.1499734E-02 Eh
 * total energy  :  -191.7321155 Eh     change       -0.2139918E-04 Eh
 * total energy  :  -191.7321292 Eh     change       -0.1366220E-04 Eh
 * total energy  :  -191.7321472 Eh     change       -0.1798878E-04 Eh
 * total energy  :  -191.7321423 Eh     change        0.4895363E-05 Eh
 * total energy  :  -191.7321534 Eh     change       -0.1110552E-04 Eh
 * total energy  :  -191.7321635 Eh     change       -0.1009165E-04 Eh
 * total energy  :  -191.7321703 Eh     change       -0.6806610E-05 Eh
 * total energy  :  -191.7321837 Eh     change       -0.1343165E-04 Eh
 * total energy  :  -191.7321855 Eh     change       -0.1785654E-05 Eh
   *** GEOMETRY OPTIMIZATION CONVERGED AFTER 44 ITERATIONS ***

 final structure:
================
118
 xtb: 6.5.1 (b24c23e)
C           10.63633411277771       -0.11153370999851        0.03824326534221
C           11.24218496099063       -1.18951778868083        0.67074677001922
C           10.58698327377941       -2.28938659757728        1.29250418920409
C           11.54642647339911       -3.11544361408910        1.80680865944246
C           12.81904529682412       -2.54298113012431        1.52232013650304
N           12.58456543427472       -1.38962193495113        0.82847253307531
C           14.07970340085442       -3.05099579923233        1.85532262660988
C           15.29807325053740       -2.46519645595111        1.50404532145385
C           16.59324746386295       -2.98536687175678        1.90365624320963
C           17.51786561974185       -2.15772772895530        1.37386351246080
N           15.45785710368775       -1.33283199360488        0.76467174900600
C           16.78633590213667       -1.12750829750143        0.66249120806985
C           17.42720064909660       -0.07705778355714       -0.02553241207438
C           16.79467207393773        0.98787725524829       -0.69506791988596
C           17.44214398444792        2.03702840465927       -1.39969949893571
C           16.47831306037174        2.87679693872889       -1.88537996647499
C           15.21155514033575        2.36829875350839       -1.48568651984219
C           13.95236565990345        2.90566056341224       -1.77264431269017
C           13.92899642044770        4.18258763859084       -2.52747893907357
C           13.32220688075481        4.25324922307604       -3.78220789382807
C           13.30557938160937        5.44767248344307       -4.48656572514084
C           13.88877936658170        6.58567311381717       -3.94599089092959
C           14.49225599503161        6.52416071540868       -2.69728595015276
C           14.51598843901130        5.33018782106937       -1.99232745193519
C           12.73340671234408        2.32896320164072       -1.40214519679077
C           11.43211859487994        2.91983211735549       -1.67309462215407
C           10.51415156117002        2.06896561141271       -1.17184087819977
C           11.25369094194001        0.96654232365813       -0.58268632327118
N           12.58668577976166        1.16051570439332       -0.73322945965974
N           15.45459494219237        1.22120029526910       -0.77710769127591
C           14.10287214741499       -4.30803838857647        2.64385286807127
C           13.52623226537240       -4.35580805030097        3.91388399459957
C           13.54980195091797       -5.53010334613219        4.65130004948911
C           14.14317030471802       -6.67100826912075        4.12832881365029
C           14.71568681061006       -6.63254086139018        2.86412423131105
C           14.69858924941072       -5.45879766952906        2.12580763413232
H            9.55095861616244       -0.11745795119861        0.03980292948767
H            9.51742981143335       -2.42185828553833        1.33019002374747
H           11.39263512806599       -4.04519178531349        2.33020313441746
H           13.31193677275309       -0.77421790571810        0.48006033365060
H           16.75180738789669       -3.85747804283782        2.51710192197165
H           18.59213227517440       -2.21173820567187        1.45039640615191
H           18.50989966928343        2.12673907936887       -1.51855990806717
H           16.62763158568900        3.76499262858434       -2.47738223027153
H           12.87797042042138        3.36228510330163       -4.21177798781882
H           12.83619559033272        5.48963285412130       -5.46320263164744
H           13.87308997916672        7.51915010075549       -4.49705665905739
H           14.94620037486955        7.41087913760336       -2.26878850709692
H           14.97631862217359        5.28748924616426       -1.01137106485751
H           11.26886292427157        3.86295466339512       -2.16939412208596
H            9.43885684952393        2.15619680573281       -1.17587696600873
H           14.73063287547177        0.63250362078420       -0.37847877263954
H           13.07438917581097       -3.46209751987671        4.33005519347029
H           13.10355474634635       -5.55384060115596        5.63941723255497
H           14.15922558996454       -7.58879715651622        4.70514844218424
H           15.17794865642312       -7.52180702304249        2.45000962035975
H           15.13545102581287       -5.43392783180614        1.13368718237656
C           30.82334267875387        0.08298026924665       -0.08476496177562
C           30.21731872799339        1.11507790873326       -0.78950718065735
C           30.87227020590720        2.14729084960546       -1.51831091649016
C           29.91260219716016        2.96462820208094       -2.04594771137829
C           28.64009120644011        2.46230999890983       -1.65020830378170
N           28.87485940073793        1.34249589820430       -0.90353843267197
C           27.37935260361570        2.97992073829904       -1.96774943307244
C           26.16100442760798        2.41196990160334       -1.58830909785384
C           24.86582049802508        2.99514952619414       -1.88855879464394
C           23.94120387416931        2.16286981395245       -1.36609388510035
N           26.00122062437668        1.26015910930105       -0.87959996539888
C           24.67274993303287        1.08008508273188       -0.73761992830840
C           24.03182558191853        0.00973414316992       -0.08103208712394
C           24.66446593567551       -1.05011890527847        0.59639914476938
C           24.01728610165103       -2.13511221068132        1.24476485807776
C           24.98137208596775       -2.93259017436170        1.79669467674829
C           26.24799288187901       -2.35404102888743        1.50693132778976
C           27.50726805840577       -2.84291227718994        1.87006310483735
C           27.53059365028126       -4.07047961729796        2.70281415300008
C           28.13601243083375       -5.23588358043572        2.23081118216089
C           28.15228820853427       -6.38257450196857        3.01048628992715
C           27.57016871631712       -6.37874900537055        4.27084673336952
C           26.96814658377217       -5.22264658730561        4.74857897417678
C           26.94471483665057       -4.07562163294126        3.96955608356496
C           28.72622064643187       -2.26185742824092        1.50650391065517
C           30.02748590707672       -2.75937474980320        1.92492125881211
C           30.94549476726050       -1.94271510426028        1.36974790437630
C           30.20599777337580       -0.93905410289190        0.62464968517713
N           28.87299365523282       -1.15798469744334        0.73567568930412
N           26.00462512472310       -1.22373966703472        0.77197938125710
C           27.35623498041692        4.22989274991278       -2.76748504605334
C           27.93160208460231        5.39884809421718       -2.26723002282320
C           27.90832217166315        6.56734041292169       -3.01380292422402
C           27.31658123195133        6.58169392478767       -4.26954096782899
C           26.74531889194868        5.42198317060270       -4.77569054587680
C           26.76204430176502        4.25291907691877       -4.02996225482391
H           31.90871585355046        0.08722202326021       -0.08916700502853
H           31.94181418161858        2.23847669203558       -1.62162527678814
H           30.06615470451208        3.83501783820656       -2.66309320627449
H           28.14770418112028        0.76432273385449       -0.49593694330371
H           24.70731573330617        3.92192640472125       -2.41581123116737
H           22.86692568693582        2.25499522494672       -1.38239002989694
H           22.94955586630344       -2.28098505270539        1.27553594489459
H           24.83234620770474       -3.84699715979571        2.34742486198644
H           28.57943332604617       -5.24457074397317        1.24136899101170
H           28.62052970497704       -7.28416691804938        2.63130146642242
H           27.58555726496293       -7.27546504724983        4.87991218095134
H           26.51506556290391       -5.21306873804515        5.73375411174781
H           26.48543948236012       -3.16983173337623        4.34983658007279
H           30.19066979869399       -3.61108825792684        2.56554857741483
H           32.02078932841636       -1.98369541499902        1.44686182667944
H           26.72831762645764       -0.61183656456493        0.40945099354325
H           28.38230636259687        5.39337486642406       -1.28086424313976
H           28.35363472428887        7.47106231007412       -2.61247813118817
H           27.30081539084317        7.49536199466307       -4.85287252945100
H           26.28426219198318        5.42736063994980       -5.75720629323302
H           26.32607119112929        3.34510542742197       -4.43192742581956
C           20.05498085798000       -0.05457240251196       -0.06479340861470
C           18.83295984871425       -0.07175277323863       -0.04573662433348
C           21.40412528112213       -0.03775733019219       -0.07658356737524
C           22.62607897323032       -0.01089142379572       -0.08500724134884

          :  Hamiltonian                  GFN1-xTB          :
         :: total energy            -191.732185494094 Eh    ::
         :: gradient norm              0.000306795780 Eh/a0 ::
         :: HOMO-LUMO gap              0.997491157070 eV    ::
         :: SCC energy              -194.996532529026 Eh    ::
         :: repulsion energy           3.363509416742 Eh    ::

    * Orbital Energies and Occupations

         #    Occupation            Energy/Eh            Energy/eV
      -------------------------------------------------------------
         1        2.0000           -0.8026450             -21.8411
       ...           ...                  ...                  ...
       165        2.0000           -0.4230676             -11.5123
       166        2.0000           -0.4203328             -11.4378
       167        2.0000           -0.4192926             -11.4095
       168        2.0000           -0.4185063             -11.3881
       169        2.0000           -0.4164497             -11.3322
       170        2.0000           -0.4153215             -11.3015
       171        2.0000           -0.4151847             -11.2978
       172        2.0000           -0.4138399             -11.2612
       173        2.0000           -0.4138335             -11.2610
       174        2.0000           -0.3976764             -10.8213
       175        2.0000           -0.3973054             -10.8112
       176        2.0000           -0.3875122             -10.5447
       177        2.0000           -0.3764745             -10.2444 (HOMO)
       178                         -0.3398173              -9.2469 (LUMO)
       179                         -0.3297814              -8.9738
       180                         -0.3295643              -8.9679
       181                         -0.3261651              -8.8754
       182                         -0.2983657              -8.1189
       183                         -0.2908671              -7.9149
       184                         -0.2646125              -7.2005
       185                         -0.2646095              -7.2004
       186                         -0.2644732              -7.1967
       187                         -0.2644709              -7.1966
       188                         -0.2633641              -7.1665
       ...                                ...                  ...
       388                          1.5179292              41.3050
      -------------------------------------------------------------
                  HL-Gap            0.0366571 Eh            0.9975 eV

Wiberg/Mayer (AO) data.
largest (>0.10) Wiberg bond orders for each atom

     #   Z sym  total        # sym  WBO       # sym  WBO       # sym  WBO
 ---------------------------------------------------------------------------
     1   6 C    3.924 --    28 C    1.365     2 C    1.346    37 H    0.971
     2   6 C    3.903 --     1 C    1.346     3 C    1.230     6 N    1.170
     3   6 C    3.953 --     4 C    1.595     2 C    1.230    38 H    0.977
     4   6 C    3.959 --     3 C    1.595     5 C    1.235    39 H    0.974
     5   6 C    3.896 --     7 C    1.303     4 C    1.235     6 N    1.176
     6   7 N    3.469 --     5 C    1.176     2 C    1.170    40 H    0.873
     7   6 C    3.939 --     8 C    1.336     5 C    1.303    31 C    1.028
     8   6 C    3.915 --     7 C    1.336    11 N    1.285     9 C    1.126
     9   6 C    3.966 --    10 C    1.709     8 C    1.126    41 H    0.974
    10   6 C    3.964 --     9 C    1.709    12 C    1.129    42 H    0.974
    11   7 N    3.022 --    12 C    1.345     8 C    1.285
    12   6 C    3.909 --    11 N    1.345    13 C    1.254    10 C    1.129
    13   6 C    3.936 --    12 C    1.254    14 C    1.251   116 C    1.190
    14   6 C    3.886 --    13 C    1.251    15 C    1.249    30 N    1.189
    15   6 C    3.959 --    16 C    1.582    14 C    1.249    43 H    0.975
    16   6 C    3.955 --    15 C    1.582    17 C    1.241    44 H    0.974
    17   6 C    3.899 --    18 C    1.309    16 C    1.241    30 N    1.165
    18   6 C    3.925 --    25 C    1.322    17 C    1.309    19 C    1.029
    19   6 C    3.988 --    24 C    1.395    20 C    1.395    18 C    1.029
                            22 C    0.108
    20   6 C    3.987 --    21 C    1.448    19 C    1.395    45 H    0.973
                            23 C    0.109
    21   6 C    3.995 --    20 C    1.448    22 C    1.437    46 H    0.973
                            24 C    0.109
    22   6 C    3.989 --    23 C    1.437    21 C    1.437    47 H    0.974
                            19 C    0.108
    23   6 C    3.995 --    24 C    1.447    22 C    1.437    48 H    0.973
                            20 C    0.109
    24   6 C    3.987 --    23 C    1.447    19 C    1.395    49 H    0.973
                            21 C    0.109
    25   6 C    3.929 --    18 C    1.322    29 N    1.316    26 C    1.118
    26   6 C    3.967 --    27 C    1.722    25 C    1.118    50 H    0.974
    27   6 C    3.966 --    26 C    1.722    28 C    1.117    51 H    0.976
    28   6 C    3.930 --     1 C    1.365    29 N    1.301    27 C    1.117
    29   7 N    3.011 --    25 C    1.316    28 C    1.301
    30   7 N    3.474 --    14 C    1.189    17 C    1.165    52 H    0.873
    31   6 C    3.989 --    32 C    1.395    36 C    1.395     7 C    1.028
                            34 C    0.108
    32   6 C    3.987 --    33 C    1.447    31 C    1.395    53 H    0.973
                            35 C    0.109
    33   6 C    3.995 --    32 C    1.447    34 C    1.438    54 H    0.973
                            36 C    0.110
    34   6 C    3.990 --    33 C    1.438    35 C    1.437    55 H    0.974
                            31 C    0.108
    35   6 C    3.995 --    36 C    1.448    34 C    1.437    56 H    0.973
                            32 C    0.109
    36   6 C    3.988 --    35 C    1.448    31 C    1.395    57 H    0.973
                            33 C    0.110
    37   1 H    1.002 --     1 C    0.971
    38   1 H    0.998 --     3 C    0.977
    39   1 H    1.005 --     4 C    0.974
    40   1 H    0.986 --     6 N    0.873
    41   1 H    1.005 --     9 C    0.974
    42   1 H    1.003 --    10 C    0.974
    43   1 H    1.002 --    15 C    0.975
    44   1 H    1.005 --    16 C    0.974
    45   1 H    1.005 --    20 C    0.973
    46   1 H    1.003 --    21 C    0.973
    47   1 H    1.003 --    22 C    0.974
    48   1 H    1.003 --    23 C    0.973
    49   1 H    1.005 --    24 C    0.973
    50   1 H    1.005 --    26 C    0.974
    51   1 H    0.998 --    27 C    0.976
    52   1 H    0.987 --    30 N    0.873
    53   1 H    1.005 --    32 C    0.973
    54   1 H    1.003 --    33 C    0.973
    55   1 H    1.003 --    34 C    0.974
    56   1 H    1.003 --    35 C    0.973
    57   1 H    1.005 --    36 C    0.973
    58   6 C    3.924 --    85 C    1.365    59 C    1.346    94 H    0.971
    59   6 C    3.903 --    58 C    1.346    60 C    1.230    63 N    1.170
    60   6 C    3.953 --    61 C    1.595    59 C    1.230    95 H    0.977
    61   6 C    3.959 --    60 C    1.595    62 C    1.235    96 H    0.974
    62   6 C    3.896 --    64 C    1.303    61 C    1.235    63 N    1.176
    63   7 N    3.469 --    62 C    1.176    59 C    1.170    97 H    0.873
    64   6 C    3.939 --    65 C    1.336    62 C    1.303    88 C    1.028
    65   6 C    3.915 --    64 C    1.336    68 N    1.285    66 C    1.126
    66   6 C    3.966 --    67 C    1.709    65 C    1.126    98 H    0.974
    67   6 C    3.964 --    66 C    1.709    69 C    1.129    99 H    0.974
    68   7 N    3.022 --    69 C    1.345    65 C    1.285
    69   6 C    3.910 --    68 N    1.345    70 C    1.254    67 C    1.129
    70   6 C    3.936 --    69 C    1.254    71 C    1.251   118 C    1.190
    71   6 C    3.886 --    70 C    1.251    72 C    1.249    87 N    1.189
    72   6 C    3.959 --    73 C    1.582    71 C    1.249   100 H    0.975
    73   6 C    3.955 --    72 C    1.582    74 C    1.241   101 H    0.974
    74   6 C    3.899 --    75 C    1.309    73 C    1.241    87 N    1.165
    75   6 C    3.925 --    82 C    1.322    74 C    1.309    76 C    1.029
    76   6 C    3.988 --    81 C    1.395    77 C    1.395    75 C    1.029
                            79 C    0.108
    77   6 C    3.987 --    78 C    1.448    76 C    1.395   102 H    0.973
                            80 C    0.109
    78   6 C    3.995 --    77 C    1.448    79 C    1.437   103 H    0.973
                            81 C    0.109
    79   6 C    3.989 --    80 C    1.437    78 C    1.437   104 H    0.974
                            76 C    0.108
    80   6 C    3.995 --    81 C    1.447    79 C    1.437   105 H    0.973
                            77 C    0.109
    81   6 C    3.987 --    80 C    1.447    76 C    1.395   106 H    0.973
                            78 C    0.109
    82   6 C    3.929 --    75 C    1.322    86 N    1.316    83 C    1.118
    83   6 C    3.967 --    84 C    1.722    82 C    1.118   107 H    0.974
    84   6 C    3.966 --    83 C    1.722    85 C    1.117   108 H    0.976
    85   6 C    3.930 --    58 C    1.365    86 N    1.301    84 C    1.117
    86   7 N    3.011 --    82 C    1.316    85 C    1.301
    87   7 N    3.474 --    71 C    1.189    74 C    1.165   109 H    0.873
    88   6 C    3.989 --    89 C    1.395    93 C    1.395    64 C    1.028
                            91 C    0.108
    89   6 C    3.987 --    90 C    1.447    88 C    1.395   110 H    0.973
                            92 C    0.109
    90   6 C    3.995 --    89 C    1.447    91 C    1.438   111 H    0.973
                            93 C    0.110
    91   6 C    3.990 --    90 C    1.438    92 C    1.437   112 H    0.974
                            88 C    0.108
    92   6 C    3.995 --    93 C    1.447    91 C    1.437   113 H    0.973
                            89 C    0.109
    93   6 C    3.988 --    92 C    1.447    88 C    1.395   114 H    0.973
                            90 C    0.110
    94   1 H    1.002 --    58 C    0.971
    95   1 H    0.998 --    60 C    0.977
    96   1 H    1.005 --    61 C    0.974
    97   1 H    0.986 --    63 N    0.873
    98   1 H    1.005 --    66 C    0.974
    99   1 H    1.003 --    67 C    0.974
   100   1 H    1.002 --    72 C    0.975
   101   1 H    1.005 --    73 C    0.974
   102   1 H    1.005 --    77 C    0.973
   103   1 H    1.003 --    78 C    0.973
   104   1 H    1.003 --    79 C    0.974
   105   1 H    1.003 --    80 C    0.973
   106   1 H    1.005 --    81 C    0.973
   107   1 H    1.005 --    83 C    0.974
   108   1 H    0.998 --    84 C    0.976
   109   1 H    0.987 --    87 N    0.873
   110   1 H    1.005 --    89 C    0.973
   111   1 H    1.003 --    90 C    0.973
   112   1 H    1.003 --    91 C    0.974
   113   1 H    1.003 --    92 C    0.973
   114   1 H    1.005 --    93 C    0.973
   115   6 C    3.933 --   116 C    2.473   117 C    1.310
   116   6 C    3.925 --   115 C    2.473    13 C    1.190   118 C    0.199
   117   6 C    3.933 --   118 C    2.473   115 C    1.310
   118   6 C    3.925 --   117 C    2.473    70 C    1.190   116 C    0.199
 ---------------------------------------------------------------------------

           -------------------------------------------------
          | TOTAL ENERGY             -191.732185494094 Eh   |
          | GRADIENT NORM               0.000306795780 Eh/α |
          | HOMO-LUMO GAP               0.997491157070 eV   |
           -------------------------------------------------

 * finished run on 2022/07/29 at 17:13:25.799
