   * xtb version 6.5.1 (b24c23e) compiled by 'conda@728c89f4b128' on 2022-07-12
          program call               : xtb Ni_PhNO2_C8_2.xyz --gfn 1 --opt -T 48

   ID    Z sym.   atoms
    1   28 Ni     1, 61
    2    6 C      2-6, 8-12, 16-20, 22-27, 29-33, 37-42, 62-66, 68-72, 76-80,
                  82-87, 89-93, 97-102, 121-128
    3    7 N      7, 13, 21, 28, 34, 43, 67, 73, 81, 88, 94, 103
    4    8 O      14, 15, 35, 36, 74, 75, 95, 96
    5    1 H      44-60, 104-120
########################################################################
[WARNING] Please study the warnings concerning your input carefully
-1- prog_main_parseArguments: Unknown option '-T' provided
########################################################################

          :  Hamiltonian                  GFN1-xTB          :
 * total energy  :  -253.4890893 Eh     change       -0.3533955E-09 Eh
 * total energy  :  -253.8626237 Eh     change       -0.3735344E+00 Eh
 * total energy  :  -253.9876589 Eh     change       -0.1250351E+00 Eh
 * total energy  :  -254.0214005 Eh     change       -0.3374165E-01 Eh
 * total energy  :  -254.0375017 Eh     change       -0.1610122E-01 Eh
 * total energy  :  -254.0454827 Eh     change       -0.7981003E-02 Eh
 * total energy  :  -254.0501750 Eh     change       -0.4692269E-02 Eh
 * total energy  :  -254.0520298 Eh     change       -0.1854797E-02 Eh
 * total energy  :  -254.0541711 Eh     change       -0.2141260E-02 Eh
 * total energy  :  -254.0551491 Eh     change       -0.9780170E-03 Eh
 * total energy  :  -254.0594297 Eh     change       -0.7800112E-05 Eh
 * total energy  :  -254.0594354 Eh     change       -0.5681353E-05 Eh
 * total energy  :  -254.0594309 Eh     change        0.4512416E-05 Eh
 * total energy  :  -254.0594381 Eh     change       -0.7234562E-05 Eh
 * total energy  :  -254.0594273 Eh     change        0.1080999E-04 Eh
 * total energy  :  -254.0594393 Eh     change       -0.1198343E-04 Eh
 * total energy  :  -254.0594392 Eh     change        0.1414084E-06 Eh
 * total energy  :  -254.0594444 Eh     change       -0.5293469E-05 Eh
 * total energy  :  -254.0594457 Eh     change       -0.1268943E-05 Eh
   *** GEOMETRY OPTIMIZATION CONVERGED AFTER 50 ITERATIONS ***

 final structure:
================
128
 xtb: 6.5.1 (b24c23e)
Ni          13.39060466081441       -0.02257475309360       -0.02534660830629
C           10.00203661975261       -0.03893823396234       -0.16719397683411
C           10.65777536608220       -1.25205034149839       -0.19438613950174
C            9.98666603922974       -2.51518612436579       -0.24356904996408
C           10.94737550451537       -3.46064495320150       -0.36442152175156
C           12.20460886196295       -2.77170105616134       -0.40399318840583
N           12.01871942679277       -1.42065529024184       -0.25555234985904
C           13.42740700519566       -3.39530196630491       -0.61914962428865
C           13.44732019005290       -4.85318693825962       -0.87569640252498
C           14.14045362361221       -5.71121286475187       -0.01639534588128
C           14.16435408383026       -7.07364732187787       -0.25232378763942
C           13.49312985335564       -7.58244275991310       -1.36058903158187
N           13.51904964382793       -9.01187376031210       -1.61599333657683
O           12.91684570335226       -9.41764409466215       -2.57673929697529
O           14.14041797306508       -9.70380180900217       -0.85081134166016
C           12.79849137957484       -6.74530641741118       -2.22908157118472
C           12.77665417075810       -5.38490773645075       -1.98129615994148
C           14.63421088875111       -2.70681544435049       -0.61037658728829
C           15.89981776107127       -3.31074599718240       -0.89878033592770
C           16.84137208709753       -2.35652497519564       -0.70401750631357
N           14.79653687161304       -1.37934156692356       -0.28715843564106
C           16.14871414235584       -1.17252225955147       -0.30676787195452
C           16.80051664452613       -0.00093881112820        0.08876455429463
C           16.10991349616220        1.16049199752875        0.44569078755412
C           16.75940103871084        2.35006869286360        0.89556438998259
C           15.79391912816739        3.28950222535956        1.03895823093705
C           14.55795076615743        2.67179652997648        0.66383035846034
N           14.75903747190222        1.34951317523087        0.34071990406443
C           13.34484572197680        3.34527798540074        0.59338094651576
C           13.32429307431013        4.80057196541211        0.86528203413555
C           12.56889533343899        5.30887872811030        1.92634080215155
C           12.54702372967958        6.66700412125950        2.18628977772868
C           13.28237355298677        7.52546111204077        1.37393115448598
N           13.25982924470144        8.95301094413409        1.64001647861318
O           12.59190750609621        9.33718969641021        2.56557466720581
O           13.91142669460916        9.66485683509721        0.91958063986461
C           14.03850065721360        7.03996820784507        0.31080851280847
C           14.05837939830134        5.67948914427114        0.06317339701499
C           12.14965900689841        2.71105927763038        0.27721963231635
C           10.89316529770520        3.38873165078383        0.13955645187156
C            9.95616881089131        2.43623230464210       -0.07528967275309
C           10.64161734909914        1.17982237709800       -0.07937075810995
N           11.99071998008819        1.36025145819299        0.09968118201891
H            8.91944605786078       -0.04390948881648       -0.21433143676921
H            8.91721694561472       -2.64146477606360       -0.19009789921303
H           10.82862865621155       -4.53052564513998       -0.41898611984573
H           14.64989400659065       -5.30352455107148        0.84892267120308
H           14.69414900429465       -7.74711518253270        0.41057900582013
H           12.28788488386258       -7.16599336799198       -3.08697013645972
H           12.25060482529880       -4.72093374004990       -2.65725269214959
H           16.04020904205641       -4.33111328260539       -1.21574395051624
H           17.91090478649088       -2.43316488432391       -0.81384697960554
H           17.81877297885418        2.43922849830440        1.07371987764332
H           15.89912805867732        4.30876508377797        1.37276514927112
H           12.00956935042554        4.62864653345848        2.55796687595939
H           11.97002156570837        7.06981316558182        3.00999539494426
H           14.59854472817490        7.72976998786486       -0.30903650127867
H           14.63393728854781        5.28986329202286       -0.76835148788383
H           10.75926203898828        4.45669073948641        0.19670076635590
H            8.89400971790196        2.55330664111636       -0.21898521518390
Ni          31.95013208819258        0.02728770514601       -0.01596883488352
C           35.33862639698342        0.09674576434088       -0.14218517792059
C           34.68260664636002        1.23134365133740        0.28758422683699
C           35.35342906527706        2.42099262481959        0.71542448250730
C           34.39246378572207        3.34242071597494        0.95826858557805
C           33.13535588793892        2.71815679434142        0.66360926760003
N           33.32160131754884        1.41010067564888        0.29451561472483
C           31.91235828010253        3.37655326435363        0.69829742620417
C           31.89214123372824        4.82423329077852        1.00728643802888
C           31.19924111182533        5.29712896056658        2.12589993018062
C           31.17519785984311        6.64856913332273        2.41829977898283
C           31.84603959850675        7.53607579017267        1.58164955882796
N           31.81986367669633        8.95691296831939        1.88110420819678
O           32.42186380553865        9.69354153795886        1.14263844361764
O           31.19858285794971        9.31121432961368        2.85003282192515
C           32.54039084202933        7.08599803872972        0.46231996183977
C           32.56238325337574        5.73199506535912        0.18168457455182
C           30.70569064682461        2.73466653053813        0.44847195113116
C           29.43987469925783        3.40227233936216        0.40772471500383
C           28.49858609164176        2.44434842536245        0.23060921551047
N           30.54375175077319        1.38279084541321        0.25038313637008
C           29.19162149984835        1.19798711900121        0.15484041527084
C           28.54024943054227       -0.03666884126031        0.08236394382997
C           29.23127305357018       -1.24695393911600       -0.02213742752086
C           28.58218132496402       -2.51863643644759       -0.05081075213134
C           29.54790509150720       -3.44302351378232       -0.27019060499363
C           30.78362642001082       -2.72934610438669       -0.38666433310061
N           30.58216061797476       -1.38243224991774       -0.19053279035008
C           31.99684227005291       -3.32695617877554       -0.70469854323986
C           32.01769227286862       -4.77802722737032       -0.99827999904851
C           32.77352490571035       -5.64693701958771       -0.20546623772131
C           32.79566402140718       -7.00343127538722       -0.47378794477276
C           32.06005215961793       -7.49482017650082       -1.54850802396161
N           32.08253556394993       -8.91803512040674       -1.83690804975731
O           32.75182643282079       -9.62091153270146       -1.12388838818743
O           31.43156623756736       -9.30780627959128       -2.77212380664135
C           31.30353559805635       -6.64627631106455       -2.35182584796885
C           31.28340757956538       -5.29222051872421       -2.07121872241537
C           33.19179012695603       -2.62009933418225       -0.76032426820220
C           34.44839085284714       -3.19635715200989       -1.14223814254662
C           35.38509213223687       -2.23244233096756       -0.98466955458176
C           34.69936166859270       -1.06631735500322       -0.51738124544238
N           33.35036441202584       -1.30116403318334       -0.41866160725073
H           36.42119669854296        0.11942916613475       -0.18433726526441
H           36.42287507341724        2.51838290576295        0.81201346771313
H           34.51095412914613        4.35471844701144        1.30888704503004
H           30.69006560369896        4.59452923176518        2.77521606498357
H           30.64561803769499        7.02408014579426        3.28560331009739
H           33.05070511761387        7.79787150818680       -0.17523904861642
H           33.08823260347435        5.37017463308282       -0.69414112630254
H           29.29914996597145        4.46700000965213        0.49649831690387
H           27.42901086618125        2.55626942179047        0.15769586146330
H           27.52288267710254       -2.66839446525081        0.08116757153669
H           29.44303622506408       -4.51312878317061       -0.34274722709828
H           33.33295955930259       -5.25306394264640        0.63501505047654
H           33.37297066002679       -7.68559220083205        0.13862642395488
H           30.74329075444142       -7.05344932840292       -3.18490463008459
H           30.70748206740740       -4.61935165952870       -2.69577176892922
H           34.58256366880925       -4.20785113666948       -1.48953087575591
H           36.44723000061241       -2.28677194058889       -1.16200046537025
C           18.20457535806398        0.00520850637507        0.12837118488604
C           19.42834373473476       -0.00119556459025        0.15394725704105
C           20.77121615589426       -0.01145963861781        0.17182649281953
C           22.00132233915254       -0.02923597263652        0.17863096696872
C           23.33944811416898       -0.04425388611675        0.17608404624833
C           24.56957018129051       -0.05823141229052        0.16403101997470
C           25.91242255918598       -0.06164027043509        0.14242290020202
C           27.13618258438232       -0.05790739037805        0.11678970956963

          :  Hamiltonian                  GFN1-xTB          :
         :: total energy            -254.059445716337 Eh    ::
         :: gradient norm              0.000470159697 Eh/a0 ::
         :: HOMO-LUMO gap              1.236038686019 eV    ::
         :: SCC energy              -257.674915164345 Eh    ::
         :: repulsion energy           3.729358710316 Eh    ::

    * Orbital Energies and Occupations

         #    Occupation            Energy/Eh            Energy/eV
      -------------------------------------------------------------
         1        2.0000           -0.9234415             -25.1281
       ...           ...                  ...                  ...
       213        2.0000           -0.4288972             -11.6709
       214        2.0000           -0.4219226             -11.4811
       215        2.0000           -0.4219215             -11.4811
       216        2.0000           -0.4215480             -11.4709
       217        2.0000           -0.4215468             -11.4709
       218        2.0000           -0.4206578             -11.4467
       219        2.0000           -0.4206568             -11.4467
       220        2.0000           -0.4195838             -11.4175
       221        2.0000           -0.4195827             -11.4174
       222        2.0000           -0.4194671             -11.4143
       223        2.0000           -0.4194663             -11.4143
       224        2.0000           -0.4175303             -11.3616
       225        2.0000           -0.4081230             -11.1056 (HOMO)
       226                         -0.3626994              -9.8696 (LUMO)
       227                         -0.3592153              -9.7747
       228                         -0.3592144              -9.7747
       229                         -0.3529106              -9.6032
       230                         -0.3516240              -9.5682
       231                         -0.3516077              -9.5677
       232                         -0.3502863              -9.5318
       233                         -0.3502489              -9.5308
       234                         -0.3440616              -9.3624
       235                         -0.3440605              -9.3624
       236                         -0.3243317              -8.8255
       ...                                ...                  ...
       454                          1.5869492              43.1831
      -------------------------------------------------------------
                  HL-Gap            0.0454236 Eh            1.2360 eV

Wiberg/Mayer (AO) data.
largest (>0.10) Wiberg bond orders for each atom

     #   Z sym  total        # sym  WBO       # sym  WBO       # sym  WBO
 ---------------------------------------------------------------------------
     1  28 Ni   3.011 --    43 N    0.663     7 N    0.663    21 N    0.660
                            28 N    0.660
     2   6 C    3.936 --    42 C    1.365     3 C    1.364    44 H    0.970
     3   6 C    3.921 --     2 C    1.364     7 N    1.212     4 C    1.174
     4   6 C    3.960 --     5 C    1.651     3 C    1.174    45 H    0.974
     5   6 C    3.962 --     4 C    1.651     6 C    1.175    46 H    0.972
     6   6 C    3.920 --     8 C    1.321     7 N    1.223     5 C    1.175
     7   7 N    3.401 --     6 C    1.223     3 C    1.212     1 Ni   0.663
     8   6 C    3.937 --    18 C    1.323     6 C    1.321     9 C    1.033
     9   6 C    3.985 --    17 C    1.384    10 C    1.383     8 C    1.033
    10   6 C    3.987 --    11 C    1.464     9 C    1.383    47 H    0.971
                            16 C    0.102
    11   6 C    3.987 --    10 C    1.464    12 C    1.387    48 H    0.965
                            17 C    0.102
    12   6 C    3.941 --    16 C    1.387    11 C    1.387    13 N    0.921
    13   7 N    3.866 --    15 O    1.454    14 O    1.454    12 C    0.921
    14   8 O    1.829 --    13 N    1.454    15 O    0.252
    15   8 O    1.829 --    13 N    1.454    14 O    0.252
    16   6 C    3.987 --    17 C    1.463    12 C    1.387    49 H    0.965
                            10 C    0.102
    17   6 C    3.987 --    16 C    1.463     9 C    1.384    50 H    0.971
                            11 C    0.102
    18   6 C    3.914 --     8 C    1.323    21 N    1.209    19 C    1.183
    19   6 C    3.958 --    20 C    1.636    18 C    1.183    51 H    0.973
    20   6 C    3.961 --    19 C    1.636    22 C    1.191    52 H    0.973
    21   7 N    3.405 --    22 C    1.237    18 C    1.209     1 Ni   0.660
    22   6 C    3.900 --    23 C    1.263    21 N    1.237    20 C    1.191
    23   6 C    3.945 --    24 C    1.263    22 C    1.263   121 C    1.186
    24   6 C    3.901 --    23 C    1.263    28 N    1.237    25 C    1.191
    25   6 C    3.961 --    26 C    1.636    24 C    1.191    53 H    0.973
    26   6 C    3.958 --    25 C    1.636    27 C    1.183    54 H    0.973
    27   6 C    3.914 --    29 C    1.324    28 N    1.209    26 C    1.183
    28   7 N    3.405 --    24 C    1.237    27 C    1.209     1 Ni   0.660
    29   6 C    3.937 --    27 C    1.324    39 C    1.320    30 C    1.032
    30   6 C    3.985 --    38 C    1.384    31 C    1.384    29 C    1.032
    31   6 C    3.987 --    32 C    1.463    30 C    1.384    55 H    0.971
                            37 C    0.102
    32   6 C    3.987 --    31 C    1.463    33 C    1.387    56 H    0.965
                            38 C    0.102
    33   6 C    3.941 --    32 C    1.387    37 C    1.387    34 N    0.921
    34   7 N    3.866 --    36 O    1.454    35 O    1.454    33 C    0.921
    35   8 O    1.829 --    34 N    1.454    36 O    0.252
    36   8 O    1.829 --    34 N    1.454    35 O    0.252
    37   6 C    3.987 --    38 C    1.463    33 C    1.387    57 H    0.965
                            31 C    0.102
    38   6 C    3.987 --    37 C    1.463    30 C    1.384    58 H    0.971
                            32 C    0.102
    39   6 C    3.920 --    29 C    1.320    43 N    1.223    40 C    1.175
    40   6 C    3.963 --    41 C    1.651    39 C    1.175    59 H    0.973
    41   6 C    3.960 --    40 C    1.651    42 C    1.173    60 H    0.974
    42   6 C    3.921 --     2 C    1.365    43 N    1.211    41 C    1.173
    43   7 N    3.401 --    39 C    1.223    42 C    1.211     1 Ni   0.663
    44   1 H    0.999 --     2 C    0.970
    45   1 H    0.997 --     4 C    0.974
    46   1 H    1.003 --     5 C    0.972
    47   1 H    1.003 --    10 C    0.971
    48   1 H    1.006 --    11 C    0.965
    49   1 H    1.006 --    16 C    0.965
    50   1 H    1.003 --    17 C    0.971
    51   1 H    1.003 --    19 C    0.973
    52   1 H    1.001 --    20 C    0.973
    53   1 H    1.001 --    25 C    0.973
    54   1 H    1.003 --    26 C    0.973
    55   1 H    1.003 --    31 C    0.971
    56   1 H    1.006 --    32 C    0.965
    57   1 H    1.006 --    37 C    0.965
    58   1 H    1.003 --    38 C    0.971
    59   1 H    1.003 --    40 C    0.973
    60   1 H    0.997 --    41 C    0.974
    61  28 Ni   3.011 --   103 N    0.663    67 N    0.663    81 N    0.660
                            88 N    0.660
    62   6 C    3.936 --   102 C    1.365    63 C    1.364   104 H    0.970
    63   6 C    3.921 --    62 C    1.364    67 N    1.212    64 C    1.174
    64   6 C    3.960 --    65 C    1.651    63 C    1.174   105 H    0.974
    65   6 C    3.962 --    64 C    1.651    66 C    1.175   106 H    0.972
    66   6 C    3.920 --    68 C    1.321    67 N    1.223    65 C    1.175
    67   7 N    3.401 --    66 C    1.223    63 C    1.212    61 Ni   0.663
    68   6 C    3.937 --    78 C    1.323    66 C    1.321    69 C    1.033
    69   6 C    3.985 --    77 C    1.384    70 C    1.383    68 C    1.033
    70   6 C    3.987 --    71 C    1.464    69 C    1.383   107 H    0.971
                            76 C    0.102
    71   6 C    3.987 --    70 C    1.464    72 C    1.387   108 H    0.965
                            77 C    0.102
    72   6 C    3.941 --    76 C    1.387    71 C    1.387    73 N    0.921
    73   7 N    3.866 --    75 O    1.454    74 O    1.454    72 C    0.921
    74   8 O    1.829 --    73 N    1.454    75 O    0.252
    75   8 O    1.829 --    73 N    1.454    74 O    0.252
    76   6 C    3.987 --    77 C    1.463    72 C    1.387   109 H    0.965
                            70 C    0.102
    77   6 C    3.987 --    76 C    1.463    69 C    1.384   110 H    0.971
                            71 C    0.102
    78   6 C    3.914 --    68 C    1.323    81 N    1.209    79 C    1.183
    79   6 C    3.958 --    80 C    1.636    78 C    1.183   111 H    0.973
    80   6 C    3.961 --    79 C    1.636    82 C    1.191   112 H    0.973
    81   7 N    3.405 --    82 C    1.237    78 C    1.209    61 Ni   0.660
    82   6 C    3.900 --    83 C    1.263    81 N    1.237    80 C    1.191
    83   6 C    3.945 --    84 C    1.263    82 C    1.263   128 C    1.186
    84   6 C    3.901 --    83 C    1.263    88 N    1.237    85 C    1.191
    85   6 C    3.961 --    86 C    1.636    84 C    1.191   113 H    0.973
    86   6 C    3.958 --    85 C    1.636    87 C    1.183   114 H    0.973
    87   6 C    3.914 --    89 C    1.324    88 N    1.209    86 C    1.183
    88   7 N    3.405 --    84 C    1.237    87 C    1.209    61 Ni   0.660
    89   6 C    3.937 --    87 C    1.324    99 C    1.320    90 C    1.032
    90   6 C    3.985 --    98 C    1.384    91 C    1.384    89 C    1.032
    91   6 C    3.987 --    92 C    1.463    90 C    1.384   115 H    0.971
                            97 C    0.102
    92   6 C    3.987 --    91 C    1.463    93 C    1.387   116 H    0.965
                            98 C    0.102
    93   6 C    3.941 --    92 C    1.387    97 C    1.387    94 N    0.921
    94   7 N    3.866 --    96 O    1.454    95 O    1.454    93 C    0.921
    95   8 O    1.829 --    94 N    1.454    96 O    0.252
    96   8 O    1.829 --    94 N    1.454    95 O    0.252
    97   6 C    3.987 --    98 C    1.463    93 C    1.387   117 H    0.965
                            91 C    0.102
    98   6 C    3.987 --    97 C    1.463    90 C    1.384   118 H    0.971
                            92 C    0.102
    99   6 C    3.920 --    89 C    1.320   103 N    1.223   100 C    1.175
   100   6 C    3.963 --   101 C    1.651    99 C    1.175   119 H    0.973
   101   6 C    3.960 --   100 C    1.651   102 C    1.173   120 H    0.974
   102   6 C    3.921 --    62 C    1.365   103 N    1.211   101 C    1.173
   103   7 N    3.401 --    99 C    1.223   102 C    1.211    61 Ni   0.663
   104   1 H    0.999 --    62 C    0.970
   105   1 H    0.997 --    64 C    0.974
   106   1 H    1.003 --    65 C    0.972
   107   1 H    1.003 --    70 C    0.971
   108   1 H    1.006 --    71 C    0.965
   109   1 H    1.006 --    76 C    0.965
   110   1 H    1.003 --    77 C    0.971
   111   1 H    1.003 --    79 C    0.973
   112   1 H    1.001 --    80 C    0.973
   113   1 H    1.001 --    85 C    0.973
   114   1 H    1.003 --    86 C    0.973
   115   1 H    1.003 --    91 C    0.971
   116   1 H    1.006 --    92 C    0.965
   117   1 H    1.006 --    97 C    0.965
   118   1 H    1.003 --    98 C    0.971
   119   1 H    1.003 --   100 C    0.973
   120   1 H    0.997 --   101 C    0.974
   121   6 C    3.879 --   122 C    2.446    23 C    1.186   124 C    0.187
   122   6 C    3.938 --   121 C    2.446   123 C    1.341
   123   6 C    3.895 --   124 C    2.341   122 C    1.341   126 C    0.183
   124   6 C    3.928 --   123 C    2.341   125 C    1.366   121 C    0.187
   125   6 C    3.928 --   126 C    2.341   124 C    1.366   128 C    0.187
   126   6 C    3.895 --   125 C    2.341   127 C    1.341   123 C    0.183
   127   6 C    3.938 --   128 C    2.446   126 C    1.341
   128   6 C    3.879 --   127 C    2.446    83 C    1.186   125 C    0.187
 ---------------------------------------------------------------------------

           -------------------------------------------------
          | TOTAL ENERGY             -254.059445716337 Eh   |
          | GRADIENT NORM               0.000470159697 Eh/α |
          | HOMO-LUMO GAP               1.236038686019 eV   |
           -------------------------------------------------

 * finished run on 2022/07/30 at 05:22:23.634
