   * xtb version 6.5.1 (b24c23e) compiled by 'conda@728c89f4b128' on 2022-07-12
          program call               : xtb Ni_Ph3OH_C2_3.xyz --gfn 1 --opt -T 48

   ID    Z sym.   atoms
    1   28 Ni     1, 63, 129
    2    6 C      2-6, 8-11, 13, 15, 17-20, 22-27, 29-32, 34, 36, 38-42,
                  64-68, 70-73, 75, 77, 79-82, 84-89, 91-94, 96, 98, 100-104,
                  125-128, 130-134, 136-139, 141, 143, 145-148, 150-155,
                  157-160, 162, 164, 166-170
    3    7 N      7, 21, 28, 43, 69, 83, 90, 105, 135, 149, 156, 171
    4    8 O      12, 14, 16, 33, 35, 37, 74, 76, 78, 95, 97, 99, 140, 142,
                  144, 161, 163, 165
    5    1 H      44-62, 106-124, 172-189
########################################################################
[WARNING] Please study the warnings concerning your input carefully
-1- prog_main_parseArguments: Unknown option '-T' provided
########################################################################

          :  Hamiltonian                  GFN1-xTB          :
 * total energy  :  -376.3927492 Eh     change       -0.2034994E-09 Eh
 * total energy  :  -376.6096647 Eh     change       -0.2169155E+00 Eh
 * total energy  :  -376.7488899 Eh     change       -0.1392252E+00 Eh
 * total energy  :  -376.8119171 Eh     change       -0.6302723E-01 Eh
 * total energy  :  -376.8434800 Eh     change       -0.3156286E-01 Eh
 * total energy  :  -376.8648108 Eh     change       -0.2133077E-01 Eh
 * total energy  :  -376.8795434 Eh     change       -0.1473258E-01 Eh
 * total energy  :  -376.8909560 Eh     change       -0.1141267E-01 Eh
 * total energy  :  -376.8996189 Eh     change       -0.8662849E-02 Eh
 * total energy  :  -376.9059742 Eh     change       -0.6355361E-02 Eh
 * total energy  :  -376.9353816 Eh     change       -0.8039375E-05 Eh
 * total energy  :  -376.9353898 Eh     change       -0.8190079E-05 Eh
 * total energy  :  -376.9354012 Eh     change       -0.1144848E-04 Eh
 * total energy  :  -376.9354138 Eh     change       -0.1257975E-04 Eh
 * total energy  :  -376.9354284 Eh     change       -0.1456190E-04 Eh
 * total energy  :  -376.9354413 Eh     change       -0.1289297E-04 Eh
 * total energy  :  -376.9354508 Eh     change       -0.9528422E-05 Eh
 * total energy  :  -376.9354591 Eh     change       -0.8318442E-05 Eh
 * total energy  :  -376.9354627 Eh     change       -0.3592333E-05 Eh
   *** GEOMETRY OPTIMIZATION CONVERGED AFTER 68 ITERATIONS ***

 final structure:
================
189
 xtb: 6.5.1 (b24c23e)
Ni          35.88090663933040        0.02744965072062       -0.06224920396513
C           32.48626583939618        0.03623767634123       -0.12881967743767
C           33.13410399903446        1.24792785330559       -0.01290326787791
C           32.44935122931256        2.49787603784861        0.11499586924744
C           33.40100703783344        3.45911411636320        0.15278291191656
C           34.66664964884536        2.79570728784158        0.03474621615109
N           34.49344660130836        1.43564057575990       -0.03717207815833
C           35.88482691297753        3.45944995207536       -0.02167670982462
C           35.88927189205315        4.94323805097102        0.00989092736884
C           35.27633756411686        5.66984771022069       -1.01071024839644
C           35.27896281913964        7.05951155424129       -0.97460173809578
O           34.69227970907287        7.77637915538857       -1.96393221360132
C           35.88881208485814        7.72633833427591        0.08926573584660
O           35.87007028636296        9.09633013674743        0.10087733119276
C           36.49867639663677        7.00006234840762        1.10896488158326
O           37.07276332048725        7.72408405301179        2.12050504243360
C           36.50567360678522        5.61121904039584        1.07122754237948
C           37.09964871809502        2.79167892640808       -0.10113773592649
C           38.36162223255288        3.45573090904757       -0.22291381940612
C           39.31310412269309        2.49153151490131       -0.21565990658834
N           37.27633049408318        1.42705223344054       -0.05482984834821
C           38.63158947838025        1.24259765718586       -0.09481681659112
C           39.29540215875819        0.01755875603708        0.00298140084958
C           38.62177053559720       -1.20336689235891        0.08051573242647
C           39.29514306356796       -2.45827883657389        0.18760825653722
C           38.34002299901159       -3.41745743175807        0.15542635148107
C           37.08168147726644       -2.74437026291927        0.04220283391369
N           37.26670314750434       -1.37997341855022        0.00921048086355
C           35.86807576157791       -3.40395442318841       -0.09413219074724
C           35.86207720947515       -4.88917378222179       -0.10791810467332
C           36.23894370622031       -5.60165325516536        1.02985558219922
C           36.22674884749403       -6.99180094060036        1.01647109769106
O           36.58419261317144       -7.69516759511076        2.11835336179036
C           35.84295196075526       -7.67259324051837       -0.13995788672933
O           35.84282336204466       -9.04315946368051       -0.12449263898036
C           35.47012926669984       -6.95991158833785       -1.27652445892794
O           35.10890504161488       -7.69718493359546       -2.37373822466375
C           35.47476316628391       -5.57037720311370       -1.26440407868459
C           34.65774923521953       -2.73431632616987       -0.21573923544962
C           33.38970642602987       -3.39498255058258       -0.32252711563084
C           32.44272520133835       -2.42824746101621       -0.33138201886655
C           33.13157437320874       -1.17890745187010       -0.22284452258632
N           34.48903182378303       -1.37280162623303       -0.16552049316324
H           31.40254430883390        0.03830427405413       -0.14073531512536
H           31.37767471913536        2.60440932698772        0.17036334858934
H           33.27125118088639        4.52425934160207        0.25394586273712
H           34.81061806094237        5.16268709590266       -1.84576930511915
H           34.79676373240019        8.72039645553011       -1.75962374624590
H           36.32912515303614        9.39503801072708        0.90205352543353
H           37.46190813256553        7.13984534024320        2.78441110428672
H           36.97136552795742        5.05138100284585        1.87377519717402
H           38.49241425023666        4.52179925540699       -0.31249330535358
H           40.38259537261588        2.60209425428810       -0.29149790994369
H           40.36315524044985       -2.57629219530263        0.27054992860785
H           38.46737472852880       -4.48676894466582        0.19451810661888
H           36.52599966383544       -5.08324497147005        1.93551076885214
H           36.50787553374258       -8.64183378200227        1.91422148154668
H           35.54813445610330       -9.35130637710646       -0.99623609162988
H           34.86652719752097       -7.12093464940528       -3.11039767201089
H           35.19444189109014       -5.02145875015814       -2.15572988192899
H           33.25375804455760       -4.46331147129215       -0.36793637695486
H           31.37104647447827       -2.53176998567505       -0.39278616643441
Ni          57.58037671794444       -0.06840080347883       -0.02271250618181
C           60.97403776490417       -0.09085012563216       -0.07780669825028
C           60.31873667237475       -1.30408742015250       -0.08863452475636
C           60.99428036881957       -2.56551947994092       -0.08671507056451
C           60.03651192213646       -3.51838160675109       -0.16505153177642
C           58.77661629933425       -2.83691003147840       -0.22801691962944
N           58.95860043422692       -1.47868373448961       -0.14694825288952
C           57.55609061690421       -3.48030662064110       -0.38524247396355
C           57.54326692588707       -4.95640103136406       -0.53725690172077
C           58.17604924529002       -5.55425315630408       -1.62700109012046
C           58.16282236740510       -6.93711704921859       -1.76758663478864
O           58.76809189738858       -7.52863689975469       -2.82614034664164
C           57.52278401988304       -7.72703785675298       -0.81116629846041
O           57.53121301850488       -9.08769443305049       -0.97283025578196
C           56.89396754616620       -7.12955125493886        0.27819843860381
O           56.29132892634321       -7.97008691050677        1.17700536467314
C           56.89726546144432       -5.74709673822953        0.41668133989810
C           56.34698163961438       -2.79820266521078       -0.40655917979175
C           55.08300918724458       -3.43141068734442       -0.63065970846604
C           54.13729222853659       -2.46869626152158       -0.51434567183922
N           56.17774404994692       -1.44870735696878       -0.19222959785754
C           54.82429571480932       -1.25060272329845       -0.22521597913438
C           54.16727758325985       -0.04439754080075        0.02813723772604
C           54.84785368551216        1.15175054884660        0.26627096714583
C           54.18223886392470        2.38688351366426        0.53278451146026
C           55.14296572534221        3.33744786537557        0.61684222316465
C           56.39696507946690        2.67726608858669        0.41430779463103
N           56.20367864608475        1.32822929312702        0.21488870140999
C           57.61313251378062        3.34257295088232        0.34313393704011
C           57.62699431354232        4.81973233690243        0.49643125085070
C           57.26054537199980        5.40276159968083        1.70888484086724
C           57.27732401984512        6.78584376873513        1.84931684347641
O           56.92829964296676        7.36380496049973        3.02435976475949
C           57.65636549572810        7.58960483731434        0.77295101364620
O           57.66131290150781        8.94951839082997        0.94063127820524
C           58.01938051193927        7.00616346871516       -0.43811410711994
O           58.37648005358823        7.85911701047540       -1.44917917853811
C           58.00927002210296        5.62387311731913       -0.58003392145600
C           58.81831013836685        2.68517725503441        0.13333726516398
C           60.08955223501206        3.34684256337224        0.08934035107689
C           61.03094289598113        2.38167601047694       -0.02835054624828
C           60.33567762323035        1.13138455740040       -0.04879927781237
N           58.97954344984029        1.32544620060536        0.03424428039434
H           62.05776484635556       -0.09809746888555       -0.08720974415641
H           62.06448943761330       -2.68527603111563       -0.02993720506513
H           60.15845804141067       -4.58918858848445       -0.17768908345583
H           58.66476344449144       -4.95000214400492       -2.38029133185523
H           58.64814856616421       -8.48951653957361       -2.74827772007950
H           57.04678470972457       -9.47986886527512       -0.22900130076636
H           55.88511405483924       -7.46966179164408        1.89676148035586
H           56.41607745452712       -5.28883818021477        1.27273278042674
H           54.94724085361412       -4.47630998949485       -0.85707180991928
H           53.06856641371318       -2.56036433122971       -0.61960142340260
H           53.11502872252017        2.49937336622818        0.63305611580069
H           55.02172344072113        4.39418725510721        0.78944212574332
H           56.97785217078977        4.78805107352246        2.55363796178876
H           57.00299214381059        8.32729785778656        2.92445975313684
H           57.94425503477586        9.35302737357272        0.10464058751134
H           58.60719590592423        7.36769609080182       -2.24839651941616
H           58.28087234690423        5.17627330722379       -1.52884114509757
H           60.23161554967530        4.41314472527988        0.15770307846122
H           62.10283823026926        2.48578979758252       -0.08484298910104
C           40.70451075120045        0.01311428864814        0.01697060971480
C           41.92063469083632        0.00865518144344        0.02476562711224
C           51.54220931261487       -0.02520204671360        0.04166387185335
C           52.75829185318019       -0.03323440803141        0.03673977679011
Ni          46.73170658474790       -0.00640768398375        0.02240312237399
C           43.32859963075280        0.00346673056080        0.02686059136291
C           44.00821988176209        1.17833016985344        0.36316759381501
C           43.36295798427818        2.38150927464564        0.77924365546124
C           44.32131838788911        3.33977491547070        0.83456672082851
C           45.54979971805469        2.71894999749397        0.44434310041295
N           45.35425599198811        1.37590221750071        0.21715328304246
C           46.74114360783784        3.40126463479931        0.22243695206479
C           46.73855683589998        4.87972584246715        0.29319202172132
C           47.59469827674697        5.54933947522823        1.16901013381436
C           47.59768544387089        6.93928248988535        1.24583988303710
O           48.41930076390518        7.60159390049358        2.10106756405434
C           46.73858994028270        7.68138885607959        0.42846777930092
O           46.72133403695194        9.03847386771146        0.47631136281195
C           45.88743293923487        7.00431021615963       -0.44915040915126
O           45.07459090848451        7.79025683504281       -1.22490903944230
C           45.87607320003362        5.61876780243984       -0.51988935286096
C           47.93089366858650        2.74303476586396       -0.06746806037544
C           49.16615830361312        3.39729501812743       -0.37293341604704
C           50.11955420537652        2.43380540958492       -0.41654737651553
N           48.11810882458822        1.38129014322721        0.00661290654209
C           49.46428404428492        1.19417159724287       -0.14958705041536
C           50.13431159128255       -0.01832618319709        0.04046583544762
C           49.45335952242125       -1.22580147220878        0.22002188023739
C           50.09746818218073       -2.47330025601336        0.47900352898066
C           49.13954116442691       -3.43016819626133        0.40656253039507
C           47.91209047838548       -2.76348749826871        0.09568153389844
N           48.10761443000391       -1.40230786940299        0.04560342065891
C           46.72210180421253       -3.41032632791129       -0.21789370353921
C           46.72180487242579       -4.88734885938882       -0.33305624090715
C           47.58622993095697       -5.51541667710534       -1.23137183382625
C           47.57809284275434       -6.90016673742180       -1.34990957759598
O           48.40222177777280       -7.52095267571136       -2.22633493091853
C           46.70691863748266       -7.65895448807792       -0.56576949251675
O           46.73270225876661       -9.03966613902985       -0.70904045286779
C           45.86959533756903       -7.03602022888124        0.35809625160149
O           45.04424448949835       -7.77659215954289        1.15069264578095
C           45.86449957575370       -5.64966660295883        0.46189458471738
C           45.53400258800615       -2.72008772281837       -0.42761516745132
C           44.30001479475619       -3.33005627820212       -0.81877286778677
C           43.34666654651502       -2.36899241296634       -0.74269864549512
C           44.00028941672074       -1.17348631336850       -0.31639219643653
N           45.34625984434489       -1.37901227354889       -0.18117003728401
H           42.31160961173651        2.46945622073991        1.00042477481962
H           44.21453814996992        4.37367956592234        1.11998842293121
H           48.25328226387123        4.98435897997629        1.81904586772134
H           48.96407250851789        6.98641202286661        2.60938071292907
H           46.06356254588069        9.35619503960833       -0.16317413138844
H           44.52696793019608        7.24874224688184       -1.80806124996358
H           45.21754691901771        5.11823265266864       -1.21999815596934
H           49.28106853189526        4.45634955311702       -0.53681655629240
H           51.17363930845674        2.54055378773696       -0.61489767646551
H           51.14826033145053       -2.58933147708952        0.68935157809236
H           49.24577683105331       -4.49253686046288        0.55364896199150
H           48.24765448550386       -4.93430477042740       -1.86083463791708
H           48.25430767518937       -8.47922150233441       -2.15802981260802
H           45.83643776057792       -9.39616595227002       -0.76394240679605
H           45.32471892901124       -8.70300570171871        1.15031404633775
H           45.21292400440475       -5.17699507595138        1.18535317687520
H           44.18606306473259       -4.36009261884237       -1.11478900948827
H           42.29333443031035       -2.44950117455610       -0.95660403812062

          :  Hamiltonian                  GFN1-xTB          :
         :: total energy            -376.935462694566 Eh    ::
         :: gradient norm              0.000268084390 Eh/a0 ::
         :: HOMO-LUMO gap              1.016119404155 eV    ::
         :: SCC energy              -381.781353566829 Eh    ::
         :: repulsion energy           5.020994858685 Eh    ::

    * Orbital Energies and Occupations

         #    Occupation            Energy/Eh            Energy/eV
      -------------------------------------------------------------
         1        2.0000           -0.8140183             -22.1506
       ...           ...                  ...                  ...
       315        2.0000           -0.3983032             -10.8384
       316        2.0000           -0.3982665             -10.8374
       317        2.0000           -0.3980752             -10.8322
       318        2.0000           -0.3980400             -10.8312
       319        2.0000           -0.3972822             -10.8106
       320        2.0000           -0.3972477             -10.8097
       321        2.0000           -0.3971690             -10.8075
       322        2.0000           -0.3968319             -10.7983
       323        2.0000           -0.3967333             -10.7957
       324        2.0000           -0.3962383             -10.7822
       325        2.0000           -0.3961780             -10.7806
       326        2.0000           -0.3908548             -10.6357
       327        2.0000           -0.3814059             -10.3786 (HOMO)
       328                         -0.3440642              -9.3625 (LUMO)
       329                         -0.3330816              -9.0636
       330                         -0.3307452              -9.0000
       331                         -0.3307140              -8.9992
       332                         -0.3296298              -8.9697
       333                         -0.3295056              -8.9663
       334                         -0.3283771              -8.9356
       335                         -0.3264345              -8.8827
       336                         -0.3221420              -8.7659
       337                         -0.3013917              -8.2013
       338                         -0.2924426              -7.9578
       ...                                ...                  ...
       659                          1.3438269              36.5674
      -------------------------------------------------------------
                  HL-Gap            0.0373417 Eh            1.0161 eV

Wiberg/Mayer (AO) data.
largest (>0.10) Wiberg bond orders for each atom

     #   Z sym  total        # sym  WBO       # sym  WBO       # sym  WBO
 ---------------------------------------------------------------------------
     1  28 Ni   3.010 --     7 N    0.664    43 N    0.664    28 N    0.662
                            21 N    0.661
     2   6 C    3.934 --     3 C    1.364    42 C    1.363    44 H    0.970
     3   6 C    3.924 --     2 C    1.364     7 N    1.214     4 C    1.175
     4   6 C    3.960 --     5 C    1.650     3 C    1.175    45 H    0.975
     5   6 C    3.963 --     4 C    1.650     6 C    1.176    46 H    0.973
     6   6 C    3.919 --     8 C    1.325     7 N    1.220     5 C    1.176
     7   7 N    3.402 --     6 C    1.220     3 C    1.214     1 Ni   0.664
     8   6 C    3.939 --    18 C    1.327     6 C    1.325     9 C    1.024
     9   6 C    3.989 --    10 C    1.400    17 C    1.387     8 C    1.024
    10   6 C    3.978 --     9 C    1.400    11 C    1.379    47 H    0.970
    11   6 C    3.918 --    10 C    1.379    13 C    1.324    12 O    1.053
    12   8 O    2.048 --    11 C    1.053    48 H    0.847
    13   6 C    3.905 --    15 C    1.341    11 C    1.324    14 O    1.021
    14   8 O    2.021 --    13 C    1.021    49 H    0.846
    15   6 C    3.906 --    17 C    1.384    13 C    1.341    16 O    1.014
    16   8 O    2.025 --    15 C    1.014    50 H    0.860
    17   6 C    3.974 --     9 C    1.387    15 C    1.384    51 H    0.970
    18   6 C    3.915 --     8 C    1.327    21 N    1.207    19 C    1.185
    19   6 C    3.959 --    20 C    1.633    18 C    1.185    52 H    0.973
    20   6 C    3.961 --    19 C    1.633    22 C    1.192    53 H    0.970
    21   7 N    3.406 --    22 C    1.238    18 C    1.207     1 Ni   0.661
    22   6 C    3.909 --    23 C    1.268    21 N    1.238    20 C    1.192
    23   6 C    3.944 --    24 C    1.269    22 C    1.268   125 C    1.170
    24   6 C    3.909 --    23 C    1.269    28 N    1.238    25 C    1.190
    25   6 C    3.962 --    26 C    1.637    24 C    1.190    54 H    0.970
    26   6 C    3.959 --    25 C    1.637    27 C    1.183    55 H    0.972
    27   6 C    3.914 --    29 C    1.331    28 N    1.206    26 C    1.183
    28   7 N    3.406 --    24 C    1.238    27 C    1.206     1 Ni   0.662
    29   6 C    3.939 --    27 C    1.331    39 C    1.325    30 C    1.020
    30   6 C    3.989 --    31 C    1.401    38 C    1.389    29 C    1.020
    31   6 C    3.978 --    30 C    1.401    32 C    1.379    56 H    0.970
    32   6 C    3.918 --    31 C    1.379    34 C    1.325    33 O    1.053
    33   8 O    2.049 --    32 C    1.053    57 H    0.848
    34   6 C    3.905 --    36 C    1.342    32 C    1.325    35 O    1.020
    35   8 O    2.020 --    34 C    1.020    58 H    0.846
    36   6 C    3.905 --    38 C    1.383    34 C    1.342    37 O    1.013
    37   8 O    2.025 --    36 C    1.013    59 H    0.861
    38   6 C    3.974 --    30 C    1.389    36 C    1.383    60 H    0.970
    39   6 C    3.919 --    29 C    1.325    43 N    1.221    40 C    1.177
    40   6 C    3.963 --    41 C    1.649    39 C    1.177    61 H    0.973
    41   6 C    3.959 --    40 C    1.649    42 C    1.175    62 H    0.975
    42   6 C    3.924 --     2 C    1.363    43 N    1.214    41 C    1.175
    43   7 N    3.402 --    39 C    1.221    42 C    1.214     1 Ni   0.664
    44   1 H    1.000 --     2 C    0.970
    45   1 H    0.997 --     4 C    0.975
    46   1 H    1.005 --     5 C    0.973
    47   1 H    0.999 --    10 C    0.970
    48   1 H    0.878 --    12 O    0.847
    49   1 H    0.876 --    14 O    0.846
    50   1 H    0.881 --    16 O    0.860
    51   1 H    1.001 --    17 C    0.970
    52   1 H    1.005 --    19 C    0.973
    53   1 H    1.005 --    20 C    0.970
    54   1 H    1.005 --    25 C    0.970
    55   1 H    1.005 --    26 C    0.972
    56   1 H    0.999 --    31 C    0.970
    57   1 H    0.878 --    33 O    0.848
    58   1 H    0.876 --    35 O    0.846
    59   1 H    0.881 --    37 O    0.861
    60   1 H    1.000 --    38 C    0.970
    61   1 H    1.006 --    40 C    0.973
    62   1 H    0.998 --    41 C    0.975
    63  28 Ni   3.011 --    69 N    0.664   105 N    0.664    90 N    0.662
                            83 N    0.661
    64   6 C    3.934 --    65 C    1.364   104 C    1.363   106 H    0.970
    65   6 C    3.924 --    64 C    1.364    69 N    1.213    66 C    1.175
    66   6 C    3.960 --    67 C    1.649    65 C    1.175   107 H    0.975
    67   6 C    3.963 --    66 C    1.649    68 C    1.177   108 H    0.973
    68   6 C    3.919 --    70 C    1.324    69 N    1.221    67 C    1.177
    69   7 N    3.402 --    68 C    1.221    65 C    1.213    63 Ni   0.664
    70   6 C    3.939 --    80 C    1.328    68 C    1.324    71 C    1.025
    71   6 C    3.989 --    72 C    1.399    79 C    1.387    70 C    1.025
    72   6 C    3.978 --    71 C    1.399    73 C    1.380   109 H    0.970
    73   6 C    3.918 --    72 C    1.380    75 C    1.324    74 O    1.053
    74   8 O    2.049 --    73 C    1.053   110 H    0.847
    75   6 C    3.905 --    77 C    1.341    73 C    1.324    76 O    1.021
    76   8 O    2.021 --    75 C    1.021   111 H    0.846
    77   6 C    3.905 --    79 C    1.384    75 C    1.341    78 O    1.014
    78   8 O    2.025 --    77 C    1.014   112 H    0.861
    79   6 C    3.974 --    71 C    1.387    77 C    1.384   113 H    0.970
    80   6 C    3.915 --    70 C    1.328    83 N    1.207    81 C    1.184
    81   6 C    3.959 --    82 C    1.634    80 C    1.184   114 H    0.973
    82   6 C    3.961 --    81 C    1.634    84 C    1.192   115 H    0.970
    83   7 N    3.406 --    84 C    1.237    80 C    1.207    63 Ni   0.661
    84   6 C    3.909 --    85 C    1.268    83 N    1.237    82 C    1.192
    85   6 C    3.944 --    86 C    1.269    84 C    1.268   128 C    1.170
    86   6 C    3.909 --    85 C    1.269    90 N    1.238    87 C    1.190
    87   6 C    3.962 --    88 C    1.636    86 C    1.190   116 H    0.970
    88   6 C    3.959 --    87 C    1.636    89 C    1.184   117 H    0.972
    89   6 C    3.915 --    91 C    1.331    90 N    1.205    88 C    1.184
    90   7 N    3.406 --    86 C    1.238    89 C    1.205    63 Ni   0.662
    91   6 C    3.939 --    89 C    1.331   101 C    1.324    92 C    1.021
    92   6 C    3.989 --    93 C    1.401   100 C    1.389    91 C    1.021
    93   6 C    3.978 --    92 C    1.401    94 C    1.379   118 H    0.970
    94   6 C    3.918 --    93 C    1.379    96 C    1.325    95 O    1.053
    95   8 O    2.049 --    94 C    1.053   119 H    0.847
    96   6 C    3.906 --    98 C    1.341    94 C    1.325    97 O    1.021
    97   8 O    2.021 --    96 C    1.021   120 H    0.846
    98   6 C    3.905 --   100 C    1.383    96 C    1.341    99 O    1.014
    99   8 O    2.025 --    98 C    1.014   121 H    0.861
   100   6 C    3.974 --    92 C    1.389    98 C    1.383   122 H    0.970
   101   6 C    3.919 --    91 C    1.324   105 N    1.221   102 C    1.177
   102   6 C    3.963 --   103 C    1.648   101 C    1.177   123 H    0.973
   103   6 C    3.959 --   102 C    1.648   104 C    1.176   124 H    0.975
   104   6 C    3.924 --    64 C    1.363   105 N    1.214   103 C    1.176
   105   7 N    3.402 --   101 C    1.221   104 C    1.214    63 Ni   0.664
   106   1 H    1.000 --    64 C    0.970
   107   1 H    0.997 --    66 C    0.975
   108   1 H    1.005 --    67 C    0.973
   109   1 H    0.999 --    72 C    0.970
   110   1 H    0.878 --    74 O    0.847
   111   1 H    0.876 --    76 O    0.846
   112   1 H    0.881 --    78 O    0.861
   113   1 H    1.001 --    79 C    0.970
   114   1 H    1.005 --    81 C    0.973
   115   1 H    1.005 --    82 C    0.970
   116   1 H    1.005 --    87 C    0.970
   117   1 H    1.005 --    88 C    0.972
   118   1 H    0.999 --    93 C    0.970
   119   1 H    0.877 --    95 O    0.847
   120   1 H    0.876 --    97 O    0.846
   121   1 H    0.881 --    99 O    0.861
   122   1 H    1.000 --   100 C    0.970
   123   1 H    1.006 --   102 C    0.973
   124   1 H    0.998 --   103 C    0.975
   125   6 C    3.934 --   126 C    2.585    23 C    1.170
   126   6 C    3.937 --   125 C    2.585   130 C    1.173
   127   6 C    3.937 --   128 C    2.584   151 C    1.173
   128   6 C    3.934 --   127 C    2.584    85 C    1.170
   129  28 Ni   3.021 --   156 N    0.663   171 N    0.662   149 N    0.661
                           135 N    0.661
   130   6 C    3.934 --   170 C    1.266   131 C    1.264   126 C    1.173
   131   6 C    3.910 --   130 C    1.264   135 N    1.235   132 C    1.196
   132   6 C    3.958 --   133 C    1.628   131 C    1.196   172 H    0.971
   133   6 C    3.960 --   132 C    1.628   134 C    1.189   173 H    0.973
   134   6 C    3.914 --   136 C    1.320   135 N    1.206   133 C    1.189
   135   7 N    3.397 --   131 C    1.235   134 C    1.206   129 Ni   0.661
   136   6 C    3.935 --   146 C    1.322   134 C    1.320   137 C    1.035
   137   6 C    3.988 --   138 C    1.389   145 C    1.381   136 C    1.035
   138   6 C    3.973 --   137 C    1.389   139 C    1.382   174 H    0.969
   139   6 C    3.915 --   138 C    1.382   141 C    1.320   140 O    1.044
   140   8 O    2.053 --   139 C    1.044   175 H    0.866
   141   6 C    3.915 --   143 C    1.327   139 C    1.320   142 O    1.052
   142   8 O    2.048 --   141 C    1.052   176 H    0.850
   143   6 C    3.904 --   145 C    1.392   141 C    1.327   144 O    1.013
   144   8 O    2.026 --   143 C    1.013   177 H    0.861
   145   6 C    3.972 --   143 C    1.392   137 C    1.381   178 H    0.969
   146   6 C    3.914 --   136 C    1.322   149 N    1.205   147 C    1.188
   147   6 C    3.960 --   148 C    1.630   146 C    1.188   179 H    0.973
   148   6 C    3.959 --   147 C    1.630   150 C    1.195   180 H    0.971
   149   7 N    3.397 --   150 C    1.236   146 C    1.205   129 Ni   0.661
   150   6 C    3.909 --   151 C    1.264   149 N    1.236   148 C    1.195
   151   6 C    3.934 --   152 C    1.267   150 C    1.264   127 C    1.173
   152   6 C    3.909 --   151 C    1.267   156 N    1.234   153 C    1.194
   153   6 C    3.959 --   154 C    1.631   152 C    1.194   181 H    0.971
   154   6 C    3.960 --   153 C    1.631   155 C    1.187   182 H    0.973
   155   6 C    3.914 --   157 C    1.322   156 N    1.206   154 C    1.187
   156   7 N    3.397 --   152 C    1.234   155 C    1.206   129 Ni   0.663
   157   6 C    3.934 --   167 C    1.323   155 C    1.322   158 C    1.033
   158   6 C    3.989 --   159 C    1.395   166 C    1.395   157 C    1.033
   159   6 C    3.974 --   158 C    1.395   160 C    1.378   183 H    0.969
   160   6 C    3.917 --   159 C    1.378   162 C    1.333   161 O    1.056
   161   8 O    2.051 --   160 C    1.056   184 H    0.847
   162   6 C    3.887 --   164 C    1.346   160 C    1.333   163 O    0.978
   163   8 O    1.980 --   162 C    0.978   185 H    0.863
   164   6 C    3.911 --   166 C    1.379   162 C    1.346   165 O    1.030
   165   8 O    2.033 --   164 C    1.030   186 H    0.861
   166   6 C    3.974 --   158 C    1.395   164 C    1.379   187 H    0.969
   167   6 C    3.914 --   157 C    1.323   171 N    1.205   168 C    1.187
   168   6 C    3.960 --   169 C    1.631   167 C    1.187   188 H    0.973
   169   6 C    3.959 --   168 C    1.631   170 C    1.194   189 H    0.970
   170   6 C    3.910 --   130 C    1.266   171 N    1.235   169 C    1.194
   171   7 N    3.397 --   170 C    1.235   167 C    1.205   129 Ni   0.662
   172   1 H    1.004 --   132 C    0.971
   173   1 H    1.005 --   133 C    0.973
   174   1 H    1.001 --   138 C    0.969
   175   1 H    0.886 --   140 O    0.866
   176   1 H    0.881 --   142 O    0.850
   177   1 H    0.881 --   144 O    0.861
   178   1 H    1.001 --   145 C    0.969
   179   1 H    1.005 --   147 C    0.973
   180   1 H    1.004 --   148 C    0.971
   181   1 H    1.004 --   153 C    0.971
   182   1 H    1.005 --   154 C    0.973
   183   1 H    1.000 --   159 C    0.969
   184   1 H    0.881 --   161 O    0.847
   185   1 H    0.884 --   163 O    0.863
   186   1 H    0.885 --   165 O    0.861
   187   1 H    1.000 --   166 C    0.969
   188   1 H    1.005 --   168 C    0.973
   189   1 H    1.004 --   169 C    0.970
 ---------------------------------------------------------------------------

           -------------------------------------------------
          | TOTAL ENERGY             -376.935462694566 Eh   |
          | GRADIENT NORM               0.000268084390 Eh/α |
          | HOMO-LUMO GAP               1.016119404155 eV   |
           -------------------------------------------------

 * finished run on 2022/07/30 at 06:23:58.413
