   * xtb version 6.5.1 (b24c23e) compiled by 'conda@728c89f4b128' on 2022-07-12
          program call               : xtb Cu_Ph_C8_3.xyz --gfn 1 --opt -T 48

   ID    Z sym.   atoms
    1   29 Cu     1, 57, 129
    2    6 C      2-6, 8-11, 13-29, 32-37, 58-62, 64-67, 69-85, 88-93,
                  113-128, 130-134, 136-139, 141-157, 160-165
    3    7 N      7, 12, 30, 31, 63, 68, 86, 87, 135, 140, 158, 159
    4    1 H      38-56, 94-112, 166-183

          :  Hamiltonian                  GFN1-xTB          :
 * total energy  :  -317.3441975 Eh     change        0.1597130E-08 Eh
 * total energy  :  -317.7580451 Eh     change       -0.4138475E+00 Eh
 * total energy  :  -317.8860852 Eh     change       -0.1280401E+00 Eh
 * total energy  :  -317.9427332 Eh     change       -0.5664796E-01 Eh
 * total energy  :  -317.9883173 Eh     change       -0.4558409E-01 Eh
 * total energy  :  -318.0413858 Eh     change       -0.5306857E-01 Eh
 * total energy  :  -318.0968611 Eh     change       -0.5547523E-01 Eh
 * total energy  :  -318.1487330 Eh     change       -0.5187192E-01 Eh
 * total energy  :  -318.1758462 Eh     change       -0.2711325E-01 Eh
 * total energy  :  -318.1696764 Eh     change        0.6169852E-02 Eh
 * total energy  :  -318.3459031 Eh     change       -0.3078397E-04 Eh
 * total energy  :  -318.3459266 Eh     change       -0.2357627E-04 Eh
 * total energy  :  -318.3459430 Eh     change       -0.1636752E-04 Eh
 * total energy  :  -318.3459594 Eh     change       -0.1635506E-04 Eh
 * total energy  :  -318.3459701 Eh     change       -0.1076658E-04 Eh
 * total energy  :  -318.3459797 Eh     change       -0.9603200E-05 Eh
 * total energy  :  -318.3459880 Eh     change       -0.8272381E-05 Eh
 * total energy  :  -318.3459946 Eh     change       -0.6628954E-05 Eh
 * total energy  :  -318.3459975 Eh     change       -0.2842732E-05 Eh
   *** GEOMETRY OPTIMIZATION CONVERGED AFTER 68 ITERATIONS ***

 final structure:
================
183
 xtb: 6.5.1 (b24c23e)
Cu          23.71338995041988       -0.01026915705776        0.00120973658837
C           20.30734347959172       -0.04301960707362       -0.02303858850360
C           20.94363567425641       -1.27338354182685       -0.09082055103901
C           20.27001931633746       -2.53952587271412       -0.13841504556767
C           21.23003222418854       -3.49650449267429       -0.17882500568963
C           22.49982084647953       -2.82260342257368       -0.16383386617973
N           22.29460251027719       -1.47407644991878       -0.10490666587436
C           23.74461542487416       -3.45579018555794       -0.17389327411553
C           24.97654882003345       -2.80232522994549       -0.12052188636728
C           26.25444619428216       -3.45414522575241       -0.17276583965654
C           27.19995512916933       -2.48231757165477       -0.11456138007315
N           25.16435670679338       -1.44725566881184       -0.04244973117154
C           26.50755832464334       -1.23131860061711       -0.03407425729876
C           27.14231762270252        0.02210884428721        0.02521218720527
C           26.48248576727936        1.26278365426073        0.07709109738605
C           27.14999747642986        2.52942463330427        0.10154048097465
C           26.18569669356271        3.48348266850183        0.14248754954473
C           24.92100254661863        2.80432127858912        0.15145720330638
C           23.67623031811704        3.43527303254211        0.18003614311584
C           23.66281745681140        4.91798888244493        0.25968471092763
C           23.11341188988588        5.67729840139990       -0.77397847135844
C           23.10778093157699        7.06218661363486       -0.69987067688468
C           23.64518673216906        7.70441158736151        0.40735346087706
C           24.19074012229345        6.95571331963903        1.44132583846477
C           24.20245203850120        5.57087176837960        1.36863476590995
C           22.44382801023160        2.77903054669923        0.13889980326430
C           21.16085443396624        3.42388012618676        0.20976353914278
C           20.22024578132230        2.44887566413961        0.14862619240016
C           20.91902425393377        1.19955033446963        0.04917951959168
N           22.26562450934766        1.42826194204826        0.05027094354242
N           25.13531087165814        1.45188759983165        0.10154615317291
C           23.75877875746905       -4.93951715414034       -0.24323349203409
C           23.25938225931932       -5.60071123867680       -1.36558513837802
C           23.27629839690151       -6.98613873709735       -1.42788251308914
C           23.78538651422614       -7.72640032144157       -0.36971065337445
C           24.28157924099526       -7.07544006460241        0.75161091445965
C           24.27194509058427       -5.69015737512741        0.81497902446656
H           19.22223877196040       -0.05416188287349       -0.01646856559007
H           19.19875016060800       -2.66580501288561       -0.13402410265114
H           21.09820956425219       -4.56625252855819       -0.20544348069882
H           26.40426576480228       -4.51841227113437       -0.25600773732032
H           28.27249513837664       -2.59229389456279       -0.13048227694319
H           28.21993899925935        2.66183915791905        0.08217611813027
H           26.31506582821999        4.55359665345666        0.15235707262127
H           22.70503925052305        5.17753140393061       -1.64538585416484
H           22.68318664920984        7.64264458151916       -1.51148427440966
H           23.63906481116697        8.78700983200434        0.46426753125653
H           24.60937054802881        7.45247590055378        2.30960105270795
H           24.61887965641526        4.98697199376720        2.18198481440575
H           21.00719647796038        4.48669128558069        0.30598033729889
H           19.14677199505478        2.55181861616681        0.17427100233987
H           22.87157623124994       -5.02335583243213       -2.19747632660835
H           22.89121541088629       -7.48989104461819       -2.30757573529910
H           23.79644528531220       -8.80932476251525       -0.41915389009240
H           24.67819358287549       -7.64935508084369        1.58177618547053
H           24.64999884628086       -5.18294609874328        1.69567289372832
Cu          60.92435536620233        0.03620775110678        0.00906605042042
C           64.33056136815860        0.06405117793655       -0.02841106536302
C           63.69645244077315        1.29732226789057       -0.04155746403926
C           64.37236074722941        2.56314262649102       -0.03888638382489
C           63.41406032418080        3.52267206770554       -0.03520480219290
C           62.14304392959569        2.85098881150973       -0.04299461918318
N           62.34585139164273        1.50080925591044       -0.04158750369148
C           60.89936786052844        3.48600746031416       -0.02084914028925
C           59.66648224541893        2.83291819130447        0.01100663900648
C           58.38968794470291        3.48869625726218       -0.00817694150897
C           57.44252932632998        2.51707716477117        0.01569795575136
N           59.47631311663321        1.47614248835467        0.03439474883699
C           58.13274320872693        1.26256251586420        0.04150361761188
C           57.49516111766193        0.00915768978888        0.05306519787058
C           58.15254072410999       -1.23390380690126        0.04714771818782
C           57.48263054393612       -2.49921345027682        0.02009667704191
C           58.44527192950164       -3.45583159541576        0.01159158716623
C           59.71144741904870       -2.78006371478460        0.04236341059567
C           60.95525852972414       -3.41360835376807        0.03531067773572
C           60.96721847709610       -4.89841494616256        0.04645363318881
C           61.51334993063782       -5.60925896077932       -1.02285021014279
C           61.51905996041980       -6.99607860963682       -1.01281676861133
C           60.98476372203525       -7.68873862977757        0.06511700521633
C           60.44229425830006       -6.98856451147289        1.13411348772484
C           60.43074524813021       -5.60183787071497        1.12562680628424
C           62.18882394098448       -2.75832154516320        0.01810526635341
C           63.47078904045575       -3.40804122289477        0.05546671157508
C           64.41314136320125       -2.43303766850933        0.03426954929620
C           63.71653271243447       -1.17927841138424       -0.00744837322209
N           62.36946348797023       -1.40530986121901       -0.01119760307662
N           59.49947495728075       -1.42629921147079        0.05404080967652
C           60.88689271929960        4.97126616956336       -0.02686157733190
C           61.38481000458929        5.67975928280220       -1.12061850191436
C           61.36820378324906        7.06661532930757       -1.12344118273192
C           60.86068237848244        7.76101374852089       -0.03387787925682
C           60.36607499353794        7.06276374994131        1.05936277348055
C           60.37566577783851        5.67607939235219        1.06340455460711
H           65.41570120570906        0.07284366199921       -0.02553839665310
H           65.44388416351359        2.68721975711794       -0.03386006419074
H           63.54791400394344        4.59234970315721       -0.01763270426816
H           58.24146903662691        4.55568747178758       -0.04777808830753
H           56.37017965898956        2.62977334018737        0.00971580167243
H           56.41230201361370       -2.62871263363926        0.00227266378270
H           58.31370681063591       -4.52508820799850       -0.02548395426772
H           61.91930008627579       -5.06980259076648       -1.87142931899492
H           61.94135830257735       -7.53839979436787       -1.85155537266708
H           60.99098335800876       -8.77280772016663        0.07200482710898
H           60.02611482926017       -7.52491959022311        1.97971430363764
H           60.01724735436913       -5.05615475464253        1.96653531822395
H           63.62277587529920       -4.47432815825846        0.10406935933914
H           65.48649315799625       -2.53898719882691        0.05148085957524
H           61.77074361742650        5.13854420829393       -1.97730649474976
H           61.75196320205730        7.60747614475181       -1.98141294357167
H           60.84972112213451        8.84505390278425       -0.03689034337893
H           59.97093564928627        7.60061307469758        1.91397916263114
H           59.99902685762049        5.13161937081005        1.92219495456773
C           28.54730404337011        0.03655218165418        0.02179798071424
C           29.77174084908640        0.04698907447280        0.02345931366977
C           31.11413329470695        0.05368034044055        0.02106532674647
C           32.34478702090265        0.05726649197534        0.02037410985086
C           33.68231305838638        0.05695280542141        0.01730842604546
C           34.91302142217189        0.05119160984225        0.01201162749145
C           36.25514294977751        0.04867077883767        0.00604797389388
C           37.47982782684422        0.04111477554803       -0.00025963131582
C           47.15731540224665        0.01639777056500        0.04027371211947
C           48.38201237035197        0.01286780779877        0.05331703484304
C           49.72418309828526        0.00891022263926        0.06353915008155
C           50.95493129660976        0.00767983050849        0.06963050300947
C           52.29250964010331        0.00086384612284        0.07365094632644
C           53.52317380793109       -0.00406894968136        0.07162524627469
C           54.86565256515939       -0.00137595480879        0.07002134301900
C           56.09009115413675        0.00067200825774        0.05984625159999
Cu          42.31850905370144        0.02879504924369        0.00589902031826
C           38.88405061812304        0.03679136821550       -0.00355968647329
C           39.52879012934829       -1.21358181602470       -0.00264153537902
C           38.84747708007951       -2.47229674025589        0.04011119557390
C           39.80121741643300       -3.43814125490460        0.02154221798822
C           41.07161968818695       -2.77354700854294       -0.04016412410573
N           40.87249188278562       -1.41837703222483       -0.04795518608975
C           42.31026724865094       -3.41697378578069       -0.06576435889634
C           43.55159936965973       -2.77801528730342       -0.06571237749160
C           44.81893205314702       -3.44549583055143       -0.15360712964423
C           45.77733956631323       -2.48445521142873       -0.12789631328953
N           43.75712488854701       -1.42538953077958       -0.00032864891446
C           45.10201332246865       -1.22544699516777       -0.03245364933806
C           45.75308348118458        0.02031003186690        0.02695862731820
C           45.10780402593058        1.26952712914495        0.07656601253441
C           45.78833833414643        2.52485741969859        0.18278877906995
C           44.83468058378360        3.49086004912318        0.19724239811586
C           43.56512602189233        2.83017218474656        0.09167109257290
C           42.32671018866793        3.47472701435371        0.07845681636837
C           42.32896839761749        4.95921770412937        0.11470424970704
C           41.75429485981071        5.63969995632299        1.18889168178228
C           41.75923129994163        7.02602511928570        1.22392305829730
C           42.33157604480330        7.74850386367463        0.18578806314916
C           42.90261232593217        7.07862279984217       -0.88772406382905
C           42.90504652794693        5.69221988758379       -0.92343779261209
C           41.08557889635095        2.83651369547706        0.03764641013900
C           39.81893240787300        3.50689151640624       -0.03728127158240
C           38.86067971801884        2.54559379940610       -0.05881255959934
C           39.53550227225504        1.28382741010768       -0.00630653079903
N           40.87989312295536        1.48232470367004        0.04680471120444
N           43.76457991172567        1.47658121897813        0.02653749037358
C           42.30818533188662       -4.90189301497994       -0.09116971939705
C           41.75469174059532       -5.59104800471999       -1.17065780844178
C           41.75808276642497       -6.97776155147616       -1.19259781203478
C           42.30694083589365       -7.69151819815356       -0.13596387935422
C           42.85622234440863       -7.01271927852731        0.94326374209327
C           42.86071530325075       -5.62612913246703        0.96577928962967
H           37.77682014990945       -2.59182031157099        0.08603968112473
H           39.66134965634196       -4.50635309003085        0.05917702010275
H           44.95365941571990       -4.51170799696077       -0.23777275814862
H           46.84749497578481       -2.60710341393524       -0.17691401545520
H           46.85838829724593        2.64188889959897        0.24587008381061
H           44.97413230935625        4.55616016626921        0.28505964340439
H           41.31676422760307        5.07635567642695        2.00563617021716
H           41.31460861081470        7.54442914544988        2.06622703690445
H           42.33253203010149        8.83227157990441        0.21335600247334
H           43.34812535195574        7.63849429407066       -1.70256759661189
H           43.34142257675898        5.17051773506449       -1.76797831572355
H           39.68434328797690        4.57549829689571       -0.08178508012261
H           37.79104548099654        2.67015539364923       -0.11383989392750
H           41.33514948859845       -5.03469536390501       -2.00148751368696
H           41.33066282289464       -7.50341952706997       -2.03929469806789
H           42.30671647655714       -8.77549521120982       -0.15353754882679
H           43.28323902070730       -7.56560588699247        1.77264500573688
H           43.28078506942225       -5.09694028209974        1.81391363236953

          :  Hamiltonian                  GFN1-xTB          :
         :: total energy            -318.345997461671 Eh    ::
         :: gradient norm              0.000732734041 Eh/a0 ::
         :: HOMO-LUMO gap              0.000014269585 eV    ::
         :: SCC energy              -323.785844968519 Eh    ::
         :: repulsion energy           5.602757627003 Eh    ::

    * Orbital Energies and Occupations

         #    Occupation            Energy/Eh            Energy/eV
      -------------------------------------------------------------
         1        2.0000           -0.7650051             -20.8168
       ...           ...                  ...                  ...
       287        2.0000           -0.4088794             -11.1262
       288        2.0000           -0.4086729             -11.1206
       289        2.0000           -0.4079065             -11.0997
       290        2.0000           -0.4058311             -11.0432
       291        2.0000           -0.4058178             -11.0429
       292        2.0000           -0.3963147             -10.7843
       293        2.0000           -0.3963103             -10.7842
       294        2.0000           -0.3961956             -10.7810
       295        2.0000           -0.3906423             -10.6299
       296        2.0000           -0.3853989             -10.4872
       297        2.0000           -0.3785319             -10.3004
       298        1.0183           -0.3567679              -9.7081
       299        0.9910           -0.3567096              -9.7066 (HOMO)
       300        0.9907           -0.3567090              -9.7065 (LUMO)
       301        0.0000           -0.3421652              -9.3108
       302                         -0.3343611              -9.0984
       303                         -0.3287206              -8.9449
       304                         -0.3282453              -8.9320
       305                         -0.3282388              -8.9318
       306                         -0.3279566              -8.9242
       307                         -0.3073269              -8.3628
       308                         -0.2986871              -8.1277
       309                         -0.2986455              -8.1266
       310                         -0.2976252              -8.0988
       ...                                ...                  ...
       635                          1.6083438              43.7653
      -------------------------------------------------------------
                  HL-Gap            0.0000005 Eh            0.0000 eV

Wiberg/Mayer (AO) data.
largest (>0.10) Wiberg bond orders for each atom

     #   Z sym  total        # sym  WBO       # sym  WBO       # sym  WBO
 ---------------------------------------------------------------------------
     1  29 Cu   2.191 --     7 N    0.506    30 N    0.506    31 N    0.504
                            12 N    0.503
     2   6 C    3.929 --     3 C    1.361    29 C    1.361    38 H    0.971
     3   6 C    3.917 --     2 C    1.361     7 N    1.229     4 C    1.171
     4   6 C    3.955 --     5 C    1.655     3 C    1.171    39 H    0.976
     5   6 C    3.958 --     4 C    1.655     6 C    1.173    40 H    0.973
     6   6 C    3.913 --     8 C    1.320     7 N    1.238     5 C    1.173
     7   7 N    3.244 --     6 C    1.238     3 C    1.229     1 Cu   0.506
     8   6 C    3.935 --     9 C    1.329     6 C    1.320    32 C    1.024
     9   6 C    3.908 --     8 C    1.329    12 N    1.220    10 C    1.179
    10   6 C    3.954 --    11 C    1.643     9 C    1.179    41 H    0.973
    11   6 C    3.956 --    10 C    1.643    13 C    1.187    42 H    0.974
    12   7 N    3.248 --    13 C    1.258     9 C    1.220     1 Cu   0.503
    13   6 C    3.896 --    12 N    1.258    14 C    1.258    11 C    1.187
    14   6 C    3.939 --    15 C    1.258    13 C    1.258   113 C    1.191
    15   6 C    3.896 --    14 C    1.258    31 N    1.257    16 C    1.187
    16   6 C    3.956 --    17 C    1.642    15 C    1.187    43 H    0.974
    17   6 C    3.954 --    16 C    1.642    18 C    1.179    44 H    0.973
    18   6 C    3.908 --    19 C    1.328    31 N    1.220    17 C    1.179
    19   6 C    3.935 --    18 C    1.328    26 C    1.319    20 C    1.025
    20   6 C    3.988 --    21 C    1.396    25 C    1.396    19 C    1.025
                            23 C    0.108
    21   6 C    3.988 --    22 C    1.447    20 C    1.396    45 H    0.973
                            24 C    0.110
    22   6 C    3.995 --    21 C    1.447    23 C    1.438    46 H    0.973
                            25 C    0.110
    23   6 C    3.990 --    22 C    1.438    24 C    1.438    47 H    0.974
                            20 C    0.108
    24   6 C    3.995 --    25 C    1.447    23 C    1.438    48 H    0.973
                            21 C    0.110
    25   6 C    3.988 --    24 C    1.447    20 C    1.396    49 H    0.973
                            22 C    0.110
    26   6 C    3.913 --    19 C    1.319    30 N    1.238    27 C    1.173
    27   6 C    3.958 --    28 C    1.655    26 C    1.173    50 H    0.973
    28   6 C    3.955 --    27 C    1.655    29 C    1.171    51 H    0.976
    29   6 C    3.917 --     2 C    1.361    30 N    1.229    28 C    1.171
    30   7 N    3.244 --    26 C    1.238    29 C    1.229     1 Cu   0.506
    31   7 N    3.248 --    15 C    1.257    18 C    1.220     1 Cu   0.504
    32   6 C    3.988 --    33 C    1.397    37 C    1.396     8 C    1.024
                            35 C    0.108
    33   6 C    3.988 --    34 C    1.447    32 C    1.397    52 H    0.973
                            36 C    0.110
    34   6 C    3.995 --    33 C    1.447    35 C    1.438    53 H    0.973
                            37 C    0.110
    35   6 C    3.991 --    34 C    1.438    36 C    1.438    54 H    0.974
                            32 C    0.108
    36   6 C    3.995 --    37 C    1.447    35 C    1.438    55 H    0.973
                            33 C    0.110
    37   6 C    3.988 --    36 C    1.447    32 C    1.396    56 H    0.973
                            34 C    0.110
    38   1 H    1.001 --     2 C    0.971
    39   1 H    0.998 --     4 C    0.976
    40   1 H    1.005 --     5 C    0.973
    41   1 H    1.005 --    10 C    0.973
    42   1 H    1.002 --    11 C    0.974
    43   1 H    1.002 --    16 C    0.974
    44   1 H    1.005 --    17 C    0.973
    45   1 H    1.005 --    21 C    0.973
    46   1 H    1.003 --    22 C    0.973
    47   1 H    1.003 --    23 C    0.974
    48   1 H    1.003 --    24 C    0.973
    49   1 H    1.005 --    25 C    0.973
    50   1 H    1.005 --    27 C    0.973
    51   1 H    0.998 --    28 C    0.976
    52   1 H    1.005 --    33 C    0.973
    53   1 H    1.003 --    34 C    0.973
    54   1 H    1.003 --    35 C    0.974
    55   1 H    1.003 --    36 C    0.973
    56   1 H    1.005 --    37 C    0.973
    57  29 Cu   2.191 --    86 N    0.507    63 N    0.506    87 N    0.504
                            68 N    0.504
    58   6 C    3.928 --    59 C    1.361    85 C    1.361    94 H    0.971
    59   6 C    3.917 --    58 C    1.361    63 N    1.229    60 C    1.171
    60   6 C    3.955 --    61 C    1.655    59 C    1.171    95 H    0.976
    61   6 C    3.958 --    60 C    1.655    62 C    1.173    96 H    0.973
    62   6 C    3.913 --    64 C    1.320    63 N    1.238    61 C    1.173
    63   7 N    3.244 --    62 C    1.238    59 C    1.229    57 Cu   0.506
    64   6 C    3.935 --    65 C    1.329    62 C    1.320    88 C    1.024
    65   6 C    3.908 --    64 C    1.329    68 N    1.220    66 C    1.179
    66   6 C    3.954 --    67 C    1.643    65 C    1.179    97 H    0.973
    67   6 C    3.956 --    66 C    1.643    69 C    1.187    98 H    0.974
    68   7 N    3.248 --    69 C    1.258    65 C    1.220    57 Cu   0.504
    69   6 C    3.896 --    68 N    1.258    70 C    1.257    67 C    1.187
    70   6 C    3.939 --    71 C    1.258    69 C    1.257   128 C    1.191
    71   6 C    3.897 --    70 C    1.258    87 N    1.257    72 C    1.187
    72   6 C    3.956 --    73 C    1.642    71 C    1.187    99 H    0.974
    73   6 C    3.954 --    72 C    1.642    74 C    1.179   100 H    0.973
    74   6 C    3.908 --    75 C    1.328    87 N    1.220    73 C    1.179
    75   6 C    3.935 --    74 C    1.328    82 C    1.319    76 C    1.026
    76   6 C    3.988 --    77 C    1.396    81 C    1.396    75 C    1.026
                            79 C    0.108
    77   6 C    3.988 --    78 C    1.447    76 C    1.396   101 H    0.973
                            80 C    0.110
    78   6 C    3.995 --    77 C    1.447    79 C    1.438   102 H    0.973
                            81 C    0.110
    79   6 C    3.990 --    78 C    1.438    80 C    1.438   103 H    0.974
                            76 C    0.108
    80   6 C    3.995 --    81 C    1.447    79 C    1.438   104 H    0.973
                            77 C    0.110
    81   6 C    3.988 --    80 C    1.447    76 C    1.396   105 H    0.973
                            78 C    0.110
    82   6 C    3.913 --    75 C    1.319    86 N    1.238    83 C    1.173
    83   6 C    3.958 --    84 C    1.655    82 C    1.173   106 H    0.973
    84   6 C    3.955 --    83 C    1.655    85 C    1.171   107 H    0.976
    85   6 C    3.917 --    58 C    1.361    86 N    1.229    84 C    1.171
    86   7 N    3.244 --    82 C    1.238    85 C    1.229    57 Cu   0.507
    87   7 N    3.248 --    71 C    1.257    74 C    1.220    57 Cu   0.504
    88   6 C    3.988 --    89 C    1.397    93 C    1.396    64 C    1.024
                            91 C    0.108
    89   6 C    3.988 --    90 C    1.446    88 C    1.397   108 H    0.973
                            92 C    0.110
    90   6 C    3.995 --    89 C    1.446    91 C    1.438   109 H    0.973
                            93 C    0.110
    91   6 C    3.991 --    90 C    1.438    92 C    1.438   110 H    0.974
                            88 C    0.108
    92   6 C    3.995 --    93 C    1.447    91 C    1.438   111 H    0.973
                            89 C    0.110
    93   6 C    3.988 --    92 C    1.447    88 C    1.396   112 H    0.973
                            90 C    0.110
    94   1 H    1.001 --    58 C    0.971
    95   1 H    0.998 --    60 C    0.976
    96   1 H    1.005 --    61 C    0.973
    97   1 H    1.005 --    66 C    0.973
    98   1 H    1.002 --    67 C    0.974
    99   1 H    1.002 --    72 C    0.974
   100   1 H    1.005 --    73 C    0.973
   101   1 H    1.005 --    77 C    0.973
   102   1 H    1.003 --    78 C    0.973
   103   1 H    1.003 --    79 C    0.974
   104   1 H    1.003 --    80 C    0.973
   105   1 H    1.005 --    81 C    0.973
   106   1 H    1.005 --    83 C    0.973
   107   1 H    0.998 --    84 C    0.976
   108   1 H    1.005 --    89 C    0.973
   109   1 H    1.003 --    90 C    0.973
   110   1 H    1.003 --    91 C    0.974
   111   1 H    1.003 --    92 C    0.973
   112   1 H    1.005 --    93 C    0.973
   113   6 C    3.877 --   114 C    2.440    14 C    1.191   116 C    0.187
   114   6 C    3.936 --   113 C    2.440   115 C    1.344
   115   6 C    3.892 --   116 C    2.335   114 C    1.344   118 C    0.182
   116   6 C    3.926 --   115 C    2.335   117 C    1.370   113 C    0.187
   117   6 C    3.925 --   118 C    2.334   116 C    1.370   120 C    0.186
   118   6 C    3.893 --   117 C    2.334   119 C    1.346   115 C    0.182
   119   6 C    3.932 --   120 C    2.436   118 C    1.346
   120   6 C    3.877 --   119 C    2.436   130 C    1.194   117 C    0.186
   121   6 C    3.877 --   122 C    2.436   142 C    1.194   124 C    0.186
   122   6 C    3.932 --   121 C    2.436   123 C    1.346
   123   6 C    3.893 --   124 C    2.334   122 C    1.346   126 C    0.182
   124   6 C    3.925 --   123 C    2.334   125 C    1.370   121 C    0.186
   125   6 C    3.926 --   126 C    2.336   124 C    1.370   128 C    0.187
   126   6 C    3.892 --   125 C    2.336   127 C    1.344   123 C    0.182
   127   6 C    3.936 --   128 C    2.440   126 C    1.344
   128   6 C    3.877 --   127 C    2.440    70 C    1.191   125 C    0.187
   129  29 Cu   2.161 --   158 N    0.498   140 N    0.498   159 N    0.498
                           135 N    0.498
   130   6 C    3.927 --   131 C    1.255   157 C    1.254   120 C    1.194
   131   6 C    3.897 --   135 N    1.260   130 C    1.255   132 C    1.188
   132   6 C    3.955 --   133 C    1.640   131 C    1.188   166 H    0.974
   133   6 C    3.955 --   132 C    1.640   134 C    1.181   167 H    0.973
   134   6 C    3.906 --   136 C    1.324   135 N    1.221   133 C    1.181
   135   7 N    3.241 --   131 C    1.260   134 C    1.221   129 Cu   0.498
   136   6 C    3.930 --   134 C    1.324   137 C    1.324   160 C    1.025
   137   6 C    3.906 --   136 C    1.324   140 N    1.221   138 C    1.181
   138   6 C    3.955 --   139 C    1.640   137 C    1.181   168 H    0.973
   139   6 C    3.955 --   138 C    1.640   141 C    1.188   169 H    0.974
   140   7 N    3.241 --   141 C    1.260   137 C    1.221   129 Cu   0.498
   141   6 C    3.897 --   140 N    1.260   142 C    1.255   139 C    1.188
   142   6 C    3.927 --   141 C    1.255   143 C    1.255   121 C    1.194
   143   6 C    3.897 --   159 N    1.260   142 C    1.255   144 C    1.188
   144   6 C    3.955 --   145 C    1.640   143 C    1.188   170 H    0.974
   145   6 C    3.955 --   144 C    1.640   146 C    1.181   171 H    0.973
   146   6 C    3.906 --   147 C    1.324   159 N    1.221   145 C    1.181
   147   6 C    3.930 --   146 C    1.324   154 C    1.324   148 C    1.026
   148   6 C    3.988 --   153 C    1.396   149 C    1.395   147 C    1.026
                           151 C    0.108
   149   6 C    3.988 --   150 C    1.447   148 C    1.395   172 H    0.973
                           152 C    0.110
   150   6 C    3.995 --   149 C    1.447   151 C    1.438   173 H    0.973
                           153 C    0.110
   151   6 C    3.990 --   152 C    1.438   150 C    1.438   174 H    0.974
                           148 C    0.108
   152   6 C    3.995 --   153 C    1.447   151 C    1.438   175 H    0.973
                           149 C    0.110
   153   6 C    3.988 --   152 C    1.447   148 C    1.396   176 H    0.973
                           150 C    0.110
   154   6 C    3.906 --   147 C    1.324   158 N    1.221   155 C    1.181
   155   6 C    3.955 --   156 C    1.640   154 C    1.181   177 H    0.973
   156   6 C    3.954 --   155 C    1.640   157 C    1.188   178 H    0.974
   157   6 C    3.897 --   158 N    1.260   130 C    1.254   156 C    1.188
   158   7 N    3.241 --   157 C    1.260   154 C    1.221   129 Cu   0.498
   159   7 N    3.241 --   143 C    1.260   146 C    1.221   129 Cu   0.498
   160   6 C    3.988 --   161 C    1.396   165 C    1.396   136 C    1.025
                           163 C    0.108
   161   6 C    3.988 --   162 C    1.447   160 C    1.396   179 H    0.973
                           164 C    0.110
   162   6 C    3.995 --   161 C    1.447   163 C    1.438   180 H    0.973
                           165 C    0.110
   163   6 C    3.990 --   162 C    1.438   164 C    1.438   181 H    0.974
                           160 C    0.108
   164   6 C    3.995 --   165 C    1.447   163 C    1.438   182 H    0.973
                           161 C    0.110
   165   6 C    3.988 --   164 C    1.447   160 C    1.396   183 H    0.973
                           162 C    0.110
   166   1 H    1.002 --   132 C    0.974
   167   1 H    1.005 --   133 C    0.973
   168   1 H    1.005 --   138 C    0.973
   169   1 H    1.002 --   139 C    0.974
   170   1 H    1.002 --   144 C    0.974
   171   1 H    1.005 --   145 C    0.973
   172   1 H    1.005 --   149 C    0.973
   173   1 H    1.003 --   150 C    0.973
   174   1 H    1.003 --   151 C    0.974
   175   1 H    1.003 --   152 C    0.973
   176   1 H    1.005 --   153 C    0.973
   177   1 H    1.005 --   155 C    0.973
   178   1 H    1.002 --   156 C    0.974
   179   1 H    1.005 --   161 C    0.973
   180   1 H    1.003 --   162 C    0.973
   181   1 H    1.003 --   163 C    0.974
   182   1 H    1.003 --   164 C    0.973
   183   1 H    1.005 --   165 C    0.973
 ---------------------------------------------------------------------------

           -------------------------------------------------
          | TOTAL ENERGY             -318.345997461671 Eh   |
          | GRADIENT NORM               0.000732734041 Eh/α |
          | HOMO-LUMO GAP               0.000014269585 eV   |
           -------------------------------------------------

 * finished run on 2022/07/30 at 09:16:18.765
