   * xtb version 6.5.1 (b24c23e) compiled by 'conda@728c89f4b128' on 2022-07-12
          program call               : xtb Fe_PhOH_C6_3.xyz --gfn 1 --opt -T 48

   ID    Z sym.   atoms
    1   26 Fe     1, 59, 129
    2    6 C      2-6, 8-12, 14-18, 20-25, 27-31, 33-38, 60-64, 66-70, 72-76,
                  78-83, 85-89, 91-96, 117-128, 130-134, 136-140, 142-146,
                  148-153, 155-159, 161-166
    3    7 N      7, 19, 26, 39, 65, 77, 84, 97, 135, 147, 154, 167
    4    8 O      13, 32, 71, 90, 141, 160
    5    1 H      40-58, 98-116, 168-185

          :  Hamiltonian                  GFN1-xTB          :
 * total energy  :  -332.8782557 Eh     change       -0.1266284E-07 Eh
 * total energy  :  -333.2557934 Eh     change       -0.3775378E+00 Eh
 * total energy  :  -333.3854621 Eh     change       -0.1296687E+00 Eh
 * total energy  :  -333.4857784 Eh     change       -0.1003163E+00 Eh
 * total energy  :  -333.5600614 Eh     change       -0.7428307E-01 Eh
 * total energy  :  -333.6039833 Eh     change       -0.4392185E-01 Eh
 * total energy  :  -333.6312422 Eh     change       -0.2725898E-01 Eh
 * total energy  :  -333.6504637 Eh     change       -0.1922147E-01 Eh
 * total energy  :  -333.6610275 Eh     change       -0.1056381E-01 Eh
 * total energy  :  -333.6713428 Eh     change       -0.1031530E-01 Eh
 * total energy  :  -333.7222196 Eh     change       -0.1766996E-04 Eh
 * total energy  :  -333.7222409 Eh     change       -0.2131735E-04 Eh
 * total energy  :  -333.7222619 Eh     change       -0.2101580E-04 Eh
 * total energy  :  -333.7222814 Eh     change       -0.1942631E-04 Eh
 * total energy  :  -333.7222992 Eh     change       -0.1781414E-04 Eh
 * total energy  :  -333.7223141 Eh     change       -0.1488920E-04 Eh
 * total energy  :  -333.7223254 Eh     change       -0.1139007E-04 Eh
 * total energy  :  -333.7223363 Eh     change       -0.1082939E-04 Eh
 * total energy  :  -333.7223396 Eh     change       -0.3368817E-05 Eh
   *** GEOMETRY OPTIMIZATION CONVERGED AFTER 94 ITERATIONS ***

 final structure:
================
185
 xtb: 6.5.1 (b24c23e)
Fe          28.60684334210541       -0.03576364617529       -0.10645774623766
C           25.23576488315326       -0.06755259826570       -0.42100653481317
C           25.87086045869151       -1.27070027390682       -0.18984119035651
C           25.18100074508062       -2.51394239856062       -0.02391279049655
C           26.13006887453810       -3.46362108562839        0.15221557873016
C           27.40017462039603       -2.80277195827231        0.06186598030419
N           27.22545959347968       -1.45475824024353       -0.10139979471672
C           28.62470093757048       -3.46309339196929        0.06093436552059
C           28.63920860823977       -4.94165720537728        0.15298986753219
C           28.00963894287304       -5.72274248452009       -0.81681764820411
C           28.02617856675785       -7.10619220634119       -0.73206297676114
C           28.67084958438974       -7.72569008901328        0.33618523341382
O           28.70660285757831       -9.07721151514388        0.46067391980557
C           29.30290700699467       -6.95703489391391        1.31211056174394
C           29.28909691092802       -5.57719038888812        1.21411482554745
C           29.83632369870364       -2.79493662307913       -0.05662086971487
C           31.10121855979217       -3.45257775424581       -0.19810016316491
C           32.04374377888487       -2.48071215070835       -0.25440597195593
N           30.00690194989319       -1.43160115821396       -0.05311199041126
C           31.35348456451642       -1.23440544329158       -0.13950248858219
C           32.00913317059391       -0.00290895571389       -0.01896596363234
C           31.32679664617202        1.20938044123313        0.14527262812624
C           31.99049982468560        2.45989714709988        0.34184444081160
C           31.02553302756095        3.41000228515969        0.37686302196709
C           29.77391342726223        2.73644149309213        0.19400818095818
N           29.97629309042438        1.38079379006680        0.08034707318182
C           28.56382363833504        3.39226552185589        0.01781632946407
C           28.54511557916815        4.87416477678472        0.07940480549703
C           28.84540733105044        5.54004208484828        1.26965179385808
C           28.82535200320607        6.92231583098760        1.33144037799516
C           28.51053344975699        7.66085934076148        0.19220089740971
O           28.50295162133831        9.01554052773798        0.28673361437904
C           28.21528617769713        7.00975048936148       -1.00328223441315
C           28.23043699302434        5.62446262011922       -1.05368805150995
C           27.37374453021385        2.72160852850944       -0.24752792453088
C           26.11617896485234        3.37466643493909       -0.47112171508520
C           25.18939996958351        2.39982767878864       -0.62507850132438
C           25.87646893177815        1.15321865409222       -0.47098958348512
N           27.21460210438900        1.36259628141106       -0.26125842213825
H           24.15753623362385       -0.07810218835735       -0.53508194105973
H           24.10820213491013       -2.62450156743043       -0.03246632207961
H           25.99346748519598       -4.51826043523577        0.32832277289604
H           27.51990790790318       -5.24251098254240       -1.65662163686104
H           27.54178128672385       -7.70857160295694       -1.49309993761632
H           28.23796307442129       -9.51048477115162       -0.26530696848015
H           29.79801062716112       -7.45222433067342        2.13824466827181
H           29.77182733638346       -4.97859970265817        1.97847847684758
H           31.23868841128710       -4.51980390545812       -0.26036162939453
H           33.11216266612274       -2.58340147456655       -0.35582975732354
H           33.05805961106071        2.58020587207326        0.43238265848107
H           31.14265453523380        4.47522585923604        0.49183569269571
H           29.08045100835748        4.96492105661451        2.15821064781150
H           29.05059530598422        7.44214192853146        2.25443452135267
H           28.26991166175858        9.42585916417272       -0.55691751376909
H           27.97634252238068        7.58866827922185       -1.88898147285488
H           28.01329913639731        5.11866231609439       -1.98790718737896
H           25.96990992641475        4.44234841987070       -0.49358069144521
H           24.13048230194768        2.49681630892898       -0.80534275889205
Fe          60.56505046511651        0.00358402791270       -0.09382291666069
C           63.94566820858796        0.00874157240627       -0.32214480265771
C           63.28842892415938        1.21241160178058       -0.47130963476694
C           63.96200788013643        2.45693326879224       -0.68786072360454
C           63.01521532268099        3.42332214672599       -0.63870418752494
C           61.76027319250001        2.76511597627289       -0.41545786595211
N           61.94038302383269        1.41169476031954       -0.32480872479052
C           60.55104347739782        3.43262322775441       -0.24441279255472
C           60.54711851981821        4.91512831338527       -0.28153286537897
C           60.90481292303719        5.60017049939806       -1.44275699050639
C           60.90212348379958        6.98622304856494       -1.47552393392170
C           60.54523447467563        7.70403599203200       -0.33636673202514
O           60.53424379670547        9.06172482772430       -0.32313713251272
C           60.18609416006316        7.03104254934625        0.83012033856063
C           60.18469456923414        5.64768805607580        0.85123611770659
C           59.34584165923532        2.77158137111097       -0.05449730280730
C           58.08015298067426        3.43688908519603        0.04091995068846
C           57.13173813055714        2.47058159782050        0.08138374069275
N           59.16740388131338        1.40782908589472       -0.05114411281816
C           57.81930344280094        1.21945980713551        0.01336027900366
C           57.15785684497929       -0.01470206794939       -0.03494770284226
C           57.83455008059320       -1.24113353561826       -0.05386700039512
C           57.16380630878698       -2.50280739560516       -0.08188717439586
C           58.12215408797280       -3.45375941060883        0.03223080534927
C           59.37635817695200       -2.76792433919898        0.12804291654297
N           59.18388459159686       -1.40982454613191        0.04115992059738
C           60.59741244375679       -3.40759035948519        0.29391026122777
C           60.60575707199559       -4.87758726415776        0.47635204155122
C           59.94928398000498       -5.45931467382567        1.56406834971499
C           59.95451881753389       -6.83089919856961        1.74389245441630
C           60.61350443856585       -7.64603498091642        0.82513923530251
O           60.59532205458159       -8.98806136659572        1.02898100763061
C           61.26681519466597       -7.08074245061590       -0.26770348808667
C           61.26354859428540       -5.70478757850269       -0.43483393699398
C           61.81171467325911       -2.72844591095376        0.26964476975747
C           63.08919030104738       -3.36195276004862        0.42653554603215
C           64.02750985990065       -2.40821933633931        0.21804352536557
C           63.32254407530044       -1.18886183962504       -0.03696362305300
N           61.96902076059121       -1.39020237861952        0.02889705509535
H           65.02698979888191        0.00971367647443       -0.40262130627083
H           65.02546232548941        2.55978517023204       -0.83498372359055
H           63.14621080634716        4.48911215445318       -0.73197265612788
H           61.16988114057648        5.04273741175401       -2.33422377278812
H           61.17520587675589        7.51429294480218       -2.38286175424604
H           60.80050985409605        9.42479388452238       -1.17850489347629
H           59.91289195434570        7.60202771029257        1.70883538385907
H           59.91643036945795        5.12338210788916        1.76155564430365
H           57.94323899385108        4.50584818096017        0.05147195422040
H           56.06097674236162        2.57965175274783        0.14367119739010
H           56.09706185244209       -2.62902926983511       -0.17354931529281
H           58.00131999228901       -4.52472542455316        0.03834661739132
H           59.44605872040280       -4.82420463861102        2.28447639003502
H           59.45339805222762       -7.28391412362611        2.59034482295653
H           61.08061428744277       -9.45645798202301        0.33651454013294
H           61.77311785021704       -7.71940656829743       -0.98353927404837
H           61.75965520906379       -5.26749126220832       -1.29412008828238
H           63.23777292572382       -4.40192736156718        0.66787135179096
H           65.10177833500865       -2.50078295724538        0.24143863545789
C           37.20694702392748        0.05139793938311       -0.09235943977999
C           35.97658192365665        0.04363100131822       -0.07371056035379
C           34.63543912637508        0.02957439158337       -0.05430152079397
C           33.40979901761808        0.01422236164832       -0.03578924502796
C           38.54801293114512        0.05843421907717       -0.09947014459039
C           39.77407975434892        0.05468766396497       -0.11154804524963
C           53.19109075056105       -0.04968158267051       -0.03080190502549
C           51.96010205861118       -0.05715507901066       -0.02193116478982
C           50.61972469283645       -0.05988136105597       -0.01702507656877
C           49.39319204648031       -0.06067921004042       -0.01409708303823
C           54.53166142680457       -0.03829233043498       -0.03624790118161
C           55.75786442556684       -0.02465482461839       -0.03978568165011
Fe          44.58439519339014        0.00637965507675       -0.07189419821443
C           41.17360690676969        0.04786710324300       -0.10892408092064
C           41.84969079977429        1.02507684641282        0.63414613980977
C           41.18660037672748        2.01334052390810        1.42412368142804
C           42.14845577263799        2.85217828560521        1.88230913935417
C           43.39376120024051        2.37689036440007        1.35915408693591
N           43.19765489828834        1.22717888570159        0.63438721767636
C           44.60692789098965        3.04072480590896        1.50535841645888
C           44.61780939594337        4.35214348411314        2.19235178030736
C           45.37724891158241        4.54098389487468        3.35020075641523
C           45.38563181177502        5.76188637122927        4.00012116994288
C           44.63823047683891        6.82228449730008        3.48983389742462
O           44.67437441088845        8.00772318580766        4.14894757659811
C           43.88099719163522        6.65027956887493        2.33300240575245
C           43.86912517932468        5.41990020707411        1.69527322344909
C           45.81028866605782        2.52665872376206        1.03577818291950
C           47.06398131334176        3.21411603755363        1.11383197875605
C           48.01276368421581        2.34647895035826        0.68292372085055
N           45.98843993189684        1.27086215440525        0.50898256582841
C           47.33364026871967        1.13874850828709        0.33534272902387
C           47.99463431468302       -0.04523741825877       -0.02152605068282
C           47.30853865497943       -1.21023717510123       -0.39280482090953
C           47.95907473899633       -2.44046108864382       -0.71436866106927
C           46.99803830185656       -3.27663342789133       -1.17956693740413
C           45.76640795660843       -2.54682647206190       -1.14972115351115
N           45.96654185488193       -1.29849375942073       -0.61348355770395
C           44.56602924550818       -3.01564612535853       -1.67262414971585
C           44.56203424428376       -4.31752795939337       -2.37658360584378
C           43.74453190742447       -5.36094625478784       -1.93936403707647
C           43.74122269962634       -6.58104166611496       -2.59652902830227
C           44.55431744399758       -6.76793102109795       -3.71241307076960
O           44.57796281323856       -7.94385779489214       -4.38887453579702
C           45.37264235793349       -5.73272564850968       -4.16193026050053
C           45.37710694431677       -4.52192177436492       -3.49350166007667
C           43.37022338985269       -2.31418513144733       -1.56152362260542
C           42.12705923652184       -2.74636508419885       -2.12573317809057
C           41.17482684032385       -1.89411907447760       -1.67190711336445
C           41.84285224397753       -0.93643819699801       -0.84937201534695
N           43.18526056827668       -1.17033113271678       -0.82403080697885
H           40.12293844027629        2.05015928979498        1.59608956390999
H           42.03333444163136        3.71277223269445        2.52086057739547
H           45.94873176463539        3.71276985144365        3.75397253121871
H           45.96479932276776        5.90832279351233        4.90341440779880
H           44.12266439948346        8.67155346747020        3.71365566006067
H           43.30547587736857        7.47967961370703        1.93621464469586
H           43.28935637701318        5.29068582684063        0.78815416365956
H           47.19276020045659        4.22965950897965        1.45099553153084
H           49.07765291367267        2.49620298876950        0.60646260644225
H           49.01456287678043       -2.62604119554756       -0.59673192738277
H           47.10487609375063       -4.29723851650001       -1.50908278074771
H           43.12164819758876       -5.22186640214099       -1.06281825044103
H           43.11040327635284       -7.39110877469986       -2.24666920998710
H           43.97469514635830       -8.58954656783407       -3.99685937569835
H           45.99601734488640       -5.89040914287467       -5.03333983455922
H           46.00359892350826       -3.71265490166345       -3.85147989246309
H           42.00611221352257       -3.58970515939638       -2.78583276727471
H           40.11508587475687       -1.90062848765977       -1.86998598436373

          :  Hamiltonian                  GFN1-xTB          :
         :: total energy            -333.722339661692 Eh    ::
         :: gradient norm              0.000747821764 Eh/a0 ::
         :: HOMO-LUMO gap              0.052059527273 eV    ::
         :: SCC energy              -339.005862343988 Eh    ::
         :: repulsion energy           5.449503636621 Eh    ::

    * Orbital Energies and Occupations

         #    Occupation            Energy/Eh            Energy/eV
      -------------------------------------------------------------
         1        2.0000           -0.8086205             -22.0037
       ...           ...                  ...                  ...
       292        2.0000           -0.3954724             -10.7614
       293        2.0000           -0.3947376             -10.7414
       294        1.9987           -0.3887972             -10.5797
       295        1.9931           -0.3871760             -10.5356
       296        1.9924           -0.3870882             -10.5332
       297        1.9873           -0.3865930             -10.5197
       298        1.9687           -0.3857314             -10.4963
       299        1.9600           -0.3854934             -10.4898
       300        1.9557           -0.3853934             -10.4871
       301        1.9541           -0.3853587             -10.4861
       302        1.9528           -0.3853324             -10.4854
       303        1.9508           -0.3852916             -10.4843
       304        1.2647           -0.3823108             -10.4032 (HOMO)
       305        0.3734           -0.3803977             -10.3511 (LUMO)
       306        0.3332           -0.3802662             -10.3476
       307        0.3151           -0.3802027             -10.3458
       308                         -0.3439916              -9.3605
       309                         -0.3335798              -9.0772
       310                         -0.3289896              -8.9523
       311                         -0.3275029              -8.9118
       312                         -0.3261424              -8.8748
       313                         -0.3258157              -8.8659
       314                         -0.3075429              -8.3687
       315                         -0.2994136              -8.1475
       ...                                ...                  ...
       643                          1.5706523              42.7396
      -------------------------------------------------------------
                  HL-Gap            0.0019132 Eh            0.0521 eV

Wiberg/Mayer (AO) data.
largest (>0.10) Wiberg bond orders for each atom

     #   Z sym  total        # sym  WBO       # sym  WBO       # sym  WBO
 ---------------------------------------------------------------------------
     1  26 Fe   3.114 --     7 N    0.666    39 N    0.664    26 N    0.661
                            19 N    0.658
     2   6 C    3.919 --    38 C    1.364     3 C    1.361    40 H    0.970
     3   6 C    3.925 --     2 C    1.361     7 N    1.211     4 C    1.174
     4   6 C    3.959 --     5 C    1.647     3 C    1.174    41 H    0.975
     5   6 C    3.962 --     4 C    1.647     6 C    1.176    42 H    0.973
     6   6 C    3.920 --     8 C    1.313     7 N    1.224     5 C    1.176
     7   7 N    3.379 --     6 C    1.224     3 C    1.211     1 Fe   0.666
     8   6 C    3.923 --    16 C    1.330     6 C    1.313     9 C    1.031
     9   6 C    3.987 --    10 C    1.392    15 C    1.382     8 C    1.031
    10   6 C    3.987 --    11 C    1.453     9 C    1.392    43 H    0.972
                            14 C    0.105
    11   6 C    3.988 --    10 C    1.453    12 C    1.371    44 H    0.970
                            15 C    0.102
    12   6 C    3.900 --    11 C    1.371    14 C    1.363    13 O    1.041
    13   8 O    2.044 --    12 C    1.041    45 H    0.865
    14   6 C    3.990 --    15 C    1.468    12 C    1.363    46 H    0.971
                            10 C    0.105
    15   6 C    3.987 --    14 C    1.468     9 C    1.382    47 H    0.973
                            11 C    0.102
    16   6 C    3.917 --     8 C    1.330    19 N    1.202    17 C    1.181
    17   6 C    3.958 --    18 C    1.637    16 C    1.181    48 H    0.973
    18   6 C    3.960 --    17 C    1.637    20 C    1.189    49 H    0.973
    19   7 N    3.378 --    20 C    1.243    16 C    1.202     1 Fe   0.658
    20   6 C    3.904 --    21 C    1.251    19 N    1.243    18 C    1.189
    21   6 C    3.921 --    20 C    1.251    22 C    1.249   120 C    1.204
    22   6 C    3.904 --    21 C    1.249    26 N    1.247    23 C    1.188
    23   6 C    3.961 --    24 C    1.639    22 C    1.188    50 H    0.973
    24   6 C    3.957 --    23 C    1.639    25 C    1.179    51 H    0.973
    25   6 C    3.917 --    27 C    1.337    26 N    1.198    24 C    1.179
    26   7 N    3.379 --    22 C    1.247    25 C    1.198     1 Fe   0.661
    27   6 C    3.923 --    25 C    1.337    35 C    1.312    28 C    1.025
    28   6 C    3.988 --    34 C    1.394    29 C    1.385    27 C    1.025
    29   6 C    3.988 --    30 C    1.466    28 C    1.385    52 H    0.973
                            33 C    0.103
    30   6 C    3.990 --    29 C    1.466    31 C    1.365    53 H    0.971
                            34 C    0.105
    31   6 C    3.901 --    33 C    1.372    30 C    1.365    32 O    1.040
    32   8 O    2.044 --    31 C    1.040    54 H    0.865
    33   6 C    3.988 --    34 C    1.452    31 C    1.372    55 H    0.970
                            29 C    0.103
    34   6 C    3.987 --    33 C    1.452    28 C    1.394    56 H    0.973
                            30 C    0.105
    35   6 C    3.919 --    27 C    1.312    39 N    1.227    36 C    1.176
    36   6 C    3.962 --    37 C    1.649    35 C    1.176    57 H    0.972
    37   6 C    3.959 --    36 C    1.649    38 C    1.173    58 H    0.975
    38   6 C    3.925 --     2 C    1.364    39 N    1.208    37 C    1.173
    39   7 N    3.379 --    35 C    1.227    38 C    1.208     1 Fe   0.664
    40   1 H    1.001 --     2 C    0.970
    41   1 H    0.998 --     4 C    0.975
    42   1 H    1.005 --     5 C    0.973
    43   1 H    1.005 --    10 C    0.972
    44   1 H    0.999 --    11 C    0.970
    45   1 H    0.887 --    13 O    0.865
    46   1 H    0.999 --    14 C    0.971
    47   1 H    1.005 --    15 C    0.973
    48   1 H    1.004 --    17 C    0.973
    49   1 H    1.002 --    18 C    0.973
    50   1 H    1.002 --    23 C    0.973
    51   1 H    1.005 --    24 C    0.973
    52   1 H    1.004 --    29 C    0.973
    53   1 H    0.999 --    30 C    0.971
    54   1 H    0.887 --    32 O    0.865
    55   1 H    0.999 --    33 C    0.970
    56   1 H    1.004 --    34 C    0.973
    57   1 H    1.005 --    36 C    0.972
    58   1 H    0.998 --    37 C    0.975
    59  26 Fe   3.099 --    97 N    0.663    65 N    0.662    77 N    0.658
                            84 N    0.656
    60   6 C    3.917 --    61 C    1.364    96 C    1.361    98 H    0.970
    61   6 C    3.926 --    60 C    1.364    65 N    1.209    62 C    1.173
    62   6 C    3.959 --    63 C    1.648    61 C    1.173    99 H    0.975
    63   6 C    3.962 --    62 C    1.648    64 C    1.176   100 H    0.972
    64   6 C    3.919 --    66 C    1.310    65 N    1.228    63 C    1.176
    65   7 N    3.377 --    64 C    1.228    61 C    1.209    59 Fe   0.662
    66   6 C    3.920 --    74 C    1.337    64 C    1.310    67 C    1.026
    67   6 C    3.987 --    68 C    1.394    73 C    1.384    66 C    1.026
    68   6 C    3.987 --    69 C    1.452    67 C    1.394   101 H    0.973
                            72 C    0.105
    69   6 C    3.988 --    68 C    1.452    70 C    1.372   102 H    0.970
                            73 C    0.102
    70   6 C    3.901 --    69 C    1.372    72 C    1.364    71 O    1.041
    71   8 O    2.044 --    70 C    1.041   103 H    0.865
    72   6 C    3.990 --    73 C    1.467    70 C    1.364   104 H    0.971
                            68 C    0.105
    73   6 C    3.987 --    72 C    1.467    67 C    1.384   105 H    0.973
                            69 C    0.102
    74   6 C    3.917 --    66 C    1.337    77 N    1.198    75 C    1.179
    75   6 C    3.957 --    76 C    1.638    74 C    1.179   106 H    0.973
    76   6 C    3.960 --    75 C    1.638    78 C    1.188   107 H    0.973
    77   7 N    3.377 --    78 C    1.249    74 C    1.198    59 Fe   0.658
    78   6 C    3.904 --    77 N    1.249    79 C    1.247    76 C    1.188
    79   6 C    3.917 --    80 C    1.248    78 C    1.247   128 C    1.208
    80   6 C    3.904 --    79 C    1.248    84 N    1.246    81 C    1.189
    81   6 C    3.960 --    82 C    1.637    80 C    1.189   108 H    0.973
    82   6 C    3.957 --    81 C    1.637    83 C    1.181   109 H    0.973
    83   6 C    3.917 --    85 C    1.332    84 N    1.201    82 C    1.181
    84   7 N    3.376 --    80 C    1.246    83 C    1.201    59 Fe   0.656
    85   6 C    3.921 --    83 C    1.332    93 C    1.311    86 C    1.032
    86   6 C    3.987 --    92 C    1.391    87 C    1.381    85 C    1.032
    87   6 C    3.987 --    88 C    1.468    86 C    1.381   110 H    0.973
                            91 C    0.102
    88   6 C    3.990 --    87 C    1.468    89 C    1.363   111 H    0.971
                            92 C    0.104
    89   6 C    3.900 --    91 C    1.371    88 C    1.363    90 O    1.041
    90   8 O    2.044 --    89 C    1.041   112 H    0.865
    91   6 C    3.988 --    92 C    1.453    89 C    1.371   113 H    0.970
                            87 C    0.102
    92   6 C    3.986 --    91 C    1.453    86 C    1.391   114 H    0.972
                            88 C    0.104
    93   6 C    3.920 --    85 C    1.311    97 N    1.226    94 C    1.176
    94   6 C    3.962 --    95 C    1.647    93 C    1.176   115 H    0.973
    95   6 C    3.959 --    94 C    1.647    96 C    1.175   116 H    0.975
    96   6 C    3.926 --    60 C    1.361    97 N    1.211    95 C    1.175
    97   7 N    3.377 --    93 C    1.226    96 C    1.211    59 Fe   0.663
    98   1 H    1.001 --    60 C    0.970
    99   1 H    0.998 --    62 C    0.975
   100   1 H    1.005 --    63 C    0.972
   101   1 H    1.004 --    68 C    0.973
   102   1 H    0.999 --    69 C    0.970
   103   1 H    0.887 --    71 O    0.865
   104   1 H    0.999 --    72 C    0.971
   105   1 H    1.004 --    73 C    0.973
   106   1 H    1.005 --    75 C    0.973
   107   1 H    1.002 --    76 C    0.973
   108   1 H    1.002 --    81 C    0.973
   109   1 H    1.005 --    82 C    0.973
   110   1 H    1.005 --    87 C    0.973
   111   1 H    0.999 --    88 C    0.971
   112   1 H    0.886 --    90 O    0.865
   113   1 H    0.999 --    91 C    0.970
   114   1 H    1.005 --    92 C    0.972
   115   1 H    1.005 --    94 C    0.973
   116   1 H    0.998 --    95 C    0.975
   117   6 C    3.915 --   118 C    2.339   121 C    1.354   120 C    0.186
   118   6 C    3.912 --   117 C    2.339   119 C    1.353   122 C    0.186
   119   6 C    3.923 --   120 C    2.422   118 C    1.353
   120   6 C    3.876 --   119 C    2.422    21 C    1.204   117 C    0.186
   121   6 C    3.918 --   122 C    2.418   117 C    1.354
   122   6 C    3.878 --   121 C    2.418   130 C    1.210   118 C    0.186
   123   6 C    3.912 --   124 C    2.333   127 C    1.357   126 C    0.185
   124   6 C    3.914 --   123 C    2.333   125 C    1.358   128 C    0.186
   125   6 C    3.918 --   126 C    2.413   124 C    1.358
   126   6 C    3.877 --   125 C    2.413   149 C    1.214   123 C    0.185
   127   6 C    3.922 --   128 C    2.417   123 C    1.357
   128   6 C    3.876 --   127 C    2.417    79 C    1.208   124 C    0.186
   129  26 Fe   3.063 --   147 N    0.648   167 N    0.648   154 N    0.648
                           135 N    0.647
   130   6 C    3.903 --   131 C    1.246   166 C    1.245   122 C    1.210
   131   6 C    3.905 --   135 N    1.246   130 C    1.246   132 C    1.193
   132   6 C    3.959 --   133 C    1.631   131 C    1.193   168 H    0.974
   133   6 C    3.959 --   132 C    1.631   134 C    1.185   169 H    0.973
   134   6 C    3.914 --   136 C    1.319   135 N    1.206   133 C    1.185
   135   7 N    3.365 --   131 C    1.246   134 C    1.206   129 Fe   0.647
   136   6 C    3.912 --   144 C    1.321   134 C    1.319   137 C    1.034
   137   6 C    3.987 --   143 C    1.390   138 C    1.380   136 C    1.034
   138   6 C    3.986 --   139 C    1.469   137 C    1.380   170 H    0.972
                           142 C    0.101
   139   6 C    3.989 --   138 C    1.469   140 C    1.362   171 H    0.970
                           143 C    0.104
   140   6 C    3.899 --   142 C    1.370   139 C    1.362   141 O    1.043
   141   8 O    2.046 --   140 C    1.043   172 H    0.864
   142   6 C    3.988 --   143 C    1.455   140 C    1.370   173 H    0.970
                           138 C    0.101
   143   6 C    3.986 --   142 C    1.455   137 C    1.390   174 H    0.972
                           139 C    0.104
   144   6 C    3.914 --   136 C    1.321   147 N    1.205   145 C    1.184
   145   6 C    3.958 --   146 C    1.632   144 C    1.184   175 H    0.973
   146   6 C    3.959 --   145 C    1.632   148 C    1.193   176 H    0.974
   147   7 N    3.365 --   148 C    1.247   144 C    1.205   129 Fe   0.648
   148   6 C    3.904 --   147 N    1.247   149 C    1.243   146 C    1.193
   149   6 C    3.902 --   148 C    1.243   150 C    1.243   126 C    1.214
   150   6 C    3.904 --   154 N    1.247   149 C    1.243   151 C    1.193
   151   6 C    3.959 --   152 C    1.631   150 C    1.193   177 H    0.974
   152   6 C    3.958 --   151 C    1.631   153 C    1.185   178 H    0.973
   153   6 C    3.914 --   155 C    1.319   154 N    1.205   152 C    1.185
   154   7 N    3.365 --   150 C    1.247   153 C    1.205   129 Fe   0.648
   155   6 C    3.913 --   153 C    1.319   163 C    1.319   156 C    1.036
   156   6 C    3.987 --   157 C    1.389   162 C    1.379   155 C    1.036
   157   6 C    3.986 --   158 C    1.455   156 C    1.389   179 H    0.972
                           161 C    0.104
   158   6 C    3.988 --   157 C    1.455   159 C    1.369   180 H    0.970
                           162 C    0.101
   159   6 C    3.899 --   158 C    1.369   161 C    1.362   160 O    1.043
   160   8 O    2.045 --   159 C    1.043   181 H    0.864
   161   6 C    3.989 --   162 C    1.469   159 C    1.362   182 H    0.971
                           157 C    0.104
   162   6 C    3.986 --   161 C    1.469   156 C    1.379   183 H    0.972
                           158 C    0.101
   163   6 C    3.914 --   155 C    1.319   167 N    1.205   164 C    1.185
   164   6 C    3.959 --   165 C    1.631   163 C    1.185   184 H    0.973
   165   6 C    3.959 --   164 C    1.631   166 C    1.193   185 H    0.974
   166   6 C    3.905 --   167 N    1.247   130 C    1.245   165 C    1.193
   167   7 N    3.365 --   166 C    1.247   163 C    1.205   129 Fe   0.648
   168   1 H    1.001 --   132 C    0.974
   169   1 H    1.004 --   133 C    0.973
   170   1 H    1.005 --   138 C    0.972
   171   1 H    0.998 --   139 C    0.970
   172   1 H    0.886 --   141 O    0.864
   173   1 H    0.999 --   142 C    0.970
   174   1 H    1.005 --   143 C    0.972
   175   1 H    1.004 --   145 C    0.973
   176   1 H    1.001 --   146 C    0.974
   177   1 H    1.001 --   151 C    0.974
   178   1 H    1.004 --   152 C    0.973
   179   1 H    1.005 --   157 C    0.972
   180   1 H    0.999 --   158 C    0.970
   181   1 H    0.886 --   160 O    0.864
   182   1 H    0.999 --   161 C    0.971
   183   1 H    1.005 --   162 C    0.972
   184   1 H    1.005 --   164 C    0.973
   185   1 H    1.001 --   165 C    0.974
 ---------------------------------------------------------------------------

           -------------------------------------------------
          | TOTAL ENERGY             -333.722339661692 Eh   |
          | GRADIENT NORM               0.000747821764 Eh/α |
          | HOMO-LUMO GAP               0.052059527273 eV   |
           -------------------------------------------------

 * finished run on 2022/07/29 at 20:39:53.208
