   * xtb version 6.5.1 (b24c23e) compiled by 'conda@728c89f4b128' on 2022-07-12
          program call               : xtb Zn_Py_C4_3.xyz --gfn 1 --opt -T 48

   ID    Z sym.   atoms
    1   30 Zn     1, 55, 117
    2    6 C      2-6, 8-11, 13-17, 19-24, 26-29, 31-36, 56-60, 62-65, 67-71,
                  73-78, 80-83, 85-90, 109-116, 118-122, 124-127, 129-133,
                  135-140, 142-145, 147-152
    3    7 N      7, 12, 18, 25, 30, 37, 61, 66, 72, 79, 84, 91, 123, 128,
                  134, 141, 146, 153
    4    1 H      38-54, 92-108, 154-169

          :  Hamiltonian                  GFN1-xTB          :
 * total energy  :  -292.8302277 Eh     change       -0.3125137E-08 Eh
 * total energy  :  -293.1519628 Eh     change       -0.3217351E+00 Eh
 * total energy  :  -293.2725702 Eh     change       -0.1206074E+00 Eh
 * total energy  :  -293.3417740 Eh     change       -0.6920377E-01 Eh
 * total energy  :  -293.4035420 Eh     change       -0.6176807E-01 Eh
 * total energy  :  -293.4645008 Eh     change       -0.6095875E-01 Eh
 * total energy  :  -293.4968453 Eh     change       -0.3234453E-01 Eh
 * total energy  :  -293.5178842 Eh     change       -0.2103895E-01 Eh
 * total energy  :  -293.5278008 Eh     change       -0.9916527E-02 Eh
 * total energy  :  -293.5455237 Eh     change       -0.1772291E-01 Eh
 * total energy  :  -293.6587748 Eh     change       -0.1016884E-03 Eh
 * total energy  :  -293.6588263 Eh     change       -0.5146888E-04 Eh
 * total energy  :  -293.6588560 Eh     change       -0.2977225E-04 Eh
 * total energy  :  -293.6588711 Eh     change       -0.1503662E-04 Eh
 * total energy  :  -293.6588846 Eh     change       -0.1356239E-04 Eh
 * total energy  :  -293.6588945 Eh     change       -0.9888560E-05 Eh
 * total energy  :  -293.6589086 Eh     change       -0.1409737E-04 Eh
 * total energy  :  -293.6589142 Eh     change       -0.5579041E-05 Eh
 * total energy  :  -293.6589178 Eh     change       -0.3631282E-05 Eh
   *** GEOMETRY OPTIMIZATION CONVERGED AFTER 55 ITERATIONS ***

 final structure:
================
169
 xtb: 6.5.1 (b24c23e)
Zn          24.69549320270640       -0.02458126639052       -0.01454093429745
C           21.28442687990613       -0.05642782605599       -0.04628675654426
C           21.91380456587794       -1.28803405203306        0.08856714711839
C           21.23926707592737       -2.54660455742213        0.24384074510418
C           22.19774027144628       -3.49843622050195        0.36608275746649
C           23.47105602851069       -2.83313153417264        0.27869763764505
N           23.26321760370712       -1.49488418080698        0.11578843650399
C           24.72173757586711       -3.45364444612420        0.38430694224850
C           24.73181974235855       -4.92754388769111        0.54952066763409
C           25.25745850440365       -5.52749089684871        1.69334236415674
C           25.24158072688411       -6.90921061139992        1.80042475871628
N           24.74907919481761       -7.70389295924656        0.85541376517154
C           24.24781695390759       -7.14038942639434       -0.23925507520043
C           24.21457365684687       -5.76890010479394       -0.43525424677048
C           25.96170173398409       -2.80659236429063        0.34476966072037
C           27.24093420371516       -3.45766916539566        0.41363545323869
C           28.18805821527326       -2.49070234548734        0.31219632893600
N           26.15645716201934       -1.45972411259492        0.19399183039254
C           27.49896428131363       -1.24136552190736        0.17194734405590
C           28.13066231147232        0.00715813761774        0.00670718284940
C           27.47796009041673        1.24473503408096       -0.15813292041953
C           28.14552981050282        2.49973199476467       -0.34417119588624
C           27.18218627004324        3.44970361425932       -0.45349804841071
C           25.91468835344341        2.78403532425184       -0.32864922500203
N           26.13212815054849        1.44290531816542       -0.16038909280675
C           24.66380743161028        3.40771048951522       -0.39702707301205
C           24.65139334739423        4.88275591779845       -0.54813888307476
C           24.08174673533054        5.49476192849094       -1.66428603429121
C           24.09561948702114        6.87739158724861       -1.75860585503855
N           24.62652934602248        7.66225851866739       -0.82637679702763
C           25.17005808514174        7.08740290010702        0.24187369943730
C           25.20839950400360        5.71408190304616        0.42336455794943
C           23.42321321080174        2.76162554992359       -0.33269495772280
C           22.13889482438519        3.41073520704423       -0.36329135569702
C           21.19684714607083        2.43942607152901       -0.27010946502086
C           21.89271032366395        1.18684725262771       -0.17054673389507
N           23.23830385503859        1.41611431871454       -0.20574580875703
H           20.19881898540307       -0.06540333040777       -0.04318658246356
H           20.16805249778485       -2.67274413259323        0.26286313763986
H           22.05975170192182       -4.55736794730059        0.51526445224241
H           25.65883342246546       -4.91930103335559        2.49538254069832
H           25.64158465875229       -7.39863295187763        2.68377649981319
H           23.85526818038648       -7.81541515032492       -0.99439013326773
H           23.80658007670392       -5.35472870637121       -1.34972549449380
H           27.39347569733104       -4.52021113935190        0.51355235958597
H           29.26019758624377       -2.60623694356010        0.32334312832371
H           29.21523080702152        2.62887516558805       -0.38927527809355
H           27.31590500163530        4.50678440300302       -0.61772042803731
H           23.64852174447249        4.89500042089730       -2.45595011231303
H           23.66186845832752        7.37592845162987       -2.62065051101762
H           25.59359907502803        7.75445757254181        0.98715260360025
H           25.65142353785676        5.29062945696017        1.31698989526160
H           21.98276543857526        4.47522509678659       -0.43459465143825
H           20.12378511410594        2.55002785001165       -0.26073985865810
Zn          51.66695068401120        0.03903104734490       -0.01210945381813
C           55.07828905519671        0.05225964954253       -0.06823972226192
C           54.45095843812206        1.26992657524623       -0.30251202512506
C           55.12726185795255        2.51691811235401       -0.52780357377439
C           54.17008162098035        3.46302125570852       -0.69610833042543
C           52.89591558910679        2.80289334823560       -0.58527630329868
N           53.10187159441733        1.47706021228858       -0.33961604072852
C           51.64556524413020        3.42536580012349       -0.68233463046246
C           51.63588364823340        4.88138717855960       -0.96425520372077
C           51.09774380514518        5.79217041653866       -0.05555129736445
C           51.11493407837371        7.14366482175969       -0.36192814490985
N           51.61994658996777        7.62378289901437       -1.49403934754271
C           52.13260339161265        6.76231547964191       -2.36707423263589
C           52.16579214369764        5.39427900103610       -2.14798005335380
C           50.40477060533824        2.79520797601394       -0.53725888097520
C           49.12670920249055        3.43419029262409       -0.68920909808917
C           48.17811825296148        2.48360112058517       -0.49163786545859
N           50.20809940064888        1.46843078368913       -0.26195004315192
C           48.86532301677697        1.25427956966379       -0.22390414097944
C           48.23141360798751        0.02245879947097        0.03381799705689
C           48.88241810367509       -1.20232273135867        0.28168650940352
C           48.21286104652033       -2.44932565580912        0.50946001968452
C           49.17502300800231       -3.39089467028635        0.68311229931726
C           50.44392987859406       -2.72555730857399        0.57152181732491
N           50.22811290564706       -1.39704712757742        0.32052695231292
C           51.69419766523350       -3.34632111523430        0.66981176868657
C           51.70666149535688       -4.80054632217228        0.95983992451392
C           52.25284113696005       -5.71417159027385        0.05873339975454
C           52.23922138046262       -7.06412427170390        0.37183317411507
N           51.73006640126251       -7.54041532765028        1.50358954187878
C           51.20966649800588       -6.67639070298298        2.36938677930849
C           51.17314870823993       -5.30952802588825        2.14352820170351
C           52.93513387981394       -2.71599201277231        0.51659033251457
C           54.21881536063288       -3.34991024618714        0.66492344093521
C           55.16217366059743       -2.39824520270686        0.45517437724264
C           54.46790096807782       -1.17015207272769        0.18538403466890
N           53.12186193187044       -1.39467397672018        0.23391549180741
H           56.16390736779955        0.05871620406463       -0.07322362314615
H           56.19864166078995        2.64191648175935       -0.54529269115554
H           54.30957272532540        4.51822053904495       -0.86849634824326
H           50.68563019727019        5.44772977344290        0.88566508483466
H           50.70554254614924        7.87192714076780        0.33230179345207
H           52.53497520054526        7.18426044377764       -3.28363387063970
H           52.58344181079612        4.72868978502464       -2.89419160500905
H           48.97620981123403        4.47435045487259       -0.92935639553078
H           47.10621299009713        2.59628755765984       -0.52722235851249
H           47.14265706872412       -2.58124331861670        0.52514924412171
H           49.03916718542088       -4.44602400297985        0.85771173679795
H           52.66770362553517       -5.37308770685952       -0.88240559922471
H           52.65456783970662       -7.79440409136676       -0.31665248446639
H           50.80396739718972       -7.09517998109022        3.28580167928673
H           50.74962866426443       -4.64186178302442        2.88444442776790
H           54.37363537122819       -4.38808519082532        0.91155854323910
H           56.23524442374958       -2.50498999858286        0.48531439564377
C           30.75993845843331        0.02228233366985       -0.01579466345673
C           29.53811343138587        0.01698889503232       -0.00397769547638
C           32.11074498874597        0.02358200856285       -0.02646562910061
C           33.33267566046823        0.02187153499965       -0.03614465355912
C           44.25175570372759        0.00562411827429        0.01241924313788
C           43.02970875898494        0.00468654722214       -0.00029119922228
C           45.60230491705597        0.00868987264655        0.02211784754177
C           46.82427913780141        0.01362840240099        0.03165639844529
Zn          38.18141782299084        0.00236353356469       -0.03185784285417
C           34.73968450992881        0.01530416593714       -0.03852967496944
C           35.37862643546850       -0.89902145382988        0.82248427758605
C           34.69671954528999       -1.79063490603939        1.71358514870148
C           35.64931500715556       -2.49736209304705        2.37403180966737
C           36.92331169455286       -2.04985020090713        1.88439039525804
N           36.72199193914658       -1.07198060672365        0.94765671944852
C           38.16755504730504       -2.52024847261774        2.31808869525472
C           38.16289715162213       -3.59586171248614        3.33957727550574
C           37.60517549684838       -4.84654171669605        3.07707544744527
C           37.62659316722146       -5.81735263975725        4.06603389554226
N           38.15322657865019       -5.61453170200040        5.26949069422114
C           38.68511814929829       -4.42427182359667        5.52886137705435
C           38.71611263591969       -3.39310575324872        4.60354231103950
C           39.41665302780345       -2.06523402819864        1.88173884657822
C           40.68504821669178       -2.59448534118855        2.29897266838880
C           41.64562433313799       -1.89158291870557        1.64588662148673
N           39.62904147170870       -1.06324567220251        0.97353525073401
C           40.97414218500884       -0.93325037181524        0.81855390595091
C           41.62310639473368        0.00204804147964       -0.01204937759837
C           40.98377641927926        0.93371456820553       -0.85408857594743
C           41.66505820280693        1.88645680561906       -1.67989972151872
C           40.71238577023230        2.58425233322751       -2.34980200895778
C           39.43891338391274        2.05888947136107       -1.94301485492094
N           39.64056289064650        1.06287078673910       -1.02581871615703
C           38.19495979861716        2.51492037091101       -2.39323603189705
C           38.20300919156728        3.58408165165448       -3.42141293112488
C           38.76925197566658        3.37300605824779       -4.67826340832293
C           38.75054729404714        4.39901219469171       -5.60966911718595
N           38.21836619284291        5.59181347093728       -5.36292883738590
C           37.67918064487946        5.80255991806999       -4.16641651373579
C           37.64532569920018        4.83754991366519       -3.17216835595902
C           36.94539248234877        2.05367665745803       -1.96459367642363
C           35.67643792728727        2.50676021934653       -2.46246424159097
C           34.71613929040040        1.81228811709984       -1.80011738993277
C           35.38815837730812        0.92116796763827       -0.90110069342850
N           36.73328020807835        1.08309729334837       -1.02270833538859
H           33.62569538929419       -1.85656294141867        1.82066795233452
H           35.50352917441109       -3.24771049712523        3.13423915051194
H           37.17462980040992       -5.06115529328120        2.10618448524419
H           37.20241011653100       -6.80040475967533        3.88331424604841
H           39.10519214966056       -4.28792108598080        6.52117349599438
H           39.15048468641172       -2.43496486010131        4.86318323926825
H           40.82157913170590       -3.40787528720825        2.99321814655527
H           42.71562015537724       -2.00997419903800        1.70929142892369
H           42.73577025043921        2.00402097896372       -1.73180737749667
H           40.85744091490373        3.39200655451921       -3.04888870496549
H           39.20432025439246        2.41254733248455       -4.92798708735024
H           39.18125802541680        4.25623336060120       -6.59650359946524
H           37.25501572628536        6.78745196589570       -3.99387124541379
H           37.20532825730118        5.05884728987509       -2.20703783665993
H           35.53889883133374        3.25240213048781       -3.22881577015939
H           33.64597393154691        1.88518751556409       -1.91141119744286

          :  Hamiltonian                  GFN1-xTB          :
         :: total energy            -293.658917832362 Eh    ::
         :: gradient norm              0.000463447851 Eh/a0 ::
         :: HOMO-LUMO gap              0.985916127673 eV    ::
         :: SCC energy              -298.379194928255 Eh    ::
         :: repulsion energy           4.875022018208 Eh    ::

    * Orbital Energies and Occupations

         #    Occupation            Energy/Eh            Energy/eV
      -------------------------------------------------------------
         1        2.0000           -0.7657841             -20.8380
       ...           ...                  ...                  ...
       257        2.0000           -0.4200385             -11.4298
       258        2.0000           -0.4188652             -11.3979
       259        2.0000           -0.4186400             -11.3918
       260        2.0000           -0.4185178             -11.3885
       261        2.0000           -0.4184820             -11.3875
       262        2.0000           -0.4184611             -11.3869
       263        2.0000           -0.4183828             -11.3848
       264        2.0000           -0.3991608             -10.8617
       265        2.0000           -0.3982774             -10.8377
       266        2.0000           -0.3982366             -10.8366
       267        2.0000           -0.3937564             -10.7147
       268        2.0000           -0.3874426             -10.5429
       269        2.0000           -0.3799490             -10.3389 (HOMO)
       270                         -0.3437173              -9.3530 (LUMO)
       271                         -0.3346449              -9.1062
       272                         -0.3325915              -9.0503
       273                         -0.3320257              -9.0349
       274                         -0.3319752              -9.0335
       275                         -0.3278322              -8.9208
       276                         -0.3057473              -8.3198
       277                         -0.2990766              -8.1383
       278                         -0.2969597              -8.0807
       279                         -0.2800154              -7.6196
       280                         -0.2795777              -7.6077
       ...                                ...                  ...
       576                          1.5137116              41.1902
      -------------------------------------------------------------
                  HL-Gap            0.0362318 Eh            0.9859 eV

Wiberg/Mayer (AO) data.
largest (>0.10) Wiberg bond orders for each atom

     #   Z sym  total        # sym  WBO       # sym  WBO       # sym  WBO
 ---------------------------------------------------------------------------
     1  30 Zn   1.996 --     7 N    0.460    37 N    0.459    18 N    0.456
                            25 N    0.456
     2   6 C    3.929 --     3 C    1.358    36 C    1.358    38 H    0.971
     3   6 C    3.921 --     2 C    1.358     7 N    1.233     4 C    1.170
     4   6 C    3.960 --     5 C    1.660     3 C    1.170    39 H    0.976
     5   6 C    3.963 --     4 C    1.660     6 C    1.171    40 H    0.973
     6   6 C    3.919 --     8 C    1.314     7 N    1.245     5 C    1.171
     7   7 N    3.294 --     6 C    1.245     3 C    1.233     1 Zn   0.460
     8   6 C    3.934 --    15 C    1.322     6 C    1.314     9 C    1.028
     9   6 C    3.985 --    10 C    1.393    14 C    1.392     8 C    1.028
                            12 N    0.107
    10   6 C    3.987 --    11 C    1.442     9 C    1.393    41 H    0.973
                            13 C    0.108
    11   6 C    3.972 --    10 C    1.442    12 N    1.415    42 H    0.972
                            14 C    0.108
    12   7 N    3.029 --    11 C    1.415    13 C    1.415     9 C    0.107
    13   6 C    3.972 --    14 C    1.443    12 N    1.415    43 H    0.972
                            10 C    0.108
    14   6 C    3.987 --    13 C    1.443     9 C    1.392    44 H    0.973
                            11 C    0.108
    15   6 C    3.914 --     8 C    1.322    18 N    1.227    16 C    1.178
    16   6 C    3.960 --    17 C    1.648    15 C    1.178    45 H    0.973
    17   6 C    3.962 --    16 C    1.648    19 C    1.185    46 H    0.974
    18   7 N    3.297 --    19 C    1.261    15 C    1.227     1 Zn   0.456
    19   6 C    3.903 --    18 N    1.261    20 C    1.257    17 C    1.185
    20   6 C    3.939 --    21 C    1.258    19 C    1.257   110 C    1.184
    21   6 C    3.903 --    25 N    1.261    20 C    1.258    22 C    1.185
    22   6 C    3.962 --    23 C    1.647    21 C    1.185    47 H    0.974
    23   6 C    3.960 --    22 C    1.647    24 C    1.178    48 H    0.973
    24   6 C    3.914 --    26 C    1.322    25 N    1.227    23 C    1.178
    25   7 N    3.297 --    21 C    1.261    24 C    1.227     1 Zn   0.456
    26   6 C    3.934 --    24 C    1.322    33 C    1.314    27 C    1.030
    27   6 C    3.985 --    28 C    1.392    32 C    1.392    26 C    1.030
                            30 N    0.107
    28   6 C    3.987 --    29 C    1.443    27 C    1.392    49 H    0.973
                            31 C    0.108
    29   6 C    3.972 --    28 C    1.443    30 N    1.415    50 H    0.972
                            32 C    0.108
    30   7 N    3.029 --    29 C    1.415    31 C    1.415    27 C    0.107
    31   6 C    3.972 --    32 C    1.443    30 N    1.415    51 H    0.972
                            28 C    0.108
    32   6 C    3.987 --    31 C    1.443    27 C    1.392    52 H    0.973
                            29 C    0.108
    33   6 C    3.919 --    26 C    1.314    37 N    1.245    34 C    1.171
    34   6 C    3.963 --    35 C    1.660    33 C    1.171    53 H    0.973
    35   6 C    3.960 --    34 C    1.660    36 C    1.170    54 H    0.976
    36   6 C    3.921 --     2 C    1.358    37 N    1.233    35 C    1.170
    37   7 N    3.294 --    33 C    1.245    36 C    1.233     1 Zn   0.459
    38   1 H    1.001 --     2 C    0.971
    39   1 H    0.998 --     4 C    0.976
    40   1 H    1.005 --     5 C    0.973
    41   1 H    1.004 --    10 C    0.973
    42   1 H    1.013 --    11 C    0.972
    43   1 H    1.013 --    13 C    0.972
    44   1 H    1.004 --    14 C    0.973
    45   1 H    1.004 --    16 C    0.973
    46   1 H    1.002 --    17 C    0.974
    47   1 H    1.002 --    22 C    0.974
    48   1 H    1.004 --    23 C    0.973
    49   1 H    1.004 --    28 C    0.973
    50   1 H    1.013 --    29 C    0.972
    51   1 H    1.013 --    31 C    0.972
    52   1 H    1.004 --    32 C    0.973
    53   1 H    1.005 --    34 C    0.973
    54   1 H    0.998 --    35 C    0.976
    55  30 Zn   1.996 --    91 N    0.459    61 N    0.459    72 N    0.456
                            79 N    0.455
    56   6 C    3.929 --    90 C    1.358    57 C    1.358    92 H    0.971
    57   6 C    3.921 --    56 C    1.358    61 N    1.233    58 C    1.170
    58   6 C    3.960 --    59 C    1.660    57 C    1.170    93 H    0.976
    59   6 C    3.963 --    58 C    1.660    60 C    1.171    94 H    0.973
    60   6 C    3.919 --    62 C    1.314    61 N    1.245    59 C    1.171
    61   7 N    3.294 --    60 C    1.245    57 C    1.233    55 Zn   0.459
    62   6 C    3.933 --    69 C    1.322    60 C    1.314    63 C    1.029
    63   6 C    3.985 --    64 C    1.392    68 C    1.392    62 C    1.029
                            66 N    0.107
    64   6 C    3.987 --    65 C    1.443    63 C    1.392    95 H    0.973
                            67 C    0.108
    65   6 C    3.972 --    64 C    1.443    66 N    1.415    96 H    0.972
                            68 C    0.108
    66   7 N    3.029 --    67 C    1.415    65 C    1.415    63 C    0.107
    67   6 C    3.972 --    68 C    1.443    66 N    1.415    97 H    0.972
                            64 C    0.108
    68   6 C    3.987 --    67 C    1.443    63 C    1.392    98 H    0.973
                            65 C    0.108
    69   6 C    3.914 --    62 C    1.322    72 N    1.226    70 C    1.178
    70   6 C    3.960 --    71 C    1.647    69 C    1.178    99 H    0.973
    71   6 C    3.962 --    70 C    1.647    73 C    1.185   100 H    0.974
    72   7 N    3.297 --    73 C    1.261    69 C    1.226    55 Zn   0.456
    73   6 C    3.903 --    72 N    1.261    74 C    1.256    71 C    1.185
    74   6 C    3.939 --    75 C    1.257    73 C    1.256   116 C    1.185
    75   6 C    3.903 --    79 N    1.261    74 C    1.257    76 C    1.185
    76   6 C    3.962 --    77 C    1.647    75 C    1.185   101 H    0.974
    77   6 C    3.960 --    76 C    1.647    78 C    1.178   102 H    0.973
    78   6 C    3.914 --    80 C    1.322    79 N    1.227    77 C    1.178
    79   7 N    3.297 --    75 C    1.261    78 C    1.227    55 Zn   0.455
    80   6 C    3.934 --    78 C    1.322    87 C    1.313    81 C    1.029
    81   6 C    3.985 --    86 C    1.392    82 C    1.392    80 C    1.029
                            84 N    0.107
    82   6 C    3.987 --    83 C    1.443    81 C    1.392   103 H    0.973
                            85 C    0.108
    83   6 C    3.972 --    82 C    1.443    84 N    1.415   104 H    0.972
                            86 C    0.108
    84   7 N    3.029 --    85 C    1.415    83 C    1.415    81 C    0.107
    85   6 C    3.972 --    86 C    1.443    84 N    1.415   105 H    0.972
                            82 C    0.108
    86   6 C    3.987 --    85 C    1.443    81 C    1.392   106 H    0.973
                            83 C    0.108
    87   6 C    3.919 --    80 C    1.313    91 N    1.245    88 C    1.171
    88   6 C    3.963 --    89 C    1.660    87 C    1.171   107 H    0.973
    89   6 C    3.960 --    88 C    1.660    90 C    1.170   108 H    0.976
    90   6 C    3.921 --    56 C    1.358    91 N    1.233    89 C    1.170
    91   7 N    3.294 --    87 C    1.245    90 C    1.233    55 Zn   0.459
    92   1 H    1.001 --    56 C    0.971
    93   1 H    0.998 --    58 C    0.976
    94   1 H    1.005 --    59 C    0.973
    95   1 H    1.004 --    64 C    0.973
    96   1 H    1.013 --    65 C    0.972
    97   1 H    1.013 --    67 C    0.972
    98   1 H    1.004 --    68 C    0.973
    99   1 H    1.004 --    70 C    0.973
   100   1 H    1.002 --    71 C    0.974
   101   1 H    1.002 --    76 C    0.974
   102   1 H    1.005 --    77 C    0.973
   103   1 H    1.004 --    82 C    0.973
   104   1 H    1.013 --    83 C    0.972
   105   1 H    1.013 --    85 C    0.972
   106   1 H    1.004 --    86 C    0.973
   107   1 H    1.005 --    88 C    0.973
   108   1 H    0.998 --    89 C    0.976
   109   6 C    3.934 --   110 C    2.480   111 C    1.303
   110   6 C    3.922 --   109 C    2.480    20 C    1.184   112 C    0.198
   111   6 C    3.931 --   112 C    2.479   109 C    1.303
   112   6 C    3.923 --   111 C    2.479   118 C    1.186   110 C    0.198
   113   6 C    3.931 --   114 C    2.477   115 C    1.305
   114   6 C    3.924 --   113 C    2.477   136 C    1.187   116 C    0.198
   115   6 C    3.934 --   116 C    2.479   113 C    1.305
   116   6 C    3.922 --   115 C    2.479    74 C    1.185   114 C    0.198
   117  30 Zn   1.993 --   141 N    0.456   123 N    0.456   134 N    0.456
                           153 N    0.456
   118   6 C    3.928 --   152 C    1.256   119 C    1.255   112 C    1.186
   119   6 C    3.904 --   123 N    1.261   118 C    1.255   120 C    1.187
   120   6 C    3.960 --   121 C    1.645   119 C    1.187   154 H    0.974
   121   6 C    3.961 --   120 C    1.645   122 C    1.180   155 H    0.973
   122   6 C    3.912 --   124 C    1.319   123 N    1.226   121 C    1.180
   123   7 N    3.292 --   119 C    1.261   122 C    1.226   117 Zn   0.456
   124   6 C    3.929 --   122 C    1.319   131 C    1.319   125 C    1.028
   125   6 C    3.985 --   126 C    1.393   130 C    1.392   124 C    1.028
                           128 N    0.107
   126   6 C    3.987 --   127 C    1.442   125 C    1.393   156 H    0.973
                           129 C    0.108
   127   6 C    3.972 --   126 C    1.442   128 N    1.415   157 H    0.972
                           130 C    0.108
   128   7 N    3.029 --   127 C    1.415   129 C    1.415   125 C    0.107
   129   6 C    3.972 --   130 C    1.443   128 N    1.415   158 H    0.972
                           126 C    0.108
   130   6 C    3.987 --   129 C    1.443   125 C    1.392   159 H    0.973
                           127 C    0.108
   131   6 C    3.912 --   124 C    1.319   134 N    1.226   132 C    1.181
   132   6 C    3.960 --   133 C    1.644   131 C    1.181   160 H    0.973
   133   6 C    3.960 --   132 C    1.644   135 C    1.187   161 H    0.974
   134   7 N    3.292 --   135 C    1.261   131 C    1.226   117 Zn   0.456
   135   6 C    3.903 --   134 N    1.261   136 C    1.255   133 C    1.187
   136   6 C    3.928 --   137 C    1.255   135 C    1.255   114 C    1.187
   137   6 C    3.903 --   141 N    1.261   136 C    1.255   138 C    1.187
   138   6 C    3.960 --   139 C    1.644   137 C    1.187   162 H    0.974
   139   6 C    3.960 --   138 C    1.644   140 C    1.181   163 H    0.973
   140   6 C    3.912 --   142 C    1.319   141 N    1.226   139 C    1.181
   141   7 N    3.292 --   137 C    1.261   140 C    1.226   117 Zn   0.456
   142   6 C    3.929 --   149 C    1.319   140 C    1.319   143 C    1.028
   143   6 C    3.985 --   148 C    1.393   144 C    1.392   142 C    1.028
                           146 N    0.107
   144   6 C    3.987 --   145 C    1.443   143 C    1.392   164 H    0.973
                           147 C    0.108
   145   6 C    3.972 --   144 C    1.443   146 N    1.415   165 H    0.972
                           148 C    0.108
   146   7 N    3.029 --   147 C    1.415   145 C    1.415   143 C    0.107
   147   6 C    3.972 --   148 C    1.442   146 N    1.415   166 H    0.972
                           144 C    0.108
   148   6 C    3.987 --   147 C    1.442   143 C    1.393   167 H    0.973
                           145 C    0.108
   149   6 C    3.912 --   142 C    1.319   153 N    1.226   150 C    1.180
   150   6 C    3.961 --   151 C    1.645   149 C    1.180   168 H    0.973
   151   6 C    3.960 --   150 C    1.645   152 C    1.187   169 H    0.974
   152   6 C    3.904 --   153 N    1.261   118 C    1.256   151 C    1.187
   153   7 N    3.292 --   152 C    1.261   149 C    1.226   117 Zn   0.456
   154   1 H    1.002 --   120 C    0.974
   155   1 H    1.004 --   121 C    0.973
   156   1 H    1.004 --   126 C    0.973
   157   1 H    1.013 --   127 C    0.972
   158   1 H    1.013 --   129 C    0.972
   159   1 H    1.004 --   130 C    0.973
   160   1 H    1.004 --   132 C    0.973
   161   1 H    1.002 --   133 C    0.974
   162   1 H    1.002 --   138 C    0.974
   163   1 H    1.004 --   139 C    0.973
   164   1 H    1.004 --   144 C    0.973
   165   1 H    1.013 --   145 C    0.972
   166   1 H    1.013 --   147 C    0.972
   167   1 H    1.004 --   148 C    0.973
   168   1 H    1.005 --   150 C    0.973
   169   1 H    1.002 --   151 C    0.974
 ---------------------------------------------------------------------------

           -------------------------------------------------
          | TOTAL ENERGY             -293.658917832362 Eh   |
          | GRADIENT NORM               0.000463447851 Eh/α |
          | HOMO-LUMO GAP               0.985916127673 eV   |
           -------------------------------------------------

 * finished run on 2022/07/30 at 07:17:00.659
