   * xtb version 6.5.1 (b24c23e) compiled by 'conda@728c89f4b128' on 2022-07-12
          program call               : xtb Cu_m-CP_C2_3.xyz --gfn 1 --opt -T 48

   ID    Z sym.   atoms
    1   29 Cu     1, 63, 129
    2    6 C      2-6, 8-12, 15-20, 22-27, 29-35, 38-42, 64-68, 70-74, 77-82,
                  84-89, 91-97, 100-104, 125-128, 130-134, 136-140, 143-148,
                  150-155, 157-163, 166-170
    3    7 N      7, 21, 28, 43, 69, 83, 90, 105, 135, 149, 156, 171
    4    8 O      13, 14, 36, 37, 75, 76, 98, 99, 141, 142, 164, 165
    5    1 H      44-62, 106-124, 172-189
########################################################################
[WARNING] Please study the warnings concerning your input carefully
-1- prog_main_parseArguments: Unknown option '-T' provided
########################################################################

          :  Hamiltonian                  GFN1-xTB          :
 * total energy  :  -361.4015217 Eh     change       -0.8542713E-08 Eh
 * total energy  :  -361.8040858 Eh     change       -0.4025641E+00 Eh
 * total energy  :  -361.9917907 Eh     change       -0.1877050E+00 Eh
 * total energy  :  -362.1095714 Eh     change       -0.1177807E+00 Eh
 * total energy  :  -362.1816241 Eh     change       -0.7205268E-01 Eh
 * total energy  :  -362.2411991 Eh     change       -0.5957502E-01 Eh
 * total energy  :  -362.2891981 Eh     change       -0.4799899E-01 Eh
 * total energy  :  -362.3209039 Eh     change       -0.3170583E-01 Eh
 * total energy  :  -362.3445325 Eh     change       -0.2362857E-01 Eh
 * total energy  :  -362.3649936 Eh     change       -0.2046110E-01 Eh
 * total energy  :  -362.5206805 Eh     change       -0.1172112E-04 Eh
 * total energy  :  -362.5206939 Eh     change       -0.1340441E-04 Eh
 * total energy  :  -362.5207117 Eh     change       -0.1779651E-04 Eh
 * total energy  :  -362.5207343 Eh     change       -0.2250689E-04 Eh
 * total energy  :  -362.5207550 Eh     change       -0.2072718E-04 Eh
 * total energy  :  -362.5207706 Eh     change       -0.1561898E-04 Eh
 * total energy  :  -362.5207838 Eh     change       -0.1321380E-04 Eh
 * total energy  :  -362.5207967 Eh     change       -0.1284697E-04 Eh
 * total energy  :  -362.5208008 Eh     change       -0.4182280E-05 Eh
   *** GEOMETRY OPTIMIZATION CONVERGED AFTER 122 ITERATIONS ***

 final structure:
================
189
 xtb: 6.5.1 (b24c23e)
Cu          34.20129241467465        0.19017729855274       -0.55209183894679
C           30.79924156928566        0.07918729313145       -0.36935831215293
C           31.38856912694694        1.33181059491004       -0.29213845338663
C           30.66776967502358        2.56722827118061       -0.17365121862040
C           31.58975836683825        3.56037335410153       -0.13618723906266
C           32.88385506213935        2.93887227751554       -0.22093332543076
N           32.73032207316682        1.58609278037002       -0.32062759850903
C           34.10284065419922        3.61940484509080       -0.23019712690014
C           34.06092460446116        5.09718955606622       -0.08902146473056
C           33.55974842212024        5.68053080885746        1.07095079962591
C           33.52144099078185        7.06787396199227        1.20545430462186
C           32.97788290883555        7.62936925224305        2.46770027073995
O           32.97244419135896        8.96994381044158        2.49943893736777
O           32.57419782716556        6.96627966994422        3.38858844477761
C           33.98455829276202        7.88333297017420        0.17298466008230
C           34.48227775246614        7.30469011873922       -0.98395787905917
C           34.52247112285079        5.92369530020456       -1.11595646882411
C           35.35774075554286        3.02094894528269       -0.35791752198046
C           36.60865602458539        3.72373120390198       -0.32210832414890
C           37.58925868691797        2.79613720017979       -0.46065263280750
N           35.59708647803630        1.68069445606049       -0.50723673055465
C           36.94814084383187        1.52049842259067       -0.56975284966541
C           37.62970720201949        0.30107021170322       -0.72294794658670
C           37.01574200869900       -0.95965620981680       -0.81867009256170
C           37.72328495178436       -2.19172496844836       -0.99755811939983
C           36.79521646060466       -3.18022935198523       -1.04538521250295
C           35.51155557330521       -2.55942808115773       -0.88133304560243
N           35.67794891775950       -1.20601004989253       -0.75091490558797
C           34.29199218843723       -3.23872899283726       -0.87942607677798
C           34.33230245532177       -4.71729479506583       -1.01584868809876
C           34.94946791400834       -5.50282034537096       -0.04010437452415
C           34.98734217792711       -6.88474676480588       -0.16486488151024
C           34.41325298915031       -7.49870865686338       -1.26536860646962
C           33.79419334008107       -6.72426250280230       -2.24776934967652
C           33.19208568148332       -7.41913568795833       -3.41282824205045
O           32.62118676205191       -6.58847601113086       -4.29791332151308
O           33.20194392475301       -8.61305722125275       -3.57194550158727
C           33.75310016880527       -5.33710279216270       -2.12066493741256
C           33.03714714067908       -2.63906282602877       -0.75647160485663
C           31.78485365777891       -3.34377668407568       -0.70306938134380
C           30.80960618434097       -2.41270970000783       -0.56063532478725
C           31.45696744608324       -1.13269611848182       -0.51602064411294
N           32.80736633149660       -1.29877267957142       -0.63604946329251
H           29.71643584472627        0.04362582402846       -0.30888204262447
H           29.59306614858097        2.64957571208135       -0.13403437484388
H           31.41641668496726        4.62221841676429       -0.06737457031630
H           33.20679533465133        5.06180941348007        1.88877780705110
H           32.60568883556203        9.25654868551486        3.35163133430086
H           33.95319759428261        8.96095125580411        0.27863741229118
H           34.84098757057139        7.93259782507033       -1.79171596094888
H           34.90204900597134        5.47777848890044       -2.02853725211253
H           36.71995323032608        4.78838944333300       -0.19505556726505
H           38.65496396678721        2.95503891917610       -0.48634223176547
H           38.79415734227695       -2.28243132415063       -1.07724158393571
H           36.96126026249866       -4.23551484930188       -1.18920248517104
H           35.38968521077587       -5.02458912429982        0.82772118258994
H           35.46664380849586       -7.48189594864098        0.60244214612292
H           34.43500691169867       -8.57664634126612       -1.37909825421948
H           32.25489114848057       -7.11787370691080       -5.02476099041725
H           33.28247407656036       -4.73691283786106       -2.89038518099112
H           31.67462848446267       -4.41490145768000       -0.75699742399459
H           29.74470684782175       -2.56524434242262       -0.48246166240100
Cu          56.00960238856270        0.21885994772482       -0.41737377047510
C           59.40595559257367        0.11781707234391       -0.15962046618909
C           58.76487135156844       -1.07989013931977       -0.43759806329954
C           59.43169942985281       -2.32904185201996       -0.67237414839995
C           58.46775354396829       -3.25505460811474       -0.89875311242668
C           57.20149882998535       -2.58227122863552       -0.78839299355458
N           57.41360227372488       -1.26057043751713       -0.52014611235955
C           55.95132686246085       -3.18729303733320       -0.93054131560636
C           55.91693371874206       -4.65076197938932       -1.17451236731019
C           56.44932776767542       -5.54235746060683       -0.24779232344772
C           56.41034162773680       -6.91599837856127       -0.48508249032800
C           56.99100128874246       -7.81634464627772        0.54255201042890
O           56.89990789872762       -9.11697073672069        0.22846233648809
O           57.50192429475261       -7.44006307216042        1.56639855837616
C           55.83853102307051       -7.40760724731122       -1.65847497366049
C           55.30892621675576       -6.52182146553144       -2.58371404100262
C           55.34490586233562       -5.15540758689002       -2.34523841223002
C           54.72478343745927       -2.52227719120666       -0.86106962430301
C           53.44258633371784       -3.16580618812033       -0.89340958617347
C           52.50586173873457       -2.18836184222619       -0.79987299014846
N           54.54846670680426       -1.17022447543324       -0.73594292834449
C           53.20553543296983       -0.94257680568143       -0.71344582297715
C           52.58264626049822        0.31579789268261       -0.64212414508813
C           53.26004601559833        1.53947362655266       -0.49825185158296
C           52.62649613898694        2.82305802154798       -0.51125073087522
C           53.59807639247703        3.74871020072035       -0.30765845505625
C           54.83486570060644        3.03471504241313       -0.16663666675241
N           54.59971598326401        1.69277740835055       -0.30570707870943
C           56.07671927344933        3.62876489399507        0.07011980782417
C           56.10052419812777        5.09636107924502        0.29188990653941
C           55.40842545938744        5.65792765310816        1.36743294410129
C           55.43189919578971        7.02825679391453        1.58625255450965
C           56.14199522070683        7.85551254780604        0.73238478070936
C           56.83442808156773        7.30715169964037       -0.34835004608417
C           57.57909111628384        8.22813453443211       -1.24298794459407
O           58.20712701735437        7.60678518318591       -2.25219173316209
O           57.63025468395326        9.42272689717436       -1.09786526101292
C           56.81459125665713        5.93073420504419       -0.56536952505879
C           57.29546572067458        2.94903131213485        0.12000019725008
C           58.56761983837214        3.54735144288035        0.42261096142909
C           59.49758269321059        2.56314759235884        0.35216946144522
C           58.80148715759276        1.35321482002122        0.01882406081517
N           57.46702945312964        1.61415029177093       -0.10948003078301
H           60.48725066265746        0.08572998678619       -0.07491678711092
H           60.50186684214412       -2.46335797317543       -0.67144158895688
H           58.59573422628235       -4.30047999033242       -1.12893359365336
H           56.88490284781565       -5.17991716955733        0.67693135205770
H           57.29928792494204       -9.63569733962759        0.94558948176160
H           55.81027276968576       -8.47492670258797       -1.84128694840180
H           54.86497463355268       -6.89642733327434       -3.49913251849919
H           54.93879630714257       -4.46703979086210       -3.07809414661749
H           53.28278747042448       -4.23005004126056       -0.95580447938211
H           51.43410190328085       -2.29686463296669       -0.77611325259882
H           51.57404840661540        2.98956975160472       -0.67297360086795
H           53.49284223866269        4.82108064065146       -0.27488244589158
H           54.86138760033970        5.01037101703669        2.04356557849313
H           54.89428717925318        7.44863819396749        2.42849490754115
H           56.17058658699330        8.92804324813931        0.88800938974896
H           58.66546031180295        8.27535638306839       -2.78677672113585
H           57.34317089810833        5.50922704677175       -1.41219822534449
H           58.72082170345750        4.58590061337595        0.66820597970201
H           60.56094569249785        2.63390759707651        0.51841203222841
C           39.03889877789092        0.34381376433050       -0.77860958222677
C           40.25458893788623        0.37674156535651       -0.81798034660156
C           49.95836053975999        0.36927522397324       -0.76788544413134
C           51.17427907496106        0.35005365870083       -0.71657885399758
Cu          45.10590096927427        0.40609627208788       -0.85709740047781
C           41.66449962506579        0.39850672628884       -0.84830763086231
C           42.31639011796886       -0.68769319378755       -1.45822524727855
C           41.64596065832185       -1.75720481564254       -2.13419297691040
C           42.60388782214289       -2.61282734594822       -2.57198816538431
C           43.86830440013593       -2.07305907151872       -2.15954212601981
N           43.66156002691021       -0.89259692208732       -1.49809333333777
C           45.10920435050487       -2.66261765704383       -2.41123737366864
C           45.10279678888456       -3.99181389669371       -3.07214838936264
C           44.47403917945460       -5.07468115353032       -2.46341138833822
C           44.46025543975830       -6.32464603124572       -3.08067457183298
C           43.76779081657092       -7.43695412182798       -2.38270421438983
O           43.81687785797848       -8.60033461038877       -3.04773281127882
O           43.20495865282757       -7.32935112324688       -1.32324176858464
C           45.07918185409893       -6.49944557200670       -4.31844062808337
C           45.70508642288603       -5.42302170904180       -4.92723552069321
C           45.71853805885748       -4.17902753753451       -4.31183693037514
C           46.34995787339412       -2.11095574257452       -2.08537896434186
C           47.61645780599103       -2.75114499806638       -2.29897773810539
C           48.57248285899657       -1.89572643386305       -1.85634497552317
N           46.55484630936127       -0.88761059148563       -1.50537683846272
C           47.89928384763804       -0.73514292498242       -1.35620054289967
C           48.54857398212658        0.38715612331465       -0.81094066190944
C           47.89753762209908        1.52421985630421       -0.29959273193010
C           48.57072406385601        2.68191869542724        0.20781734365299
C           47.61296837901268        3.55612968291095        0.60747278841059
C           46.34515275432040        2.92946476580592        0.36272743387719
N           46.55136747861112        1.69671390940101       -0.19704628831786
C           45.10301326264706        3.49725486101750        0.65142135807635
C           45.09579250357751        4.84087707435015        1.28423005807781
C           44.51410235695242        5.92407746685369        0.62155415465232
C           44.50665752561686        7.18605339710061        1.19908225030976
C           45.07527382600626        7.38151563099365        2.44649608986337
C           45.65559154895170        6.30611616921009        3.12087214893562
C           46.25116793153570        6.55734412687901        4.45720177581720
O           46.77944271515592        5.46333299764981        5.02471594284421
O           46.27060037184555        7.63212599172922        5.00061241038338
C           45.66636843979699        5.03967853107644        2.53932098543999
C           43.86253473538184        2.90787046700322        0.39758345250350
C           42.59766069278007        3.45548576732594        0.79745930152058
C           41.64132826728996        2.58317594625528        0.38929543806285
C           42.31301429864715        1.50023435806500       -0.26363232580606
N           43.65738017605101        1.71349116012632       -0.23829783132859
H           40.57924643989408       -1.82877687638466       -2.27034164479843
H           42.46959332475018       -3.51994069526161       -3.13848857461109
H           43.99911451477736       -4.96029920906385       -1.49509664114585
H           43.34150113023220       -9.27112255502963       -2.53103295349433
H           45.06646547328661       -7.47076728925556       -4.79780372873403
H           46.18451090150934       -5.55088888261595       -5.89120346413362
H           46.19611823695011       -3.33809222470356       -4.80217112995679
H           47.75436272723436       -3.73363347148360       -2.72055094164203
H           49.64108511495210       -2.03370303815116       -1.86544100495061
H           49.64044147772661        2.80610852594189        0.24708395263011
H           47.75032823271997        4.54101260774516        1.02348309365330
H           44.07782781102216        5.77420781942122       -0.35976796085585
H           44.05588914393175        8.01806904160502        0.67018879364795
H           45.07823235788843        8.36029922240120        2.91267821039762
H           47.14213110334141        5.71043590993796        5.89088826043163
H           46.10608272517415        4.20417706053871        3.07101931196528
H           42.46311997636604        4.37799884553412        1.33870740751971
H           40.57469999680990        2.65489297210627        0.52646868933047

          :  Hamiltonian                  GFN1-xTB          :
         :: total energy            -362.520800841635 Eh    ::
         :: gradient norm              0.000543906628 Eh/a0 ::
         :: HOMO-LUMO gap              0.001687342052 eV    ::
         :: SCC energy              -367.562363270101 Eh    ::
         :: repulsion energy           5.217413189560 Eh    ::

    * Orbital Energies and Occupations

         #    Occupation            Energy/Eh            Energy/eV
      -------------------------------------------------------------
         1        2.0000           -0.8340492             -22.6956
       ...           ...                  ...                  ...
       311        2.0000           -0.4149314             -11.2909
       312        2.0000           -0.4148593             -11.2889
       313        2.0000           -0.4142069             -11.2711
       314        2.0000           -0.4141504             -11.2696
       315        2.0000           -0.4139678             -11.2646
       316        2.0000           -0.4036907             -10.9850
       317        2.0000           -0.4026270             -10.9560
       318        2.0000           -0.4024789             -10.9520
       319        2.0000           -0.4023032             -10.9472
       320        2.0000           -0.3949865             -10.7481
       321        2.0000           -0.3849326             -10.4745
       322        1.0477           -0.3624601              -9.8630
       323        0.9907           -0.3623382              -9.8597 (HOMO)
       324        0.9617           -0.3622762              -9.8580 (LUMO)
       325        0.0000           -0.3481702              -9.4742
       326                         -0.3370480              -9.1715
       327                         -0.3358717              -9.1395
       328                         -0.3354581              -9.1283
       329                         -0.3352306              -9.1221
       330                         -0.3261440              -8.8748
       331                         -0.3126733              -8.5083
       332                         -0.3121478              -8.4940
       333                         -0.3118797              -8.4867
       334                         -0.3110575              -8.4643
       ...                                ...                  ...
       659                          1.3333863              36.2833
      -------------------------------------------------------------
                  HL-Gap            0.0000620 Eh            0.0017 eV

Wiberg/Mayer (AO) data.
largest (>0.10) Wiberg bond orders for each atom

     #   Z sym  total        # sym  WBO       # sym  WBO       # sym  WBO
 ---------------------------------------------------------------------------
     1  29 Cu   2.193 --     7 N    0.507    43 N    0.507    28 N    0.504
                            21 N    0.503
     2   6 C    3.930 --     3 C    1.362    42 C    1.361    44 H    0.971
     3   6 C    3.916 --     2 C    1.362     7 N    1.229     4 C    1.169
     4   6 C    3.955 --     5 C    1.658     3 C    1.169    45 H    0.975
     5   6 C    3.958 --     4 C    1.658     6 C    1.170    46 H    0.973
     6   6 C    3.914 --     8 C    1.322     7 N    1.238     5 C    1.170
     7   7 N    3.245 --     6 C    1.238     3 C    1.229     1 Cu   0.507
     8   6 C    3.933 --    18 C    1.325     6 C    1.322     9 C    1.024
     9   6 C    3.988 --    10 C    1.409    17 C    1.389     8 C    1.024
                            15 C    0.103
    10   6 C    3.984 --     9 C    1.409    11 C    1.396    47 H    0.968
                            16 C    0.104
    11   6 C    3.988 --    10 C    1.396    15 C    1.391    12 C    1.005
                            17 C    0.100
    12   6 C    3.836 --    14 O    1.692    13 O    1.090    11 C    1.005
    13   8 O    2.098 --    12 C    1.090    48 H    0.838    14 O    0.129
    14   8 O    1.961 --    12 C    1.692    13 O    0.129
    15   6 C    3.987 --    16 C    1.448    11 C    1.391    49 H    0.971
                             9 C    0.103
    16   6 C    3.994 --    15 C    1.448    17 C    1.441    50 H    0.972
                            10 C    0.104
    17   6 C    3.988 --    16 C    1.441     9 C    1.389    51 H    0.973
                            11 C    0.100
    18   6 C    3.909 --     8 C    1.325    21 N    1.224    19 C    1.179
    19   6 C    3.954 --    20 C    1.642    18 C    1.179    52 H    0.973
    20   6 C    3.957 --    19 C    1.642    22 C    1.187    53 H    0.969
    21   7 N    3.248 --    22 C    1.254    18 C    1.224     1 Cu   0.503
    22   6 C    3.902 --    23 C    1.266    21 N    1.254    20 C    1.187
    23   6 C    3.940 --    22 C    1.266    24 C    1.265   125 C    1.173
    24   6 C    3.902 --    23 C    1.265    28 N    1.254    25 C    1.186
    25   6 C    3.957 --    26 C    1.643    24 C    1.186    54 H    0.969
    26   6 C    3.954 --    25 C    1.643    27 C    1.179    55 H    0.973
    27   6 C    3.909 --    29 C    1.327    28 N    1.223    26 C    1.179
    28   7 N    3.248 --    24 C    1.254    27 C    1.223     1 Cu   0.504
    29   6 C    3.934 --    27 C    1.327    39 C    1.322    30 C    1.024
    30   6 C    3.988 --    38 C    1.407    31 C    1.390    29 C    1.024
                            33 C    0.103
    31   6 C    3.987 --    32 C    1.439    30 C    1.390    56 H    0.973
                            34 C    0.100
    32   6 C    3.994 --    33 C    1.451    31 C    1.439    57 H    0.972
                            38 C    0.104
    33   6 C    3.986 --    32 C    1.451    34 C    1.388    58 H    0.969
                            30 C    0.103
    34   6 C    3.988 --    38 C    1.399    33 C    1.388    35 C    1.006
                            31 C    0.100
    35   6 C    3.836 --    37 O    1.692    36 O    1.089    34 C    1.006
    36   8 O    2.098 --    35 C    1.089    59 H    0.838    37 O    0.129
    37   8 O    1.961 --    35 C    1.692    36 O    0.129
    38   6 C    3.986 --    30 C    1.407    34 C    1.399    60 H    0.970
                            32 C    0.104
    39   6 C    3.914 --    29 C    1.322    43 N    1.238    40 C    1.171
    40   6 C    3.958 --    41 C    1.657    39 C    1.171    61 H    0.973
    41   6 C    3.955 --    40 C    1.657    42 C    1.170    62 H    0.975
    42   6 C    3.916 --     2 C    1.361    43 N    1.229    41 C    1.170
    43   7 N    3.244 --    39 C    1.238    42 C    1.229     1 Cu   0.507
    44   1 H    1.001 --     2 C    0.971
    45   1 H    0.997 --     4 C    0.975
    46   1 H    1.004 --     5 C    0.973
    47   1 H    1.007 --    10 C    0.968
    48   1 H    0.873 --    13 O    0.838
    49   1 H    1.005 --    15 C    0.971
    50   1 H    1.002 --    16 C    0.972
    51   1 H    1.004 --    17 C    0.973
    52   1 H    1.004 --    19 C    0.973
    53   1 H    1.006 --    20 C    0.969
    54   1 H    1.005 --    25 C    0.969
    55   1 H    1.004 --    26 C    0.973
    56   1 H    1.004 --    31 C    0.973
    57   1 H    1.001 --    32 C    0.972
    58   1 H    1.005 --    33 C    0.969
    59   1 H    0.873 --    36 O    0.838
    60   1 H    1.007 --    38 C    0.970
    61   1 H    1.004 --    40 C    0.973
    62   1 H    0.997 --    41 C    0.975
    63  29 Cu   2.191 --   105 N    0.506    69 N    0.506    83 N    0.503
                            90 N    0.502
    64   6 C    3.929 --    65 C    1.362   104 C    1.361   106 H    0.971
    65   6 C    3.916 --    64 C    1.362    69 N    1.230    66 C    1.169
    66   6 C    3.955 --    67 C    1.658    65 C    1.169   107 H    0.975
    67   6 C    3.958 --    66 C    1.658    68 C    1.170   108 H    0.973
    68   6 C    3.914 --    70 C    1.322    69 N    1.238    67 C    1.170
    69   7 N    3.243 --    68 C    1.238    65 C    1.230    63 Cu   0.506
    70   6 C    3.933 --    68 C    1.322    80 C    1.322    71 C    1.028
    71   6 C    3.988 --    72 C    1.409    79 C    1.386    70 C    1.028
                            77 C    0.102
    72   6 C    3.984 --    71 C    1.409    73 C    1.396   109 H    0.968
                            78 C    0.104
    73   6 C    3.988 --    72 C    1.396    77 C    1.391    74 C    1.005
    74   6 C    3.836 --    76 O    1.692    75 O    1.090    73 C    1.005
    75   8 O    2.098 --    74 C    1.090   110 H    0.838    76 O    0.129
    76   8 O    1.961 --    74 C    1.692    75 O    0.129
    77   6 C    3.986 --    78 C    1.447    73 C    1.391   111 H    0.971
                            71 C    0.102
    78   6 C    3.994 --    77 C    1.447    79 C    1.442   112 H    0.972
                            72 C    0.104
    79   6 C    3.987 --    78 C    1.442    71 C    1.386   113 H    0.973
    80   6 C    3.909 --    70 C    1.322    83 N    1.225    81 C    1.180
    81   6 C    3.954 --    82 C    1.640    80 C    1.180   114 H    0.973
    82   6 C    3.957 --    81 C    1.640    84 C    1.188   115 H    0.968
    83   7 N    3.247 --    84 C    1.253    80 C    1.225    63 Cu   0.503
    84   6 C    3.902 --    85 C    1.264    83 N    1.253    82 C    1.188
    85   6 C    3.939 --    84 C    1.264    86 C    1.264   128 C    1.175
    86   6 C    3.902 --    85 C    1.264    90 N    1.254    87 C    1.188
    87   6 C    3.957 --    88 C    1.640    86 C    1.188   116 H    0.969
    88   6 C    3.954 --    87 C    1.640    89 C    1.180   117 H    0.973
    89   6 C    3.910 --    91 C    1.323    90 N    1.224    88 C    1.180
    90   7 N    3.246 --    86 C    1.254    89 C    1.224    63 Cu   0.502
    91   6 C    3.933 --    89 C    1.323   101 C    1.322    92 C    1.027
    92   6 C    3.988 --   100 C    1.406    93 C    1.388    91 C    1.027
                            95 C    0.102
    93   6 C    3.987 --    94 C    1.440    92 C    1.388   118 H    0.973
    94   6 C    3.994 --    95 C    1.450    93 C    1.440   119 H    0.972
                           100 C    0.104
    95   6 C    3.985 --    94 C    1.450    96 C    1.388   120 H    0.969
                            92 C    0.102
    96   6 C    3.988 --   100 C    1.399    95 C    1.388    97 C    1.005
    97   6 C    3.836 --    99 O    1.692    98 O    1.089    96 C    1.005
    98   8 O    2.098 --    97 C    1.089   121 H    0.838    99 O    0.129
    99   8 O    1.961 --    97 C    1.692    98 O    0.129
   100   6 C    3.985 --    92 C    1.406    96 C    1.399   122 H    0.969
                            94 C    0.104
   101   6 C    3.914 --    91 C    1.322   105 N    1.238   102 C    1.171
   102   6 C    3.958 --   103 C    1.657   101 C    1.171   123 H    0.973
   103   6 C    3.955 --   102 C    1.657   104 C    1.170   124 H    0.975
   104   6 C    3.916 --    64 C    1.361   105 N    1.230   103 C    1.170
   105   7 N    3.243 --   101 C    1.238   104 C    1.230    63 Cu   0.506
   106   1 H    1.001 --    64 C    0.971
   107   1 H    0.997 --    66 C    0.975
   108   1 H    1.004 --    67 C    0.973
   109   1 H    1.007 --    72 C    0.968
   110   1 H    0.873 --    75 O    0.838
   111   1 H    1.005 --    77 C    0.971
   112   1 H    1.002 --    78 C    0.972
   113   1 H    1.005 --    79 C    0.973
   114   1 H    1.004 --    81 C    0.973
   115   1 H    1.006 --    82 C    0.968
   116   1 H    1.005 --    87 C    0.969
   117   1 H    1.004 --    88 C    0.973
   118   1 H    1.005 --    93 C    0.973
   119   1 H    1.001 --    94 C    0.972
   120   1 H    1.005 --    95 C    0.969
   121   1 H    0.873 --    98 O    0.838
   122   1 H    1.008 --   100 C    0.969
   123   1 H    1.004 --   102 C    0.973
   124   1 H    0.997 --   103 C    0.975
   125   6 C    3.932 --   126 C    2.582    23 C    1.173
   126   6 C    3.935 --   125 C    2.582   130 C    1.175
   127   6 C    3.935 --   128 C    2.580   151 C    1.176
   128   6 C    3.933 --   127 C    2.580    85 C    1.175
   129  29 Cu   2.152 --   135 N    0.497   156 N    0.496   171 N    0.496
                           149 N    0.495
   130   6 C    3.929 --   170 C    1.263   131 C    1.263   126 C    1.175
   131   6 C    3.903 --   130 C    1.263   135 N    1.257   132 C    1.187
   132   6 C    3.956 --   133 C    1.641   131 C    1.187   172 H    0.969
   133   6 C    3.955 --   132 C    1.641   134 C    1.179   173 H    0.973
   134   6 C    3.908 --   136 C    1.322   135 N    1.225   133 C    1.179
   135   7 N    3.241 --   131 C    1.257   134 C    1.225   129 Cu   0.497
   136   6 C    3.929 --   146 C    1.323   134 C    1.322   137 C    1.028
   137   6 C    3.988 --   138 C    1.407   145 C    1.388   136 C    1.028
                           143 C    0.102
   138   6 C    3.984 --   137 C    1.407   139 C    1.397   174 H    0.968
                           144 C    0.104
   139   6 C    3.988 --   138 C    1.397   143 C    1.390   140 C    1.005
   140   6 C    3.836 --   142 O    1.692   141 O    1.090   139 C    1.005
   141   8 O    2.098 --   140 C    1.090   175 H    0.838   142 O    0.129
   142   8 O    1.961 --   140 C    1.692   141 O    0.129
   143   6 C    3.986 --   144 C    1.448   139 C    1.390   176 H    0.971
                           137 C    0.102
   144   6 C    3.994 --   143 C    1.448   145 C    1.441   177 H    0.972
                           138 C    0.104
   145   6 C    3.987 --   144 C    1.441   137 C    1.388   178 H    0.973
   146   6 C    3.908 --   136 C    1.323   149 N    1.225   147 C    1.180
   147   6 C    3.955 --   148 C    1.641   146 C    1.180   179 H    0.973
   148   6 C    3.955 --   147 C    1.641   150 C    1.187   180 H    0.968
   149   7 N    3.239 --   150 C    1.258   146 C    1.225   129 Cu   0.495
   150   6 C    3.903 --   151 C    1.262   149 N    1.258   148 C    1.187
   151   6 C    3.929 --   150 C    1.262   152 C    1.262   127 C    1.176
   152   6 C    3.903 --   151 C    1.262   156 N    1.259   153 C    1.186
   153   6 C    3.955 --   154 C    1.642   152 C    1.186   181 H    0.969
   154   6 C    3.955 --   153 C    1.642   155 C    1.179   182 H    0.973
   155   6 C    3.908 --   157 C    1.325   156 N    1.223   154 C    1.179
   156   7 N    3.240 --   152 C    1.259   155 C    1.223   129 Cu   0.496
   157   6 C    3.928 --   155 C    1.325   167 C    1.321   158 C    1.025
   158   6 C    3.988 --   166 C    1.407   159 C    1.389   157 C    1.025
                           161 C    0.103
   159   6 C    3.987 --   160 C    1.440   158 C    1.389   183 H    0.973
                           162 C    0.100
   160   6 C    3.994 --   161 C    1.450   159 C    1.440   184 H    0.972
                           166 C    0.104
   161   6 C    3.986 --   160 C    1.450   162 C    1.388   185 H    0.969
                           158 C    0.103
   162   6 C    3.988 --   166 C    1.399   161 C    1.388   163 C    1.005
                           159 C    0.100
   163   6 C    3.836 --   165 O    1.692   164 O    1.090   162 C    1.005
   164   8 O    2.099 --   163 C    1.090   186 H    0.838   165 O    0.129
   165   8 O    1.961 --   163 C    1.692   164 O    0.129
   166   6 C    3.985 --   158 C    1.407   162 C    1.399   187 H    0.969
                           160 C    0.104
   167   6 C    3.908 --   157 C    1.321   171 N    1.226   168 C    1.180
   168   6 C    3.955 --   169 C    1.641   167 C    1.180   188 H    0.974
   169   6 C    3.956 --   168 C    1.641   170 C    1.187   189 H    0.969
   170   6 C    3.903 --   130 C    1.263   171 N    1.257   169 C    1.187
   171   7 N    3.240 --   170 C    1.257   167 C    1.226   129 Cu   0.496
   172   1 H    1.005 --   132 C    0.969
   173   1 H    1.004 --   133 C    0.973
   174   1 H    1.007 --   138 C    0.968
   175   1 H    0.873 --   141 O    0.838
   176   1 H    1.005 --   143 C    0.971
   177   1 H    1.002 --   144 C    0.972
   178   1 H    1.005 --   145 C    0.973
   179   1 H    1.004 --   147 C    0.973
   180   1 H    1.006 --   148 C    0.968
   181   1 H    1.006 --   153 C    0.969
   182   1 H    1.004 --   154 C    0.973
   183   1 H    1.005 --   159 C    0.973
   184   1 H    1.002 --   160 C    0.972
   185   1 H    1.005 --   161 C    0.969
   186   1 H    0.873 --   164 O    0.838
   187   1 H    1.007 --   166 C    0.969
   188   1 H    1.004 --   168 C    0.974
   189   1 H    1.005 --   169 C    0.969
 ---------------------------------------------------------------------------

           -------------------------------------------------
          | TOTAL ENERGY             -362.520800841635 Eh   |
          | GRADIENT NORM               0.000543906628 Eh/α |
          | HOMO-LUMO GAP               0.001687342052 eV   |
           -------------------------------------------------

 * finished run on 2022/07/30 at 07:02:33.058
