   * xtb version 6.5.1 (b24c23e) compiled by 'conda@728c89f4b128' on 2022-07-12
          program call               : xtb NMA_C8_3.xyz --gfn 1 --opt -T 48

   ID    Z sym.   atoms
    1    6 C      1-5, 7-11, 13-18, 20-25, 27-31, 33-39, 68-72, 74-78, 80-85,
                  87-92, 94-98, 100-106, 135-155, 157-161, 163-168, 170-175,
                  177-181, 183-189
    2    7 N      6, 12, 19, 26, 32, 40, 73, 79, 86, 93, 99, 107, 156, 162,
                  169, 176, 182, 190
    3    1 H      41-67, 108-134, 191-216

          :  Hamiltonian                  GFN1-xTB          :
 * total energy  :  -348.4168291 Eh     change        0.4825495E-08 Eh
 * total energy  :  -348.9033766 Eh     change       -0.4865475E+00 Eh
 * total energy  :  -349.0719750 Eh     change       -0.1685984E+00 Eh
 * total energy  :  -349.1649823 Eh     change       -0.9300730E-01 Eh
 * total energy  :  -349.2354123 Eh     change       -0.7042999E-01 Eh
 * total energy  :  -349.3026788 Eh     change       -0.6726653E-01 Eh
 * total energy  :  -349.3492348 Eh     change       -0.4655598E-01 Eh
 * total energy  :  -349.3795968 Eh     change       -0.3036202E-01 Eh
 * total energy  :  -349.4045996 Eh     change       -0.2500281E-01 Eh
 * total energy  :  -349.4252773 Eh     change       -0.2067766E-01 Eh
 * total energy  :  -349.5708213 Eh     change       -0.4233284E-04 Eh
 * total energy  :  -349.5708261 Eh     change       -0.4722935E-05 Eh
 * total energy  :  -349.5708232 Eh     change        0.2880506E-05 Eh
 * total energy  :  -349.5708460 Eh     change       -0.2277232E-04 Eh
 * total energy  :  -349.5708254 Eh     change        0.2060184E-04 Eh
 * total energy  :  -349.5708541 Eh     change       -0.2872680E-04 Eh
 * total energy  :  -349.5708485 Eh     change        0.5611472E-05 Eh
 * total energy  :  -349.5708651 Eh     change       -0.1664770E-04 Eh
 * total energy  :  -349.5708667 Eh     change       -0.1604067E-05 Eh
   *** GEOMETRY OPTIMIZATION CONVERGED AFTER 129 ITERATIONS ***

 final structure:
================
216
 xtb: 6.5.1 (b24c23e)
C           28.44034695983782        0.53820649693835        0.03194582939072
C           29.04222121482128        0.60366706741533       -1.21848680827504
C           28.38230034806297        0.74257176835546       -2.47118986581034
C           29.33270493618315        0.71402487288332       -3.45352682712370
C           30.60512967177146        0.57078474476562       -2.83150326278661
N           30.37887671819269        0.50702373670807       -1.48549077813610
C           31.85732803181924        0.47709724457415       -3.45203940275302
C           31.88235583939578        0.57903144861925       -4.92976182495766
C           32.39384456896175       -0.46291960293112       -5.70590815505988
C           32.41798800465492       -0.38201317639946       -7.08763614492261
C           31.92877808018095        0.75777649397655       -7.73273985511016
N           31.98242701304564        0.91747336198366       -9.10908257551657
C           32.03003508228186       -0.25550698510544       -9.97156485003645
C           31.42592703506979        1.81067320848616       -6.95821490131379
C           31.39788105274283        1.71776543412795       -5.57947348307037
C           33.06856828255069        0.30173443766775       -2.77777879751708
C           34.36508205784281        0.30661114199596       -3.43065878964345
C           35.28551654640579        0.15646301016749       -2.45553445110030
N           33.22434196384909        0.15447690625418       -1.43253408548937
C           34.55045308816430        0.06137195952598       -1.20959635757344
C           35.18967962039964       -0.09052599228831        0.03842300961765
C           34.55850086206977       -0.18690580289015        1.29394040532047
C           35.20878408626466       -0.33148170954649        2.54747066496881
C           34.24710846193478       -0.37216147060933        3.51931713159344
C           32.97853609010209       -0.25745583826389        2.88715921279293
N           33.21939714695652       -0.14674809676398        1.54248242153044
C           31.72338816525580       -0.21284077401392        3.50515664152638
C           31.69533207475352       -0.39041346160151        4.97466832435675
C           31.15986971648237        0.59593818110561        5.80548854167916
C           31.13565645195243        0.43869174912323        7.18070432424397
C           31.64977868302624       -0.72329113371806        7.76402108012217
N           31.59977363290815       -0.95826233629483        9.12958151531363
C           31.52576503126645        0.16536970727029       10.05377890248912
C           32.17718792673232       -1.72085077971617        6.93445428312851
C           32.20500552205361       -1.55177226859873        5.56321510299957
C           30.51303739172540       -0.00723401034767        2.83214515124524
C           29.20813238006324       -0.01239420403453        3.47423542201138
C           28.30161688855221        0.21173572210038        2.50112266058661
C           29.04989458964264        0.33689586630667        1.26332021027343
N           30.37774385408333        0.19730617707686        1.50044084863874
H           27.35879505535962        0.63182018377566        0.03440264716939
H           27.31501017468306        0.83895769397589       -2.59272783573939
H           29.16981365950258        0.77374858955128       -4.51746613437429
H           31.10678386336365        0.38562727993250       -0.78920317455773
H           32.76064627769440       -1.35950318636104       -5.21796355920215
H           32.82003778115461       -1.20987025906751       -7.65877447729682
H           31.33672826496257        1.62031906142716       -9.44808036317630
H           31.21933944070691       -0.95719401706644       -9.74330275485794
H           31.93488341109029        0.08157762263508      -11.00384020920074
H           32.98800601108853       -0.76460770342304       -9.85799433650075
H           31.05881458050897        2.70591150985168       -7.44917344065695
H           31.01742799724391        2.54735525060428       -4.99326091729515
H           34.52940944550883        0.43281690309120       -4.48850163370601
H           36.35942287018901        0.11671631695547       -2.54444634892544
H           36.27715104114195       -0.38985933881333        2.67991835685716
H           34.40178599894455       -0.45654225629628        4.58262802961910
H           32.49529332777064       -0.03095292172006        0.84105258954392
H           30.77654864186824        1.51112528046168        5.36726586621445
H           30.71530460678921        1.22522227080298        7.79537866778394
H           32.26153140463663       -1.66347638439519        9.43081765028350
H           30.55416965110943        0.65427588396368        9.97100818111542
H           32.31647247680272        0.89935453759094        9.86015462584873
H           31.63522788111676       -0.22361663526549       11.06616594250817
H           32.56441008350969       -2.63283126731359        7.37675172714496
H           32.60587793108516       -2.33858673205876        4.93335045486007
H           29.03123361335007       -0.18411937696605        4.52382229241089
H           27.22753008754847        0.27656327120976        2.58040780883305
C           72.25670539026554        0.58988342053447       -0.06311110610600
C           71.65275200189537        0.71615105429238        1.18161934155117
C           72.31054807410544        0.92012117411274        2.42653063803239
C           71.35978474487142        0.92933249629423        3.40886608019138
C           70.08900367739815        0.74622829295549        2.79393489553159
N           70.31662792517555        0.62226550094661        1.45234042708597
C           68.83734319785863        0.66838327484598        3.41766576173825
C           68.81235381809586        0.82301270953379        4.89087332838082
C           68.31555155886616       -0.19926608264102        5.70200356502637
C           68.29965495232419       -0.07622917928038        7.08065157798371
C           68.78230268678733        1.08734112080417        7.68702099907982
N           68.74053629020642        1.28587977991270        9.05895391610583
C           68.72560485382652        0.13598072265751        9.95342655917402
C           69.26616040752748        2.12228378962638        6.87708744722677
C           69.28661891998357        1.98721178125003        5.50161454322410
C           67.62790811126595        0.45532515904323        2.75122657303876
C           66.33122188051090        0.47877036363150        3.40329898758007
C           65.41237314497420        0.27838141146431        2.43570690431178
N           67.47388419221969        0.24755893317147        1.41385332776924
C           66.14875475285960        0.13237137597365        1.19542191470825
C           65.51218962778339       -0.08641903725181       -0.04402029677308
C           66.14567025802234       -0.23789845987562       -1.29289624205649
C           65.49840041310266       -0.44986698059780       -2.53831071376744
C           66.46232136635149       -0.53906244584318       -3.50472106873248
C           67.72915925485323       -0.38707432968088       -2.87702483795476
N           67.48501398772028       -0.20370266532274       -1.54099092782223
C           68.98576800283134       -0.37772546206125       -3.49388475891230
C           69.01746886174668       -0.65456666228662       -4.94771298858959
C           69.55894092969650        0.26816335679515       -5.84497882906742
C           69.58851375333673        0.01211066192817       -7.20522296077497
C           69.07364565435601       -1.18754910217381       -7.70580862242268
N           69.13003828052304       -1.52171655733552       -9.05014624170790
C           69.21529798455825       -0.46979212647328      -10.05415711204037
C           68.53868479712970       -2.12094976495539       -6.80909048657860
C           68.50594926010541       -1.85356553963625       -5.45388867043732
C           70.19381385005856       -0.12799959722943       -2.83171530579941
C           71.50073758868808       -0.16680300843004       -3.46852486334313
C           72.40328989064103        0.12098322657488       -2.50853446129410
C           71.65089210903307        0.31629983916336       -1.28238677215364
N           70.32447635405768        0.15618151304243       -1.51414357956017
H           73.33775385988504        0.68964738203600       -0.06912009007731
H           73.37691824057865        1.03097825612156        2.54381933997568
H           71.52155330847108        1.04043437857850        4.46882647686818
H           69.59039586155765        0.46069702066434        0.76250666552331
H           67.95486182435032       -1.11403092693400        5.24414743193460
H           67.90997223088300       -0.89013095531100        7.67975651229709
H           69.37984505110467        2.00755209501757        9.36963551275387
H           69.54357495628878       -0.55881028756405        9.73021396076467
H           68.83245881187170        0.50224155963879       10.97450363296806
H           67.77419896196416       -0.39090294823335        9.86969933982456
H           69.62605330467493        3.03635246908347        7.33780004401064
H           69.65389019541649        2.80248866292517        4.88758065443065
H           66.16596359056980        0.65071471418066        4.45456031612523
H           64.33876799927125        0.23450979269286        2.52610280350971
H           64.43048744949064       -0.51829617061038       -2.66965635911839
H           66.31020255434730       -0.67957421994655       -4.56245337098981
H           68.20713901315888       -0.05012354827197       -0.84478004148464
H           69.94268664923372        1.21180841345304       -5.47243114052852
H           70.01388571533073        0.75118423316172       -7.87304546900830
H           68.46718329942559       -2.24465916046463       -9.30296084530394
H           70.18795235141140        0.02101580654272       -9.99983764472128
H           68.42556936581599        0.27875330268140       -9.92204826805753
H           69.11258578906724       -0.93248682889526      -11.03576334238787
H           68.15002715424733       -3.06114543752641       -7.18631751041597
H           68.09976919031156       -2.59178955185002       -4.77084876273755
H           71.68186937109694       -0.40115175114254       -4.50516302241048
H           73.47728736134627        0.18606074904615       -2.58873709142154
C           36.59362932998775       -0.13299634419172        0.04585489990190
C           37.81872689417833       -0.14904729358160        0.05448241342207
C           39.16051744481531       -0.15771238196575        0.05954666632619
C           40.39173459096859       -0.14955809874335        0.05977290303956
C           41.72866808918904       -0.13780835371049        0.05723555362381
C           42.95978019089672       -0.12136144236775        0.05407757508181
C           44.30120239763276       -0.10504356477800        0.04813860041100
C           45.52647895087694       -0.08995224506669        0.03725184087098
C           55.17819091540002       -0.27691957617402       -0.02473162987470
C           56.40338180727137       -0.29036559178277       -0.03481504566749
C           57.74485998030117       -0.29349614654199       -0.04133849116230
C           58.97613546281714       -0.28549732181929       -0.04987078760736
C           60.31290958199553       -0.26605098816134       -0.05616737294860
C           61.54386988923055       -0.24031809728863       -0.05303354810901
C           62.88497283501874       -0.19948049694332       -0.05416764758168
C           64.10924744772026       -0.15268460478036       -0.04952057211396
C           46.93003280629949       -0.08000591861090        0.02696351560474
C           47.56287345068502       -0.02854040528882        1.28487646405721
C           46.91707719428479       -0.00505076714587        2.54735766540698
C           47.88514032609147        0.02185199187961        3.51457600316169
C           49.15062331440527        0.02380383239654        2.86871716927658
N           48.90467467654101       -0.01095446401041        1.52162224601290
C           50.41252100724933        0.02164865512256        3.47794813166866
C           50.43443820872196        0.10102355802920        4.95726201508022
C           51.02854054308769       -0.90958255316285        5.71886548403014
C           51.04807921240474       -0.83623578337937        7.09848923379124
C           50.47927754427599        0.25859468176381        7.76149602282086
N           50.57884841802628        0.31886172918299        9.14275904777490
C           49.63718550983963        1.13067858844033        9.90153531925079
C           49.89461838673184        1.27789528638969        7.00408592639072
C           49.86748508065034        1.18957778581468        5.62273294909033
C           51.63251576618411       -0.04913708972866        2.80194513229694
C           52.92550844349385        0.01765883679880        3.45835789045581
C           53.85480617723240       -0.06993253368811        2.48397118532602
N           51.79820603578748       -0.15819291362631        1.45436691425275
C           53.12827290457579       -0.17705689483195        1.23482134421846
C           53.77474069626055       -0.26040695719322       -0.01544813529930
C           53.14224587312216       -0.30226575354570       -1.27375941857481
C           53.78927789578353       -0.32238316015326       -2.53570703405128
C           52.82233507215374       -0.31972170776814       -3.50417887560341
C           51.55599485179265       -0.31031058789261       -2.85977941691409
N           51.80064279623591       -0.29665334004799       -1.51204410338304
C           50.29477359647305       -0.28413800135552       -3.46965549476607
C           50.27499693738132       -0.32587363079924       -4.95065453720025
C           49.69950477252412        0.71293769205602       -5.68487987039523
C           49.68520382321267        0.68919883786364       -7.06885977683552
C           50.23603887971834       -0.39510552138932       -7.75839135260992
N           50.29108130364793       -0.44891668013666       -9.14266927530267
C           49.32755447761389        0.30502600856156       -9.93343584600075
C           50.81619907787193       -1.43868276669205       -7.02640341472323
C           50.83824982829623       -1.40025900378503       -5.64516586321316
C           49.07453589830660       -0.22230402439593       -2.79320982143659
C           47.78239330448599       -0.27828650847869       -3.45207616468255
C           46.85198064663925       -0.22117051070712       -2.47632209909286
C           47.57711139718636       -0.13732800157267       -1.22455410967955
N           48.90739268247926       -0.14315963977696       -1.44380583180216
H           45.84847292680595       -0.01608636790890        2.68949220978303
H           47.73622072060454        0.02451601527250        4.58200813582017
H           49.62465040169906       -0.03460664957327        0.80717396977219
H           51.45848279138955       -1.77129816540804        5.22016774600679
H           51.50625152119061       -1.63107295078013        7.67760941592362
H           50.73695428645849       -0.58776772814895        9.56560579566690
H           48.59901293678966        0.88665429442952        9.64845406495945
H           49.80464578263311        0.93828678601140       10.96129049420737
H           49.81476426766174        2.18918988555957        9.70690752584199
H           49.46314267447242        2.14615040325296        7.48682985350527
H           49.42124977353729        1.99312470101973        5.04666362524065
H           53.08124440282081        0.13610672593609        4.51831946631112
H           54.92912950844693       -0.05309619887032        2.57468154548432
H           54.85810194919251       -0.32643017198778       -2.67647711273482
H           52.97318252323194       -0.30994788687975       -4.57121597015454
H           51.08024499060969       -0.26894423931680       -0.79817703164082
H           49.27743920902134        1.56422943296586       -5.16187392857585
H           49.24673511569602        1.52033035918664       -7.60737952915144
H           50.42650969955449       -1.38941338979604       -9.49341110369241
H           49.51780726424585        1.37450269611944       -9.83404452762685
H           49.45651586824710        0.02369346742407      -10.97861935195395
H           48.29772372804039        0.09152197947376       -9.62483033168085
H           51.24897246131070       -2.28307466421025       -7.55256089745944
H           51.27458157080789       -2.22493218601659       -5.09202623063077
H           47.62855333004229       -0.37048919756839       -4.51501341766299
H           45.77780876986613       -0.24135945924785       -2.56826078862264

          :  Hamiltonian                  GFN1-xTB          :
         :: total energy            -349.570866731303 Eh    ::
         :: gradient norm              0.000883435492 Eh/a0 ::
         :: HOMO-LUMO gap              0.818544220414 eV    ::
         :: SCC energy              -355.532128681501 Eh    ::
         :: repulsion energy           6.134538631978 Eh    ::

    * Orbital Energies and Occupations

         #    Occupation            Energy/Eh            Energy/eV
      -------------------------------------------------------------
         1        2.0000           -0.7969240             -21.6854
       ...           ...                  ...                  ...
       309        2.0000           -0.3992492             -10.8641
       310        2.0000           -0.3943337             -10.7304
       311        2.0000           -0.3937741             -10.7151
       312        2.0000           -0.3935484             -10.7090
       313        2.0000           -0.3911412             -10.6435
       314        2.0000           -0.3908498             -10.6356
       315        2.0000           -0.3907838             -10.6338
       316        2.0000           -0.3906141             -10.6292
       317        2.0000           -0.3897085             -10.6045
       318        2.0000           -0.3893020             -10.5934
       319        2.0000           -0.3762451             -10.2381
       320        2.0000           -0.3722426             -10.1292
       321        2.0000           -0.3669600              -9.9855 (HOMO)
       322        0.0000           -0.3368791              -9.1669 (LUMO)
       323                         -0.3288527              -8.9485
       324                         -0.3240171              -8.8170
       325                         -0.3221313              -8.7656
       326                         -0.3219969              -8.7620
       327                         -0.3216513              -8.7526
       328                         -0.3009064              -8.1881
       329                         -0.2928552              -7.9690
       330                         -0.2924332              -7.9575
       331                         -0.2910124              -7.9188
       332                         -0.2870322              -7.8105
       ...                                ...                  ...
       704                          1.6133623              43.9018
      -------------------------------------------------------------
                  HL-Gap            0.0300809 Eh            0.8185 eV

Wiberg/Mayer (AO) data.
largest (>0.10) Wiberg bond orders for each atom

     #   Z sym  total        # sym  WBO       # sym  WBO       # sym  WBO
 ---------------------------------------------------------------------------
     1   6 C    3.922 --    39 C    1.366     2 C    1.344    41 H    0.971
     2   6 C    3.903 --     1 C    1.344     3 C    1.232     6 N    1.169
     3   6 C    3.951 --     4 C    1.591     2 C    1.232    42 H    0.977
     4   6 C    3.959 --     3 C    1.591     5 C    1.238    43 H    0.974
     5   6 C    3.894 --     7 C    1.298     4 C    1.238     6 N    1.177
     6   7 N    3.469 --     5 C    1.177     2 C    1.169    44 H    0.873
     7   6 C    3.939 --    16 C    1.335     5 C    1.298     8 C    1.035
     8   6 C    3.988 --     9 C    1.383    15 C    1.375     7 C    1.035
     9   6 C    3.987 --    10 C    1.465     8 C    1.383    45 H    0.972
    10   6 C    3.989 --     9 C    1.465    11 C    1.352    46 H    0.970
    11   6 C    3.952 --    10 C    1.352    14 C    1.345    12 N    1.110
    12   7 N    3.181 --    11 C    1.110    13 C    0.971    47 H    0.931
    13   6 C    3.968 --    49 H    0.990    50 H    0.986    48 H    0.984
                            12 N    0.971
    14   6 C    3.989 --    15 C    1.476    11 C    1.345    51 H    0.971
    15   6 C    3.987 --    14 C    1.476     8 C    1.375    52 H    0.973
    16   6 C    3.913 --     7 C    1.335    19 N    1.284    17 C    1.127
    17   6 C    3.966 --    18 C    1.708    16 C    1.127    53 H    0.973
    18   6 C    3.963 --    17 C    1.708    20 C    1.130    54 H    0.974
    19   7 N    3.020 --    20 C    1.346    16 C    1.284
    20   6 C    3.908 --    19 N    1.346    21 C    1.251    18 C    1.130
    21   6 C    3.934 --    20 C    1.251    22 C    1.248   135 C    1.196
    22   6 C    3.885 --    23 C    1.251    21 C    1.248    26 N    1.191
    23   6 C    3.958 --    24 C    1.580    22 C    1.251    55 H    0.975
    24   6 C    3.955 --    23 C    1.580    25 C    1.244    56 H    0.974
    25   6 C    3.897 --    27 C    1.307    24 C    1.244    26 N    1.164
    26   7 N    3.473 --    22 C    1.191    25 C    1.164    57 H    0.873
    27   6 C    3.924 --    36 C    1.316    25 C    1.307    28 C    1.038
    28   6 C    3.987 --    29 C    1.382    35 C    1.373    27 C    1.038
    29   6 C    3.987 --    30 C    1.465    28 C    1.382    58 H    0.972
    30   6 C    3.989 --    29 C    1.465    31 C    1.352    59 H    0.970
    31   6 C    3.951 --    30 C    1.352    34 C    1.344    32 N    1.111
    32   7 N    3.181 --    31 C    1.111    33 C    0.971    60 H    0.931
    33   6 C    3.968 --    63 H    0.990    61 H    0.986    62 H    0.984
                            32 N    0.971
    34   6 C    3.989 --    35 C    1.477    31 C    1.344    64 H    0.971
    35   6 C    3.986 --    34 C    1.477    28 C    1.373    65 H    0.973
    36   6 C    3.927 --    40 N    1.319    27 C    1.316    37 C    1.120
    37   6 C    3.967 --    38 C    1.719    36 C    1.120    66 H    0.973
    38   6 C    3.966 --    37 C    1.719    39 C    1.119    67 H    0.976
    39   6 C    3.930 --     1 C    1.366    40 N    1.298    38 C    1.119
    40   7 N    3.010 --    36 C    1.319    39 C    1.298
    41   1 H    1.002 --     1 C    0.971
    42   1 H    0.998 --     3 C    0.977
    43   1 H    1.006 --     4 C    0.974
    44   1 H    0.986 --     6 N    0.873
    45   1 H    1.005 --     9 C    0.972
    46   1 H    1.001 --    10 C    0.970
    47   1 H    0.966 --    12 N    0.931
    48   1 H    1.003 --    13 C    0.984
    49   1 H    1.007 --    13 C    0.990
    50   1 H    1.012 --    13 C    0.986
    51   1 H    0.999 --    14 C    0.971
    52   1 H    1.005 --    15 C    0.973
    53   1 H    1.006 --    17 C    0.973
    54   1 H    1.003 --    18 C    0.974
    55   1 H    1.002 --    23 C    0.975
    56   1 H    1.006 --    24 C    0.974
    57   1 H    0.988 --    26 N    0.873
    58   1 H    1.006 --    29 C    0.972
    59   1 H    1.001 --    30 C    0.970
    60   1 H    0.965 --    32 N    0.931
    61   1 H    1.012 --    33 C    0.986
    62   1 H    1.003 --    33 C    0.984
    63   1 H    1.007 --    33 C    0.990
    64   1 H    0.999 --    34 C    0.971
    65   1 H    1.005 --    35 C    0.973
    66   1 H    1.006 --    37 C    0.973
    67   1 H    0.999 --    38 C    0.976
    68   6 C    3.922 --   106 C    1.366    69 C    1.344   108 H    0.971
    69   6 C    3.903 --    68 C    1.344    70 C    1.232    73 N    1.169
    70   6 C    3.952 --    71 C    1.591    69 C    1.232   109 H    0.977
    71   6 C    3.959 --    70 C    1.591    72 C    1.238   110 H    0.974
    72   6 C    3.894 --    74 C    1.298    71 C    1.238    73 N    1.177
    73   7 N    3.469 --    72 C    1.177    69 C    1.169   111 H    0.873
    74   6 C    3.939 --    83 C    1.335    72 C    1.298    75 C    1.035
    75   6 C    3.988 --    76 C    1.383    82 C    1.375    74 C    1.035
    76   6 C    3.988 --    77 C    1.465    75 C    1.383   112 H    0.972
    77   6 C    3.990 --    76 C    1.465    78 C    1.353   113 H    0.970
    78   6 C    3.952 --    77 C    1.353    81 C    1.345    79 N    1.110
    79   7 N    3.180 --    78 C    1.110    80 C    0.971   114 H    0.931
    80   6 C    3.968 --   116 H    0.990   117 H    0.986   115 H    0.984
                            79 N    0.971
    81   6 C    3.989 --    82 C    1.476    78 C    1.345   118 H    0.971
    82   6 C    3.987 --    81 C    1.476    75 C    1.375   119 H    0.973
    83   6 C    3.913 --    74 C    1.335    86 N    1.284    84 C    1.127
    84   6 C    3.966 --    85 C    1.708    83 C    1.127   120 H    0.974
    85   6 C    3.963 --    84 C    1.708    87 C    1.130   121 H    0.974
    86   7 N    3.020 --    87 C    1.346    83 C    1.284
    87   6 C    3.908 --    86 N    1.346    88 C    1.251    85 C    1.130
    88   6 C    3.934 --    87 C    1.251    89 C    1.248   150 C    1.196
    89   6 C    3.885 --    90 C    1.251    88 C    1.248    93 N    1.191
    90   6 C    3.958 --    91 C    1.579    89 C    1.251   122 H    0.975
    91   6 C    3.955 --    90 C    1.579    92 C    1.244   123 H    0.974
    92   6 C    3.897 --    94 C    1.306    91 C    1.244    93 N    1.164
    93   7 N    3.473 --    89 C    1.191    92 C    1.164   124 H    0.873
    94   6 C    3.924 --   103 C    1.316    92 C    1.306    95 C    1.039
    95   6 C    3.987 --    96 C    1.382   102 C    1.372    94 C    1.039
    96   6 C    3.987 --    97 C    1.465    95 C    1.382   125 H    0.972
    97   6 C    3.989 --    96 C    1.465    98 C    1.352   126 H    0.970
    98   6 C    3.951 --    97 C    1.352   101 C    1.344    99 N    1.111
    99   7 N    3.181 --    98 C    1.111   100 C    0.971   127 H    0.931
   100   6 C    3.968 --   130 H    0.990   128 H    0.986   129 H    0.984
                            99 N    0.971
   101   6 C    3.989 --   102 C    1.478    98 C    1.344   131 H    0.971
   102   6 C    3.986 --   101 C    1.478    95 C    1.372   132 H    0.973
   103   6 C    3.927 --   107 N    1.319    94 C    1.316   104 C    1.120
   104   6 C    3.967 --   105 C    1.719   103 C    1.120   133 H    0.973
   105   6 C    3.966 --   104 C    1.719   106 C    1.119   134 H    0.976
   106   6 C    3.930 --    68 C    1.366   107 N    1.298   105 C    1.119
   107   7 N    3.010 --   103 C    1.319   106 C    1.298
   108   1 H    1.002 --    68 C    0.971
   109   1 H    0.998 --    70 C    0.977
   110   1 H    1.006 --    71 C    0.974
   111   1 H    0.986 --    73 N    0.873
   112   1 H    1.005 --    76 C    0.972
   113   1 H    1.001 --    77 C    0.970
   114   1 H    0.966 --    79 N    0.931
   115   1 H    1.003 --    80 C    0.984
   116   1 H    1.007 --    80 C    0.990
   117   1 H    1.012 --    80 C    0.986
   118   1 H    0.999 --    81 C    0.971
   119   1 H    1.005 --    82 C    0.973
   120   1 H    1.005 --    84 C    0.974
   121   1 H    1.003 --    85 C    0.974
   122   1 H    1.002 --    90 C    0.975
   123   1 H    1.006 --    91 C    0.974
   124   1 H    0.988 --    93 N    0.873
   125   1 H    1.006 --    96 C    0.972
   126   1 H    1.001 --    97 C    0.970
   127   1 H    0.965 --    99 N    0.931
   128   1 H    1.012 --   100 C    0.986
   129   1 H    1.003 --   100 C    0.984
   130   1 H    1.007 --   100 C    0.990
   131   1 H    0.999 --   101 C    0.971
   132   1 H    1.005 --   102 C    0.973
   133   1 H    1.006 --   104 C    0.973
   134   1 H    0.999 --   105 C    0.976
   135   6 C    3.875 --   136 C    2.432    21 C    1.196   138 C    0.186
   136   6 C    3.931 --   135 C    2.432   137 C    1.349
   137   6 C    3.890 --   138 C    2.329   136 C    1.349   140 C    0.181
   138   6 C    3.923 --   137 C    2.329   139 C    1.374   135 C    0.186
   139   6 C    3.922 --   140 C    2.328   138 C    1.374   142 C    0.185
   140   6 C    3.891 --   139 C    2.328   141 C    1.350   137 C    0.181
   141   6 C    3.928 --   142 C    2.429   140 C    1.350
   142   6 C    3.876 --   141 C    2.429   151 C    1.199   139 C    0.185
   143   6 C    3.876 --   144 C    2.429   171 C    1.199   146 C    0.185
   144   6 C    3.928 --   143 C    2.429   145 C    1.350
   145   6 C    3.891 --   146 C    2.328   144 C    1.350   148 C    0.181
   146   6 C    3.922 --   145 C    2.328   147 C    1.374   143 C    0.185
   147   6 C    3.923 --   148 C    2.329   146 C    1.374   150 C    0.186
   148   6 C    3.890 --   147 C    2.329   149 C    1.349   145 C    0.181
   149   6 C    3.931 --   150 C    2.432   148 C    1.349
   150   6 C    3.875 --   149 C    2.432    88 C    1.196   147 C    0.186
   151   6 C    3.921 --   189 C    1.251   152 C    1.243   142 C    1.199
   152   6 C    3.886 --   153 C    1.256   151 C    1.243   156 N    1.190
   153   6 C    3.955 --   154 C    1.573   152 C    1.256   191 H    0.975
   154   6 C    3.956 --   153 C    1.573   155 C    1.250   192 H    0.974
   155   6 C    3.891 --   157 C    1.295   154 C    1.250   156 N    1.166
   156   7 N    3.470 --   152 C    1.190   155 C    1.166   193 H    0.874
   157   6 C    3.927 --   166 C    1.336   155 C    1.295   158 C    1.036
   158   6 C    3.987 --   165 C    1.384   159 C    1.372   157 C    1.036
   159   6 C    3.988 --   160 C    1.478   158 C    1.372   194 H    0.972
   160   6 C    3.989 --   159 C    1.478   161 C    1.343   195 H    0.971
   161   6 C    3.952 --   164 C    1.352   160 C    1.343   162 N    1.112
   162   7 N    3.182 --   161 C    1.112   163 C    0.971   196 H    0.931
   163   6 C    3.968 --   198 H    0.990   199 H    0.986   197 H    0.984
                           162 N    0.971
   164   6 C    3.989 --   165 C    1.465   161 C    1.352   200 H    0.970
   165   6 C    3.987 --   164 C    1.465   158 C    1.384   201 H    0.973
   166   6 C    3.914 --   157 C    1.336   169 N    1.284   167 C    1.127
   167   6 C    3.966 --   168 C    1.706   166 C    1.127   202 H    0.973
   168   6 C    3.963 --   167 C    1.706   170 C    1.131   203 H    0.974
   169   7 N    3.007 --   170 C    1.345   166 C    1.284
   170   6 C    3.908 --   169 N    1.345   171 C    1.250   168 C    1.131
   171   6 C    3.921 --   170 C    1.250   172 C    1.243   143 C    1.199
   172   6 C    3.886 --   173 C    1.256   171 C    1.243   176 N    1.190
   173   6 C    3.955 --   174 C    1.573   172 C    1.256   204 H    0.975
   174   6 C    3.956 --   173 C    1.573   175 C    1.250   205 H    0.974
   175   6 C    3.891 --   177 C    1.296   174 C    1.250   176 N    1.165
   176   7 N    3.470 --   172 C    1.190   175 C    1.165   206 H    0.874
   177   6 C    3.927 --   186 C    1.336   175 C    1.296   178 C    1.035
   178   6 C    3.987 --   179 C    1.383   185 C    1.374   177 C    1.035
   179   6 C    3.988 --   180 C    1.465   178 C    1.383   207 H    0.972
   180   6 C    3.989 --   179 C    1.465   181 C    1.352   208 H    0.970
   181   6 C    3.952 --   180 C    1.352   184 C    1.344   182 N    1.111
   182   7 N    3.181 --   181 C    1.111   183 C    0.971   209 H    0.931
   183   6 C    3.967 --   211 H    0.990   210 H    0.986   212 H    0.984
                           182 N    0.971
   184   6 C    3.989 --   185 C    1.477   181 C    1.344   213 H    0.971
   185   6 C    3.987 --   184 C    1.477   178 C    1.374   214 H    0.973
   186   6 C    3.914 --   177 C    1.336   190 N    1.284   187 C    1.127
   187   6 C    3.966 --   188 C    1.706   186 C    1.127   215 H    0.974
   188   6 C    3.963 --   187 C    1.706   189 C    1.131   216 H    0.974
   189   6 C    3.908 --   190 N    1.345   151 C    1.251   188 C    1.131
   190   7 N    3.007 --   189 C    1.345   186 C    1.284
   191   1 H    1.002 --   153 C    0.975
   192   1 H    1.006 --   154 C    0.974
   193   1 H    0.987 --   156 N    0.874
   194   1 H    1.005 --   159 C    0.972
   195   1 H    0.999 --   160 C    0.971
   196   1 H    0.965 --   162 N    0.931
   197   1 H    1.003 --   163 C    0.984
   198   1 H    1.007 --   163 C    0.990
   199   1 H    1.012 --   163 C    0.986
   200   1 H    1.001 --   164 C    0.970
   201   1 H    1.005 --   165 C    0.973
   202   1 H    1.006 --   167 C    0.973
   203   1 H    1.003 --   168 C    0.974
   204   1 H    1.002 --   173 C    0.975
   205   1 H    1.005 --   174 C    0.974
   206   1 H    0.987 --   176 N    0.874
   207   1 H    1.005 --   179 C    0.972
   208   1 H    1.001 --   180 C    0.970
   209   1 H    0.965 --   182 N    0.931
   210   1 H    1.012 --   183 C    0.986
   211   1 H    1.007 --   183 C    0.990
   212   1 H    1.003 --   183 C    0.984
   213   1 H    0.999 --   184 C    0.971
   214   1 H    1.005 --   185 C    0.973
   215   1 H    1.006 --   187 C    0.974
   216   1 H    1.003 --   188 C    0.974
 ---------------------------------------------------------------------------

           -------------------------------------------------
          | TOTAL ENERGY             -349.570866731303 Eh   |
          | GRADIENT NORM               0.000883435492 Eh/α |
          | HOMO-LUMO GAP               0.818544220414 eV   |
           -------------------------------------------------

 * finished run on 2022/07/31 at 09:27:53.019
