   * xtb version 6.5.1 (b24c23e) compiled by 'conda@728c89f4b128' on 2022-07-12
          program call               : xtb Zn_Ph2Me_C8_2.xyz --gfn 1 --opt -T 48

   ID    Z sym.   atoms
    1   30 Zn     1, 69
    2    6 C      2-6, 8-11, 13-31, 34-41, 70-74, 76-79, 81-99, 102-109,
                  137-144
    3    7 N      7, 12, 32, 33, 75, 80, 100, 101
    4    1 H      42-68, 110-136
########################################################################
[WARNING] Please study the warnings concerning your input carefully
-1- prog_main_parseArguments: Unknown option '-T' provided
########################################################################

          :  Hamiltonian                  GFN1-xTB          :
 * total energy  :  -224.2136461 Eh     change       -0.4371032E-08 Eh
 * total energy  :  -224.9762613 Eh     change       -0.7626152E+00 Eh
 * total energy  :  -225.1050420 Eh     change       -0.1287807E+00 Eh
 * total energy  :  -225.1552235 Eh     change       -0.5018145E-01 Eh
 * total energy  :  -225.1738158 Eh     change       -0.1859236E-01 Eh
 * total energy  :  -225.1836083 Eh     change       -0.9792431E-02 Eh
 * total energy  :  -225.1910795 Eh     change       -0.7471252E-02 Eh
 * total energy  :  -225.1972923 Eh     change       -0.6212789E-02 Eh
 * total energy  :  -225.2018150 Eh     change       -0.4522663E-02 Eh
 * total energy  :  -225.2050625 Eh     change       -0.3247505E-02 Eh
 * total energy  :  -225.2176198 Eh     change       -0.3060417E-04 Eh
 * total energy  :  -225.2176399 Eh     change       -0.2013124E-04 Eh
 * total energy  :  -225.2176630 Eh     change       -0.2300920E-04 Eh
 * total energy  :  -225.2176922 Eh     change       -0.2922102E-04 Eh
 * total energy  :  -225.2177178 Eh     change       -0.2559249E-04 Eh
 * total energy  :  -225.2177324 Eh     change       -0.1466113E-04 Eh
 * total energy  :  -225.2177406 Eh     change       -0.8125652E-05 Eh
 * total energy  :  -225.2177456 Eh     change       -0.5078219E-05 Eh
 * total energy  :  -225.2177499 Eh     change       -0.4240977E-05 Eh
   *** GEOMETRY OPTIMIZATION CONVERGED AFTER 63 ITERATIONS ***

 final structure:
================
144
 xtb: 6.5.1 (b24c23e)
Zn          12.92247800256130        0.02026534094438       -0.03584515900828
C            9.53423596648174        0.20220604230678       -0.36898630207094
C           10.18169211934606        1.37143523065556        0.01275165927041
C            9.53018067224608        2.61677651570215        0.30821613870526
C           10.49980997568000        3.49978804964419        0.65559355008392
C           11.75788210978031        2.80717604845070        0.56590872216607
N           11.52861658749405        1.51806812505052        0.18200597174955
C           13.01289344941472        3.36027875108127        0.84834427354242
C           14.23374826268407        2.67965160453189        0.79437661308597
C           15.52337185786378        3.27013270147790        1.02508750909642
C           16.44798905269680        2.29012668597990        0.86001057393638
N           14.40116451708627        1.35616733698410        0.48366218145576
C           15.73464908516955        1.09368967861754        0.52158594187197
C           16.33993382004410       -0.15170771111483        0.25787934154180
C           15.66554041301051       -1.33721991182019       -0.09744688342375
C           16.30869812210611       -2.58837428280270       -0.37306436122982
C           15.33156293749360       -3.47510948548669       -0.69155946945563
C           14.07961730950502       -2.77448224109531       -0.60853157655527
C           12.82560788006053       -3.32615670880056       -0.89018496870591
C           12.78722735518383       -4.76675800595828       -1.25046848754492
C           12.35107933486048       -5.16686265371990       -2.51171738763699
C           12.32518548202974       -6.51509553687758       -2.85653711731479
C           11.84252422804791       -6.93491753583594       -4.21895466683215
C           12.73333126233011       -7.46454386387549       -1.92621735263738
C           13.16816852456401       -7.08091775587427       -0.65980918080273
C           13.62266324321034       -8.12105228385210        0.32858248755970
C           13.19532739636003       -5.73148400094526       -0.32896985430660
C           11.60704494895024       -2.63701614485201       -0.86520176824641
C           10.31509756558689       -3.21431743469138       -1.12613832709280
C            9.39781529900521       -2.22465338790238       -0.98578705766985
C           10.11575340632007       -1.03344331484000       -0.62753736320498
N           11.45001056307508       -1.31614378018401       -0.56123468713394
N           14.32145582921773       -1.47524092547520       -0.24840836020257
C           13.05473660382033        4.79330077235791        1.23613279570789
C           12.62746210746174        5.77813383399982        0.34619485864159
C           12.67230243060015        7.12119296138792        0.70354491444909
C           12.23590136856237        8.18340484512757       -0.26931924383686
C           13.14698806142072        7.47703263869161        1.96279955174735
C           13.57561917241728        6.50629061337045        2.86277475604390
C           14.06662153730942        6.89908165367203        4.23017900085731
C           13.52758191380280        5.16616149162725        2.49355112130439
H            8.45398838570521        0.25695611242859       -0.46341386305120
H            8.46493625684937        2.78103130444262        0.26053467444077
H           10.37795592378030        4.52776561577936        0.95765995774896
H           15.69829908058688        4.30600889232367        1.26737935771616
H           17.51992626648828        2.36470128803922        0.95173136891004
H           17.37295224693093       -2.75768521164379       -0.33096962862938
H           15.44727133750041       -4.50978592750850       -0.97162422825130
H           12.04806799061101       -4.41704738813261       -3.23458125693111
H           12.19726350112154       -7.93517642201183       -4.46752450536441
H           10.75037472606212       -6.94395564787579       -4.24015209649809
H           12.18871644053267       -6.23771887846246       -4.98271749459809
H           12.71467654904444       -8.51731161761758       -2.18900541673914
H           13.65965310573089       -7.71113256806894        1.33782379168250
H           12.95004302723133       -8.97966389555214        0.32109899360245
H           14.62230585020900       -8.47352635894037        0.06461483918098
H           13.52201472389513       -5.42033730570791        0.65737947661951
H           10.13666859101296       -4.24850095982868       -1.37407744795645
H            8.32723469752393       -2.28613944302678       -1.10466603415095
H           12.27478830318192        5.49011599924810       -0.63820127234532
H           11.75694788582907        9.01267314623770        0.25216300687587
H           11.53897776237840        7.77746899994011       -1.00264311698272
H           13.10368347755810        8.57609464475138       -0.80427705715216
H           13.18405080656217        8.52422801419680        2.24517907380321
H           13.23021332229552        6.92281737453922        4.93255998809253
H           14.52068535933266        7.89005775730906        4.20999256696530
H           14.79969666578884        6.18192807398080        4.60014817990412
H           13.84679406652877        4.39973203376159        3.19145892841095
Zn          31.48872299577284        0.02693104032626       -0.03232056231974
C           34.87789055623352        0.28844482491416       -0.29683485747309
C           34.22929064978426       -0.39820575094174       -1.31656411382568
C           34.87965082510186       -1.02480478845482       -2.43332129247007
C           33.90916136351223       -1.60090780281617       -3.18618435974751
C           32.65182820766886       -1.32436175182157       -2.54346844149814
N           32.88217067194858       -0.60018223893942       -1.41023282561840
C           31.39685703259115       -1.75094761485301       -2.99460921546121
C           30.17656446341483       -1.51237479767094       -2.35407654166123
C           28.88723742561257       -1.90301137017656       -2.85407779626760
C           27.96278218467694       -1.47080244687047       -1.95898086859614
N           30.00927502055833       -0.84294702890554       -1.17083833532737
C           28.67600674181223       -0.80786324600776       -0.90695286483972
C           28.07087259744322       -0.20364659008327        0.21359303202607
C           28.74539734041533        0.47138910271870        1.25085124117127
C           28.10204037650467        1.09063270285718        2.37228122503144
C           29.07947726544350        1.64294564722573        3.13523305145513
C           30.33185555737443        1.36141723907043        2.48913055181962
C           31.58680813612573        1.77980693648418        2.94355538441263
C           31.62542130172409        2.52662220764017        4.22694599112094
C           32.07328613144458        3.84543089761736        4.26293718737888
C           32.09906940461399        4.55136633156767        5.46224294188406
C           32.59500406923805        5.97220532732503        5.48940118764727
C           31.67836222033760        3.92581241122884        6.63065995125905
C           31.23158865838681        2.60668059652928        6.61197519129606
C           30.76310317524638        1.95090758178921        7.88310554251678
C           31.20536667376189        1.91365848620895        5.40777890096073
C           32.80597630341506        1.55740843165936        2.29185827139006
C           34.09896718593066        1.96097101195688        2.77751975036704
C           35.01614989900655        1.54823182593504        1.86705168166987
C           34.29708799068671        0.87871249918194        0.81945911486220
N           32.96235594281730        0.89912865609818        1.10696127955486
N           30.08985486469772        0.65141521565830        1.34302577990388
C           31.35503536157852       -2.52230899366841       -4.26326497640947
C           31.77084040448987       -1.93755139810089       -5.45885057328054
C           31.72660736663716       -2.65498995965889       -6.64920299668155
C           32.14937263250502       -2.01186197676563       -7.94259700823537
C           31.26529835798674       -3.96827829784959       -6.63791898338944
C           30.84863910065933       -4.56665377828844       -5.45286676134167
C           30.37330698389625       -5.99463494136049       -5.44663799431173
C           30.89469927194258       -3.83818838517183       -4.26886816880737
H           35.95841147157207        0.36113677533845       -0.37455712699161
H           35.94474750527066       -1.02446546815497       -2.60526670445644
H           34.02972633001742       -2.17333601998390       -4.09207838701667
H           28.71254057947686       -2.42796276325808       -3.77943361199113
H           26.89103382568400       -1.58229894504619       -2.00335590168412
H           27.03746848149581        1.10154617881670        2.54447261893862
H           28.96352263873959        2.20392527116792        4.04859118679400
H           32.38557804780946        4.32862657817658        3.34338438740988
H           32.24017918147813        6.49244316969329        6.37912878964519
H           33.68730188931804        5.98474788037486        5.49833715886936
H           32.25891136048125        6.51525671860535        4.60543367021900
H           31.69652436805000        4.47103592076395        7.56880331724444
H           30.71543504278285        0.86796614613559        7.76931234253578
H           31.43352207506577        2.18951004769126        8.70969396178308
H           29.76569293239703        2.31281215841254        8.14270204243374
H           30.86982032214355        0.88255133857252        5.38157960844305
H           34.27810018476985        2.48363716492712        3.70357086901495
H           36.08733599131242        1.67395248088747        1.89567560481443
H           32.11422311973973       -0.90873747106163       -5.45775392963117
H           32.63000449831326       -2.73915198881045       -8.59762521157125
H           32.84072506607309       -1.18891318983565       -7.76084302754635
H           31.27483318088471       -1.61413701925491       -8.46264405442820
H           31.22945637746118       -4.53150969263115       -7.56486576305749
H           31.21791862168497       -6.66632100036825       -5.27644129318169
H           29.91863605807314       -6.25697980621565       -6.40217374453951
H           29.64499296988825       -6.15785270706185       -4.65197123779000
H           30.58407828466328       -4.29786650743567       -3.33688326487911
C           17.74159913598030       -0.21033401548565        0.33473100827698
C           18.96448132214119       -0.25377215706698        0.38272613408398
C           20.30621975216387       -0.28915613410530        0.41431271308089
C           21.53656167218445       -0.31110288349486        0.42623167936283
C           22.87438637616888       -0.31978028724762        0.41824083590898
C           24.10472006491699       -0.31600829621792        0.39366529838461
C           25.44639111430399       -0.29438600954426        0.34901361638201
C           26.66923732078369       -0.26097887207822        0.29205352167696

          :  Hamiltonian                  GFN1-xTB          :
         :: total energy            -225.217749872756 Eh    ::
         :: gradient norm              0.000331878521 Eh/a0 ::
         :: HOMO-LUMO gap              1.151993350653 eV    ::
         :: SCC energy              -229.013368064597 Eh    ::
         :: repulsion energy           3.915854497956 Eh    ::

    * Orbital Energies and Occupations

         #    Occupation            Energy/Eh            Energy/eV
      -------------------------------------------------------------
         1        2.0000           -0.7561270             -20.5753
       ...           ...                  ...                  ...
       197        2.0000           -0.4180885             -11.3768
       198        2.0000           -0.4180793             -11.3765
       199        2.0000           -0.4172956             -11.3552
       200        2.0000           -0.4172301             -11.3534
       201        2.0000           -0.4170553             -11.3487
       202        2.0000           -0.4170305             -11.3480
       203        2.0000           -0.4170258             -11.3478
       204        2.0000           -0.4068508             -11.0710
       205        2.0000           -0.4018100             -10.9338
       206        2.0000           -0.3896830             -10.6038
       207        2.0000           -0.3896820             -10.6038
       208        2.0000           -0.3798505             -10.3363
       209        2.0000           -0.3738193             -10.1721 (HOMO)
       210                         -0.3314843              -9.0201 (LUMO)
       211                         -0.3244921              -8.8299
       212                         -0.3219895              -8.7618
       213                         -0.3219809              -8.7615
       214                         -0.2954358              -8.0392
       215                         -0.2940644              -8.0019
       216                         -0.2831518              -7.7050
       217                         -0.2699752              -7.3464
       218                         -0.2551455              -6.9429
       219                         -0.2551303              -6.9424
       220                         -0.2548503              -6.9348
       ...                                ...                  ...
       468                          1.6133609              43.9018
      -------------------------------------------------------------
                  HL-Gap            0.0423350 Eh            1.1520 eV

Wiberg/Mayer (AO) data.
largest (>0.10) Wiberg bond orders for each atom

     #   Z sym  total        # sym  WBO       # sym  WBO       # sym  WBO
 ---------------------------------------------------------------------------
     1  30 Zn   1.999 --    32 N    0.460     7 N    0.460    33 N    0.456
                            12 N    0.456
     2   6 C    3.927 --    31 C    1.357     3 C    1.357    42 H    0.971
     3   6 C    3.923 --     2 C    1.357     7 N    1.233     4 C    1.171
     4   6 C    3.960 --     5 C    1.658     3 C    1.171    43 H    0.976
     5   6 C    3.963 --     4 C    1.658     6 C    1.173    44 H    0.973
     6   6 C    3.918 --     8 C    1.313     7 N    1.244     5 C    1.173
     7   7 N    3.294 --     6 C    1.244     3 C    1.233     1 Zn   0.460
     8   6 C    3.934 --     9 C    1.325     6 C    1.313    34 C    1.026
     9   6 C    3.913 --     8 C    1.325    12 N    1.224    10 C    1.179
    10   6 C    3.960 --    11 C    1.646     9 C    1.179    45 H    0.973
    11   6 C    3.962 --    10 C    1.646    13 C    1.186    46 H    0.974
    12   7 N    3.297 --    13 C    1.264     9 C    1.224     1 Zn   0.456
    13   6 C    3.902 --    12 N    1.264    14 C    1.253    11 C    1.186
    14   6 C    3.939 --    15 C    1.253    13 C    1.253   137 C    1.192
    15   6 C    3.902 --    33 N    1.264    14 C    1.253    16 C    1.186
    16   6 C    3.962 --    17 C    1.647    15 C    1.186    47 H    0.974
    17   6 C    3.960 --    16 C    1.647    18 C    1.179    48 H    0.973
    18   6 C    3.913 --    19 C    1.326    33 N    1.224    17 C    1.179
    19   6 C    3.934 --    18 C    1.326    28 C    1.314    20 C    1.025
    20   6 C    3.988 --    21 C    1.402    27 C    1.392    19 C    1.025
                            24 C    0.103
    21   6 C    3.986 --    22 C    1.412    20 C    1.402    49 H    0.972
                            25 C    0.104
    22   6 C    3.988 --    24 C    1.421    21 C    1.412    23 C    1.019
                            27 C    0.103
    23   6 C    3.996 --    22 C    1.019    50 H    0.984    52 H    0.981
                            51 H    0.972
    24   6 C    3.988 --    22 C    1.421    25 C    1.409    53 H    0.972
                            20 C    0.103
    25   6 C    3.988 --    27 C    1.423    24 C    1.409    26 C    1.020
                            21 C    0.104
    26   6 C    3.996 --    25 C    1.020    54 H    0.985    55 H    0.980
                            56 H    0.972
    27   6 C    3.987 --    25 C    1.423    20 C    1.392    57 H    0.972
                            22 C    0.103
    28   6 C    3.918 --    19 C    1.314    32 N    1.244    29 C    1.173
    29   6 C    3.963 --    30 C    1.658    28 C    1.173    58 H    0.973
    30   6 C    3.960 --    29 C    1.658    31 C    1.171    59 H    0.976
    31   6 C    3.923 --     2 C    1.357    32 N    1.233    30 C    1.171
    32   7 N    3.294 --    28 C    1.244    31 C    1.233     1 Zn   0.460
    33   7 N    3.297 --    15 C    1.264    18 C    1.224     1 Zn   0.456
    34   6 C    3.988 --    41 C    1.397    35 C    1.395     8 C    1.026
                            38 C    0.103
    35   6 C    3.986 --    36 C    1.419    34 C    1.395    60 H    0.972
                            39 C    0.103
    36   6 C    3.988 --    35 C    1.419    38 C    1.414    37 C    1.020
                            41 C    0.103
    37   6 C    3.996 --    36 C    1.020    62 H    0.984    61 H    0.982
                            63 H    0.971
    38   6 C    3.988 --    39 C    1.416    36 C    1.414    64 H    0.972
                            34 C    0.103
    39   6 C    3.988 --    38 C    1.416    41 C    1.416    40 C    1.020
                            35 C    0.103
    40   6 C    3.996 --    39 C    1.020    66 H    0.983    67 H    0.983
                            65 H    0.971
    41   6 C    3.986 --    39 C    1.416    34 C    1.397    68 H    0.972
                            36 C    0.103
    42   1 H    1.002 --     2 C    0.971
    43   1 H    0.998 --     4 C    0.976
    44   1 H    1.006 --     5 C    0.973
    45   1 H    1.005 --    10 C    0.973
    46   1 H    1.002 --    11 C    0.974
    47   1 H    1.002 --    16 C    0.974
    48   1 H    1.005 --    17 C    0.973
    49   1 H    1.003 --    21 C    0.972
    50   1 H    1.004 --    23 C    0.984
    51   1 H    1.006 --    23 C    0.972
    52   1 H    1.005 --    23 C    0.981
    53   1 H    1.000 --    24 C    0.972
    54   1 H    1.004 --    26 C    0.985
    55   1 H    1.005 --    26 C    0.980
    56   1 H    1.006 --    26 C    0.972
    57   1 H    1.003 --    27 C    0.972
    58   1 H    1.005 --    29 C    0.973
    59   1 H    0.998 --    30 C    0.976
    60   1 H    1.003 --    35 C    0.972
    61   1 H    1.005 --    37 C    0.982
    62   1 H    1.004 --    37 C    0.984
    63   1 H    1.006 --    37 C    0.971
    64   1 H    1.000 --    38 C    0.972
    65   1 H    1.006 --    40 C    0.971
    66   1 H    1.004 --    40 C    0.983
    67   1 H    1.004 --    40 C    0.983
    68   1 H    1.003 --    41 C    0.972
    69  30 Zn   1.999 --   100 N    0.460    75 N    0.460   101 N    0.457
                            80 N    0.456
    70   6 C    3.927 --    99 C    1.357    71 C    1.357   110 H    0.971
    71   6 C    3.923 --    70 C    1.357    75 N    1.233    72 C    1.171
    72   6 C    3.960 --    73 C    1.658    71 C    1.171   111 H    0.976
    73   6 C    3.963 --    72 C    1.658    74 C    1.173   112 H    0.973
    74   6 C    3.918 --    76 C    1.314    75 N    1.244    73 C    1.173
    75   7 N    3.294 --    74 C    1.244    71 C    1.233    69 Zn   0.460
    76   6 C    3.934 --    77 C    1.325    74 C    1.314   102 C    1.025
    77   6 C    3.913 --    76 C    1.325    80 N    1.224    78 C    1.179
    78   6 C    3.960 --    79 C    1.647    77 C    1.179   113 H    0.973
    79   6 C    3.962 --    78 C    1.647    81 C    1.186   114 H    0.974
    80   7 N    3.297 --    81 C    1.264    77 C    1.224    69 Zn   0.456
    81   6 C    3.902 --    80 N    1.264    82 C    1.253    79 C    1.186
    82   6 C    3.939 --    83 C    1.253    81 C    1.253   144 C    1.192
    83   6 C    3.902 --   101 N    1.263    82 C    1.253    84 C    1.186
    84   6 C    3.962 --    85 C    1.647    83 C    1.186   115 H    0.974
    85   6 C    3.960 --    84 C    1.647    86 C    1.179   116 H    0.973
    86   6 C    3.913 --    87 C    1.325   101 N    1.224    85 C    1.179
    87   6 C    3.934 --    86 C    1.325    96 C    1.314    88 C    1.025
    88   6 C    3.988 --    89 C    1.402    95 C    1.391    87 C    1.025
                            92 C    0.103
    89   6 C    3.986 --    90 C    1.412    88 C    1.402   117 H    0.972
                            93 C    0.104
    90   6 C    3.988 --    92 C    1.421    89 C    1.412    91 C    1.019
                            95 C    0.103
    91   6 C    3.996 --    90 C    1.019   118 H    0.984   120 H    0.981
                           119 H    0.972
    92   6 C    3.988 --    90 C    1.421    93 C    1.409   121 H    0.972
                            88 C    0.103
    93   6 C    3.988 --    95 C    1.423    92 C    1.409    94 C    1.020
                            89 C    0.104
    94   6 C    3.996 --    93 C    1.020   122 H    0.985   123 H    0.980
                           124 H    0.972
    95   6 C    3.986 --    93 C    1.423    88 C    1.391   125 H    0.971
                            90 C    0.103
    96   6 C    3.918 --    87 C    1.314   100 N    1.244    97 C    1.173
    97   6 C    3.963 --    98 C    1.658    96 C    1.173   126 H    0.973
    98   6 C    3.960 --    97 C    1.658    99 C    1.171   127 H    0.976
    99   6 C    3.923 --    70 C    1.357   100 N    1.233    98 C    1.171
   100   7 N    3.294 --    96 C    1.244    99 C    1.233    69 Zn   0.460
   101   7 N    3.297 --    83 C    1.263    86 C    1.224    69 Zn   0.457
   102   6 C    3.988 --   109 C    1.398   103 C    1.396    76 C    1.025
                           106 C    0.103
   103   6 C    3.986 --   104 C    1.419   102 C    1.396   128 H    0.972
                           107 C    0.103
   104   6 C    3.988 --   103 C    1.419   106 C    1.414   105 C    1.020
                           109 C    0.104
   105   6 C    3.996 --   104 C    1.020   130 H    0.984   129 H    0.982
                           131 H    0.971
   106   6 C    3.988 --   107 C    1.417   104 C    1.414   132 H    0.972
                           102 C    0.103
   107   6 C    3.988 --   106 C    1.417   109 C    1.416   108 C    1.020
                           103 C    0.103
   108   6 C    3.996 --   107 C    1.020   134 H    0.983   135 H    0.983
                           133 H    0.971
   109   6 C    3.986 --   107 C    1.416   102 C    1.398   136 H    0.972
                           104 C    0.104
   110   1 H    1.002 --    70 C    0.971
   111   1 H    0.998 --    72 C    0.976
   112   1 H    1.005 --    73 C    0.973
   113   1 H    1.005 --    78 C    0.973
   114   1 H    1.002 --    79 C    0.974
   115   1 H    1.002 --    84 C    0.974
   116   1 H    1.005 --    85 C    0.973
   117   1 H    1.003 --    89 C    0.972
   118   1 H    1.004 --    91 C    0.984
   119   1 H    1.006 --    91 C    0.972
   120   1 H    1.005 --    91 C    0.981
   121   1 H    1.000 --    92 C    0.972
   122   1 H    1.004 --    94 C    0.985
   123   1 H    1.005 --    94 C    0.980
   124   1 H    1.006 --    94 C    0.972
   125   1 H    1.003 --    95 C    0.971
   126   1 H    1.005 --    97 C    0.973
   127   1 H    0.998 --    98 C    0.976
   128   1 H    1.003 --   103 C    0.972
   129   1 H    1.005 --   105 C    0.982
   130   1 H    1.004 --   105 C    0.984
   131   1 H    1.006 --   105 C    0.971
   132   1 H    1.000 --   106 C    0.972
   133   1 H    1.006 --   108 C    0.971
   134   1 H    1.004 --   108 C    0.983
   135   1 H    1.004 --   108 C    0.983
   136   1 H    1.003 --   109 C    0.972
   137   6 C    3.876 --   138 C    2.438    14 C    1.192   140 C    0.186
   138   6 C    3.934 --   137 C    2.438   139 C    1.344
   139   6 C    3.892 --   140 C    2.336   138 C    1.344   142 C    0.182
   140   6 C    3.924 --   139 C    2.336   141 C    1.368   137 C    0.186
   141   6 C    3.924 --   142 C    2.336   140 C    1.368   144 C    0.186
   142   6 C    3.892 --   141 C    2.336   143 C    1.344   139 C    0.182
   143   6 C    3.934 --   144 C    2.438   142 C    1.344
   144   6 C    3.876 --   143 C    2.438    82 C    1.192   141 C    0.186
 ---------------------------------------------------------------------------

           -------------------------------------------------
          | TOTAL ENERGY             -225.217749872756 Eh   |
          | GRADIENT NORM               0.000331878521 Eh/α |
          | HOMO-LUMO GAP               1.151993350653 eV   |
           -------------------------------------------------

 * finished run on 2022/07/30 at 09:52:18.417
