   * xtb version 6.5.1 (b24c23e) compiled by 'conda@728c89f4b128' on 2022-07-12
          program call               : xtb Zn_Ph_C8_2.xyz --gfn 1 --opt -T 48

   ID    Z sym.   atoms
    1   30 Zn     1, 57
    2    6 C      2-6, 8-11, 13-29, 32-37, 58-62, 64-67, 69-85, 88-93, 113-120
    3    7 N      7, 12, 30, 31, 63, 68, 86, 87
    4    1 H      38-56, 94-112
########################################################################
[WARNING] Please study the warnings concerning your input carefully
-1- prog_main_parseArguments: Unknown option '-T' provided
########################################################################

          :  Hamiltonian                  GFN1-xTB          :
 * total energy  :  -199.2825558 Eh     change       -0.7673862E-11 Eh
 * total energy  :  -199.4815237 Eh     change       -0.1989679E+00 Eh
 * total energy  :  -199.5394999 Eh     change       -0.5797623E-01 Eh
 * total energy  :  -199.5575769 Eh     change       -0.1807697E-01 Eh
 * total energy  :  -199.5646767 Eh     change       -0.7099781E-02 Eh
 * total energy  :  -199.5680741 Eh     change       -0.3397425E-02 Eh
 * total energy  :  -199.5687929 Eh     change       -0.7187511E-03 Eh
 * total energy  :  -199.5712619 Eh     change       -0.2469062E-02 Eh
 * total energy  :  -199.5721415 Eh     change       -0.8795677E-03 Eh
 * total energy  :  -199.5730037 Eh     change       -0.8621801E-03 Eh
 * total energy  :  -199.5777810 Eh     change       -0.8045374E-04 Eh
 * total energy  :  -199.5778042 Eh     change       -0.2325295E-04 Eh
 * total energy  :  -199.5778400 Eh     change       -0.3577629E-04 Eh
 * total energy  :  -199.5778582 Eh     change       -0.1822684E-04 Eh
 * total energy  :  -199.5778663 Eh     change       -0.8049430E-05 Eh
 * total energy  :  -199.5778731 Eh     change       -0.6801755E-05 Eh
 * total energy  :  -199.5778801 Eh     change       -0.7042754E-05 Eh
 * total energy  :  -199.5778867 Eh     change       -0.6519884E-05 Eh
 * total energy  :  -199.5778893 Eh     change       -0.2622503E-05 Eh
   *** GEOMETRY OPTIMIZATION CONVERGED AFTER 42 ITERATIONS ***

 final structure:
================
120
 xtb: 6.5.1 (b24c23e)
Zn          11.47053269454700       -0.03141538038678       -0.00548874867232
C            8.05945896433446       -0.06004135582215       -0.02253828155640
C            8.68912607196556       -1.29742034678835       -0.08556913026398
C            8.01545503455837       -2.56524693845490       -0.12107384187367
C            8.97466893055668       -3.52362443473898       -0.16340870299679
C           10.24717363255309       -2.85187945063762       -0.16323034426290
N           10.03853073932699       -1.50476860859512       -0.10849608368828
C           11.49808057486925       -3.48051574791897       -0.18658349065767
C           12.73703010449766       -2.83284860862117       -0.14534736504035
C           14.01605250667139       -3.48333760104157       -0.21869616975851
C           14.96290407308102       -2.51225672589746       -0.16279298295275
N           12.93166136104271       -1.47971766487981       -0.05860352690125
C           14.27324422618799       -1.25961466668095       -0.06251740978747
C           14.90496776818780       -0.00105158057201        0.00755504787652
C           14.25126594683974        1.24605401043949        0.07675140000597
C           14.91897150754895        2.51397673987263        0.11757173423428
C           13.95520078680693        3.46879491996551        0.16409072558786
C           12.68752287926772        2.79206313547252        0.16014352600769
C           11.43727782924008        3.41862656154398        0.18200758261959
C           11.42206765801234        4.90161353246949        0.26276852579681
C           10.88065586002631        5.66053998974899       -0.77559531193768
C           10.86803479839961        7.04527275959565       -0.69977680584325
C           11.38970662430229        7.68825151268911        0.41458756299886
C           11.92829770264233        6.94019017690791        1.45289071089500
C           11.94782515219985        5.55554258500884        1.37785770098131
C           10.19770355284193        2.76906217094137        0.13362503115977
C            8.91341035978558        3.41495192512970        0.19979817210891
C            7.97126222057831        2.44083311823563        0.13917802964008
C            8.66717531531520        1.18807709695027        0.04402349478054
N           10.01276644704463        1.42033970141296        0.04630531564147
N           12.90598192912346        1.44111293190621        0.10001810509018
C           11.51053113686708       -4.96385533812313       -0.25989277909489
C           10.97723579571514       -5.62276739643123       -1.36832389047474
C           10.99154093166187       -7.00797086272336       -1.43466054041755
C           11.53219600633910       -7.75135302981229       -0.39424736576100
C           12.06365519510402       -7.10325843384736        0.71254175574969
C           12.05602912446940       -5.71808416506123        0.77977211463881
H            6.97383932939625       -0.07010763698943       -0.01392211649543
H            6.94441181772729       -2.69404958762028       -0.10742374123639
H            8.83802584509081       -4.59307898703284       -0.18139887002042
H           14.16809027170188       -4.54640556520852       -0.31416610070483
H           16.03481578593153       -2.62625436515949       -0.19324933557985
H           15.98891524300771        2.64867578811012        0.10484202671223
H           14.08864710312547        4.53844043631617        0.18638418050028
H           10.48302302044511        5.16016042996486       -1.65159765974076
H           10.44934124515238        7.62497740166710       -1.51494422044750
H           11.37671817923863        8.77069250185635        0.47377184235243
H           12.33498124861880        7.43760364218495        2.32646711642454
H           12.35887618027154        4.97240092885920        2.19451957224500
H            8.75768357576189        4.47789161798893        0.29332987728283
H            6.89808312276376        2.54876044662162        0.16315443941658
H           10.56493343814076       -5.04333938983330       -2.18719411491019
H           10.57861400691605       -7.50943779934653       -2.30325878862313
H           11.54002303238379       -8.83422819638116       -0.44616356567148
H           12.48420607924800       -7.67934216776940        1.52894426283464
H           12.46108356098857       -5.21334301806314        1.64976417801210
Zn          30.08187498080475        0.02826142157806       -0.00397960051102
C           33.49281486873137        0.05868698055648       -0.02087536105035
C           32.86312659466012        1.29762383942945       -0.02845212067913
C           33.53653643531458        2.56589294028802       -0.00698276218585
C           32.57710621812339        3.52499374495294       -0.00682655478866
C           31.30475589725731        2.85362309071226       -0.03753032147728
N           31.51369436025484        1.50547361369402       -0.04256693622281
C           30.05359187007170        3.48223156399521       -0.03499229011598
C           28.81491483771173        2.83271936197622       -0.02358164209026
C           27.53569184799213        3.48521521632337       -0.07105285822085
C           26.58920329904542        2.51227385331868       -0.05778840424021
N           28.62073344828343        1.47701772133124        0.00500862416557
C           27.27925233290390        1.25681977028534       -0.00996589056372
C           26.64755889353992       -0.00369092522201        0.00625069210748
C           27.30118313219296       -1.25258669921037        0.02303710484073
C           26.63376975525915       -2.52126755305235        0.01082601494423
C           27.59779662131560       -3.47694581264905        0.01651665188304
C           28.86532663497329       -2.80033870732766        0.04024753738831
C           30.11583925113683       -3.42672207720533        0.03392267781195
C           30.13208607764294       -4.91181178741472        0.04993817438349
C           30.67358002975693       -5.62415246565943       -1.02091424332740
C           30.68781390995019       -7.01086816638267       -1.00565726311283
C           30.16764467168404       -7.70242927820471        0.07990701130313
C           29.62890291841424       -7.00095686329701        1.15017838747267
C           29.60779324654255       -5.61436203584378        1.13572380089863
C           31.35511659211847       -2.77505317280655        0.01267951923469
C           32.63964152888815       -3.42278926074530        0.04940550675446
C           33.58148068085020       -2.44668126489334        0.03042081431769
C           32.88517034822355       -1.19118435820744       -0.00916386590042
N           31.53963242665932       -1.42372147369434       -0.01588212046587
N           28.64651260415566       -1.44816135481657        0.03753421087832
C           30.04052874514409        4.96727867223070       -0.04399410229708
C           30.57835556211076        5.67395975195368       -1.12039303353078
C           30.56343156354036        7.06072712346286       -1.12676213716492
C           30.01762216702681        7.75801567203292       -0.05763192991797
C           29.48137358006354        7.06227507814233        1.01758664658419
C           29.48983270937216        5.67549593874221        1.02487408162648
H           34.57843563428510        0.06827922404166       -0.01247581790373
H           34.60754291059745        2.69424545131486        0.01295175942707
H           32.71353268857227        4.59419833510597        0.02341562993499
H           27.38327648803331        4.55128751963917       -0.12158020610959
H           25.51729200303422        2.62703702731534       -0.08493262495813
H           25.56384550039221       -2.65551910051093       -0.00688871046406
H           27.46457785809643       -4.54660704034856       -0.00596833177896
H           31.07008588359844       -5.08562497134403       -1.87453276397483
H           31.10655905288102       -7.55396970113358       -1.84564745754170
H           30.18195442402113       -8.78641324228385        0.09177549088288
H           29.22343300013468       -7.53645323668121        2.00150526327125
H           29.19668768483339       -5.06791224909615        1.97735809279853
H           32.79575561776190       -4.48873826697265        0.09642990440010
H           34.65470629828253       -2.55518321832980        0.04859076195883
H           30.99477589805941        5.13083179207276       -1.96178515508502
H           30.98008322870532        7.59959343089086       -1.97084415408355
H           30.00872127487003        8.84211183719047       -0.06264764114501
H           29.05511525627349        7.60230099563881        1.85610268754635
H           29.07987151103862        5.13319830608122        1.87023845023927
C           16.30955590430207        0.00952266687210       -0.00202060871874
C           17.53439743482806        0.00987489172603       -0.00760856954788
C           18.87667990473319        0.00859037539888       -0.01350515004924
C           20.10752681952416        0.00292532730848       -0.01621580275163
C           21.44506427728238       -0.00333465642087       -0.01743127800746
C           22.67589428732770       -0.00949683716292       -0.01515757289031
C           24.01820176113467       -0.01257723613202       -0.01044930665647
C           25.24303422730668       -0.01317153372972       -0.00444065375841

          :  Hamiltonian                  GFN1-xTB          :
         :: total energy            -199.577889279541 Eh    ::
         :: gradient norm              0.000859157217 Eh/a0 ::
         :: HOMO-LUMO gap              1.099299146250 eV    ::
         :: SCC energy              -203.025434517076 Eh    ::
         :: repulsion energy           3.552662462939 Eh    ::

    * Orbital Energies and Occupations

         #    Occupation            Energy/Eh            Energy/eV
      -------------------------------------------------------------
         1        2.0000           -0.7587126             -20.6456
       ...           ...                  ...                  ...
       173        2.0000           -0.4206480             -11.4464
       174        2.0000           -0.4206478             -11.4464
       175        2.0000           -0.4198560             -11.4249
       176        2.0000           -0.4198249             -11.4240
       177        2.0000           -0.4196636             -11.4196
       178        2.0000           -0.4196533             -11.4193
       179        2.0000           -0.4194050             -11.4126
       180        2.0000           -0.4099906             -11.1564
       181        2.0000           -0.4021118             -10.9420
       182        2.0000           -0.3922545             -10.6738
       183        2.0000           -0.3922525             -10.6737
       184        2.0000           -0.3844585             -10.4616
       185        2.0000           -0.3754797             -10.2173 (HOMO)
       186                         -0.3350812              -9.1180 (LUMO)
       187                         -0.3250127              -8.8440
       188                         -0.3247756              -8.8376
       189                         -0.3247645              -8.8373
       190                         -0.2981008              -8.1117
       191                         -0.2950052              -8.0275
       192                         -0.2899494              -7.8899
       193                         -0.2704076              -7.3582
       194                         -0.2625158              -7.1434
       195                         -0.2625143              -7.1434
       196                         -0.2625022              -7.1430
       ...                                ...                  ...
       404                          1.6110221              43.8381
      -------------------------------------------------------------
                  HL-Gap            0.0403985 Eh            1.0993 eV

Wiberg/Mayer (AO) data.
largest (>0.10) Wiberg bond orders for each atom

     #   Z sym  total        # sym  WBO       # sym  WBO       # sym  WBO
 ---------------------------------------------------------------------------
     1  30 Zn   1.997 --     7 N    0.460    30 N    0.459    12 N    0.457
                            31 N    0.456
     2   6 C    3.927 --    29 C    1.357     3 C    1.357    38 H    0.971
     3   6 C    3.922 --     2 C    1.357     7 N    1.233     4 C    1.171
     4   6 C    3.960 --     5 C    1.658     3 C    1.171    39 H    0.976
     5   6 C    3.963 --     4 C    1.658     6 C    1.173    40 H    0.973
     6   6 C    3.918 --     8 C    1.314     7 N    1.244     5 C    1.173
     7   7 N    3.294 --     6 C    1.244     3 C    1.233     1 Zn   0.460
     8   6 C    3.934 --     9 C    1.325     6 C    1.314    32 C    1.026
     9   6 C    3.913 --     8 C    1.325    12 N    1.224    10 C    1.179
    10   6 C    3.960 --    11 C    1.646     9 C    1.179    41 H    0.973
    11   6 C    3.962 --    10 C    1.646    13 C    1.186    42 H    0.974
    12   7 N    3.297 --    13 C    1.264     9 C    1.224     1 Zn   0.457
    13   6 C    3.901 --    12 N    1.264    14 C    1.252    11 C    1.186
    14   6 C    3.938 --    15 C    1.252    13 C    1.252   113 C    1.194
    15   6 C    3.902 --    31 N    1.264    14 C    1.252    16 C    1.186
    16   6 C    3.962 --    17 C    1.647    15 C    1.186    43 H    0.974
    17   6 C    3.960 --    16 C    1.647    18 C    1.179    44 H    0.973
    18   6 C    3.913 --    19 C    1.326    31 N    1.224    17 C    1.179
    19   6 C    3.934 --    18 C    1.326    26 C    1.313    20 C    1.026
    20   6 C    3.988 --    21 C    1.396    25 C    1.396    19 C    1.026
                            23 C    0.108
    21   6 C    3.988 --    22 C    1.447    20 C    1.396    45 H    0.973
                            24 C    0.110
    22   6 C    3.995 --    21 C    1.447    23 C    1.438    46 H    0.973
                            25 C    0.110
    23   6 C    3.990 --    22 C    1.438    24 C    1.438    47 H    0.974
                            20 C    0.108
    24   6 C    3.995 --    25 C    1.447    23 C    1.438    48 H    0.973
                            21 C    0.110
    25   6 C    3.988 --    24 C    1.447    20 C    1.396    49 H    0.973
                            22 C    0.110
    26   6 C    3.918 --    19 C    1.313    30 N    1.245    27 C    1.172
    27   6 C    3.963 --    28 C    1.658    26 C    1.172    50 H    0.973
    28   6 C    3.960 --    27 C    1.658    29 C    1.171    51 H    0.976
    29   6 C    3.922 --     2 C    1.357    30 N    1.233    28 C    1.171
    30   7 N    3.294 --    26 C    1.245    29 C    1.233     1 Zn   0.459
    31   7 N    3.297 --    15 C    1.264    18 C    1.224     1 Zn   0.456
    32   6 C    3.988 --    33 C    1.396    37 C    1.396     8 C    1.026
                            35 C    0.108
    33   6 C    3.988 --    34 C    1.447    32 C    1.396    52 H    0.973
                            36 C    0.110
    34   6 C    3.995 --    33 C    1.447    35 C    1.438    53 H    0.973
                            37 C    0.110
    35   6 C    3.990 --    34 C    1.438    36 C    1.438    54 H    0.974
                            32 C    0.108
    36   6 C    3.995 --    37 C    1.447    35 C    1.438    55 H    0.973
                            33 C    0.110
    37   6 C    3.988 --    36 C    1.447    32 C    1.396    56 H    0.973
                            34 C    0.110
    38   1 H    1.002 --     2 C    0.971
    39   1 H    0.998 --     4 C    0.976
    40   1 H    1.005 --     5 C    0.973
    41   1 H    1.005 --    10 C    0.973
    42   1 H    1.002 --    11 C    0.974
    43   1 H    1.002 --    16 C    0.974
    44   1 H    1.005 --    17 C    0.973
    45   1 H    1.005 --    21 C    0.973
    46   1 H    1.003 --    22 C    0.973
    47   1 H    1.003 --    23 C    0.974
    48   1 H    1.003 --    24 C    0.973
    49   1 H    1.005 --    25 C    0.973
    50   1 H    1.005 --    27 C    0.973
    51   1 H    0.998 --    28 C    0.976
    52   1 H    1.005 --    33 C    0.973
    53   1 H    1.003 --    34 C    0.973
    54   1 H    1.003 --    35 C    0.974
    55   1 H    1.003 --    36 C    0.973
    56   1 H    1.005 --    37 C    0.973
    57  30 Zn   1.997 --    86 N    0.460    63 N    0.459    68 N    0.457
                            87 N    0.456
    58   6 C    3.927 --    85 C    1.357    59 C    1.357    94 H    0.971
    59   6 C    3.922 --    58 C    1.357    63 N    1.233    60 C    1.171
    60   6 C    3.960 --    61 C    1.658    59 C    1.171    95 H    0.976
    61   6 C    3.963 --    60 C    1.658    62 C    1.173    96 H    0.973
    62   6 C    3.918 --    64 C    1.313    63 N    1.244    61 C    1.173
    63   7 N    3.294 --    62 C    1.244    59 C    1.233    57 Zn   0.459
    64   6 C    3.934 --    65 C    1.325    62 C    1.313    88 C    1.026
    65   6 C    3.913 --    64 C    1.325    68 N    1.224    66 C    1.179
    66   6 C    3.960 --    67 C    1.646    65 C    1.179    97 H    0.973
    67   6 C    3.962 --    66 C    1.646    69 C    1.186    98 H    0.974
    68   7 N    3.297 --    69 C    1.264    65 C    1.224    57 Zn   0.457
    69   6 C    3.901 --    68 N    1.264    70 C    1.251    67 C    1.186
    70   6 C    3.938 --    71 C    1.252    69 C    1.251   120 C    1.194
    71   6 C    3.902 --    87 N    1.264    70 C    1.252    72 C    1.186
    72   6 C    3.962 --    73 C    1.647    71 C    1.186    99 H    0.974
    73   6 C    3.960 --    72 C    1.647    74 C    1.179   100 H    0.973
    74   6 C    3.913 --    75 C    1.326    87 N    1.224    73 C    1.179
    75   6 C    3.934 --    74 C    1.326    82 C    1.313    76 C    1.026
    76   6 C    3.988 --    77 C    1.396    81 C    1.396    75 C    1.026
                            79 C    0.108
    77   6 C    3.988 --    78 C    1.447    76 C    1.396   101 H    0.973
                            80 C    0.110
    78   6 C    3.995 --    77 C    1.447    79 C    1.438   102 H    0.973
                            81 C    0.110
    79   6 C    3.990 --    78 C    1.438    80 C    1.438   103 H    0.974
                            76 C    0.108
    80   6 C    3.995 --    81 C    1.447    79 C    1.438   104 H    0.973
                            77 C    0.110
    81   6 C    3.988 --    80 C    1.447    76 C    1.396   105 H    0.973
                            78 C    0.110
    82   6 C    3.918 --    75 C    1.313    86 N    1.245    83 C    1.173
    83   6 C    3.963 --    84 C    1.658    82 C    1.173   106 H    0.973
    84   6 C    3.960 --    83 C    1.658    85 C    1.171   107 H    0.976
    85   6 C    3.922 --    58 C    1.357    86 N    1.233    84 C    1.171
    86   7 N    3.294 --    82 C    1.245    85 C    1.233    57 Zn   0.460
    87   7 N    3.297 --    71 C    1.264    74 C    1.224    57 Zn   0.456
    88   6 C    3.988 --    89 C    1.396    93 C    1.396    64 C    1.026
                            91 C    0.108
    89   6 C    3.988 --    90 C    1.447    88 C    1.396   108 H    0.973
                            92 C    0.110
    90   6 C    3.995 --    89 C    1.447    91 C    1.438   109 H    0.973
                            93 C    0.110
    91   6 C    3.990 --    90 C    1.438    92 C    1.437   110 H    0.974
                            88 C    0.108
    92   6 C    3.995 --    93 C    1.447    91 C    1.437   111 H    0.973
                            89 C    0.110
    93   6 C    3.988 --    92 C    1.447    88 C    1.396   112 H    0.973
                            90 C    0.110
    94   1 H    1.002 --    58 C    0.971
    95   1 H    0.998 --    60 C    0.976
    96   1 H    1.005 --    61 C    0.973
    97   1 H    1.005 --    66 C    0.973
    98   1 H    1.002 --    67 C    0.974
    99   1 H    1.002 --    72 C    0.974
   100   1 H    1.005 --    73 C    0.973
   101   1 H    1.005 --    77 C    0.973
   102   1 H    1.003 --    78 C    0.973
   103   1 H    1.003 --    79 C    0.974
   104   1 H    1.003 --    80 C    0.973
   105   1 H    1.005 --    81 C    0.973
   106   1 H    1.005 --    83 C    0.973
   107   1 H    0.998 --    84 C    0.976
   108   1 H    1.005 --    89 C    0.973
   109   1 H    1.003 --    90 C    0.973
   110   1 H    1.003 --    91 C    0.974
   111   1 H    1.003 --    92 C    0.973
   112   1 H    1.005 --    93 C    0.973
   113   6 C    3.877 --   114 C    2.436    14 C    1.194   116 C    0.186
   114   6 C    3.934 --   113 C    2.436   115 C    1.346
   115   6 C    3.893 --   116 C    2.334   114 C    1.346   118 C    0.182
   116   6 C    3.925 --   115 C    2.334   117 C    1.371   113 C    0.186
   117   6 C    3.925 --   118 C    2.334   116 C    1.371   120 C    0.186
   118   6 C    3.893 --   117 C    2.334   119 C    1.346   115 C    0.182
   119   6 C    3.934 --   120 C    2.436   118 C    1.346
   120   6 C    3.877 --   119 C    2.436    70 C    1.194   117 C    0.186
 ---------------------------------------------------------------------------

           -------------------------------------------------
          | TOTAL ENERGY             -199.577889279541 Eh   |
          | GRADIENT NORM               0.000859157217 Eh/α |
          | HOMO-LUMO GAP               1.099299146250 eV   |
           -------------------------------------------------

 * finished run on 2022/07/30 at 11:40:21.371
