   * xtb version 6.5.1 (b24c23e) compiled by 'conda@728c89f4b128' on 2022-07-12
          program call               : xtb PhCHO_C2_2.xyz --gfn 1 --opt -T 48

   ID    Z sym.   atoms
    1    6 C      1-5, 7-12, 14-18, 20-25, 27-32, 34-39, 62-66, 68-73, 75-79,
                  81-86, 88-93, 95-100, 123, 124
    2    7 N      6, 19, 26, 40, 67, 80, 87, 101
    3    8 O      13, 33, 74, 94
    4    1 H      41-61, 102-122
########################################################################
[WARNING] Please study the warnings concerning your input carefully
-1- prog_main_parseArguments: Unknown option '-T' provided
########################################################################

          :  Hamiltonian                  GFN1-xTB          :
 * total energy  :  -214.4972717 Eh     change       -0.6338041E-10 Eh
 * total energy  :  -214.6354386 Eh     change       -0.1381669E+00 Eh
 * total energy  :  -214.7023155 Eh     change       -0.6687689E-01 Eh
 * total energy  :  -214.7185831 Eh     change       -0.1626766E-01 Eh
 * total energy  :  -214.7273221 Eh     change       -0.8738960E-02 Eh
 * total energy  :  -214.7320700 Eh     change       -0.4747946E-02 Eh
 * total energy  :  -214.7348536 Eh     change       -0.2783551E-02 Eh
 * total energy  :  -214.7367124 Eh     change       -0.1858865E-02 Eh
 * total energy  :  -214.7379933 Eh     change       -0.1280858E-02 Eh
 * total energy  :  -214.7391564 Eh     change       -0.1163080E-02 Eh
 * total energy  :  -214.7460538 Eh     change       -0.8886515E-05 Eh
 * total energy  :  -214.7460590 Eh     change       -0.5194151E-05 Eh
 * total energy  :  -214.7460653 Eh     change       -0.6283994E-05 Eh
 * total energy  :  -214.7460710 Eh     change       -0.5704537E-05 Eh
 * total energy  :  -214.7460788 Eh     change       -0.7834729E-05 Eh
 * total energy  :  -214.7460902 Eh     change       -0.1139489E-04 Eh
 * total energy  :  -214.7461013 Eh     change       -0.1108149E-04 Eh
 * total energy  :  -214.7461080 Eh     change       -0.6732451E-05 Eh
 * total energy  :  -214.7461128 Eh     change       -0.4718318E-05 Eh
   *** GEOMETRY OPTIMIZATION CONVERGED AFTER 55 ITERATIONS ***

 final structure:
================
124
 xtb: 6.5.1 (b24c23e)
C           14.14753141270975       -0.10342059998021       -0.15227107144060
C           14.76321358945064       -1.31279081340220       -0.44688789805411
C           14.12108052860009       -2.53368548938574       -0.79706450811059
C           15.08797513701736       -3.48358873423283       -0.96912813040971
C           16.35170204048664       -2.87543479419787       -0.71946107909965
N           16.10606190479231       -1.56467548377597       -0.42557037416058
C           17.61572149403895       -3.47466059314627       -0.76195339608102
C           17.65468522755790       -4.92794482792308       -1.04640827031384
C           18.34481965551090       -5.41293725334352       -2.16194966893497
C           18.37780151912247       -6.76818394282157       -2.42748060973820
C           17.72775103881717       -7.67173796244253       -1.58015173069479
C           17.77986080113442       -9.11366667192648       -1.88329220015531
O           18.34558664847296       -9.57611464985547       -2.84057088699562
C           17.04125435599796       -7.18926945966192       -0.46329426380017
C           17.00219886609662       -5.83123952694774       -0.20228186374310
C           18.82778644829259       -2.81147280699622       -0.54966583309660
C           20.11589934446232       -3.47908518188832       -0.50282849414344
C           21.03642688769562       -2.51583117878331       -0.29194013987789
N           18.98593170074819       -1.47552210486638       -0.34360069375319
C           20.31146438478338       -1.26353139134481       -0.20657204660795
C           20.95129011482768       -0.02081588408968       -0.02371316723230
C           20.30819267318332        1.21772378979091        0.16234640090296
C           20.93854709181034        2.48102824295149        0.31081350369436
C           19.96600284030275        3.41795698414763        0.52424103492485
C           18.70843997391789        2.75381890060479        0.51134721908653
N           18.96541417561535        1.43018527996367        0.27273165722322
C           17.44444693309250        3.33179156602765        0.67911920166611
C           17.41192810937159        4.77431815271170        1.01106881987410
C           18.03970211801118        5.24626585532985        2.16865389938801
C           17.99923652997413        6.58971592820828        2.48715716116222
C           17.33735242099185        7.49558594622576        1.65154435127138
C           17.30755805419124        8.92429913692558        2.01417627958782
O           17.81637494170355        9.37244598418770        3.00954186233438
C           16.71634277501830        7.02721864273181        0.49111170950827
C           16.75105116657706        5.68052818374369        0.17646086036362
C           16.22827009892551        2.65119473649384        0.55563808051998
C           14.92310245300847        3.25570564707422        0.77604032761023
C           14.01070745135629        2.29403820507134        0.53148633137455
C           14.75740007966607        1.09907904260279        0.17946294539460
N           16.08956135734546        1.34764184283875        0.21809939563453
H           13.06263639555706       -0.10994253152170       -0.17907118200813
H           13.05497633410245       -2.65489449270924       -0.90391058846357
H           14.94466352133087       -4.51365823764557       -1.25253201805519
H           16.82505011623032       -0.87972613141416       -0.21804932581012
H           18.83985139541895       -4.71440650528929       -2.82702763815446
H           18.90504975499195       -7.15158203075401       -3.29447909568154
H           17.24692632314025       -9.75342201061976       -1.14781054457743
H           16.53866864830751       -7.88343918491468        0.20240578643167
H           16.48068330457426       -5.46184049431945        0.67364394245252
H           20.27171218163380       -4.54135029304192       -0.59842774801886
H           22.10293305719124       -2.62213832190778       -0.18000863570198
H           22.00102762003425        2.64782407565908        0.24900702637480
H           20.10381576149962        4.47777001509160        0.66301496734044
H           18.25033726895906        0.71543214303919        0.18764910372573
H           18.54104307536068        4.54514535490551        2.82646460200282
H           18.47568585769899        6.96153081416291        3.38794556962746
H           16.76489935613640        9.56752093994355        1.28901028452993
H           16.20584236267208        7.72388494844235       -0.16587858969456
H           16.27972793858503        5.32268323295301       -0.73192072579877
H           14.75274291463858        4.27344393748458        1.08814078761965
H           12.93507989200695        2.35360904512415        0.58622158016357
C           31.79186075779810        0.17048099090332       -0.06930153645327
C           31.17619213421334        1.34016141312121        0.35641915215594
C           31.81833928724351        2.55023244343068        0.74231911744493
C           30.85145226768766        3.43605693530485        1.12605124276526
C           29.58771801436466        2.79156978935469        0.99642364518874
N           29.83334593595164        1.53793341918585        0.51386693035002
C           28.32370075240884        3.31373759742588        1.29344769164965
C           28.28474217902197        4.68072550993374        1.86291117039046
C           27.59459056401628        5.70305566147330        1.20377076426192
C           27.56160062436518        6.97797143599416        1.73460509255693
C           28.21164752837890        7.25974934496208        2.94082966057744
C           28.15944272232678        8.62762806469794        3.48850633290381
O           27.59373486701740        9.54340773798761        2.94851566747361
C           28.89816754558187        6.23879093458213        3.60246277176009
C           28.93723853694356        4.96406780529667        3.06632007715941
C           27.11163209095384        2.64418591445393        1.10219579430781
C           25.82352422559007        3.17368791426965        1.51151278833364
C           24.90299112281324        2.25524572625883        1.15264934507783
N           26.95347747030042        1.41831833815061        0.53257105450426
C           25.62794716532175        1.16591499823278        0.52902179225725
C           24.98810533803875        0.03049224418452       -0.00816597924547
C           25.63118391332594       -1.10323319639246       -0.54041344524502
C           25.00082117297155       -2.23670189088674       -1.11766369095308
C           25.97335653940831       -3.13467107202745       -1.45979799645274
C           27.23092425301837       -2.57492972820695       -1.10213987910147
N           26.97396106070830       -1.34124902504751       -0.56643326359541
C           28.49491189136345       -3.14889959715935       -1.28315041240191
C           28.52742406275066       -4.53327979996586       -1.80715019429927
C           27.89960486662788       -5.56808741065086       -1.10582248476787
C           27.94004664471057       -6.86256127902447       -1.58607939159202
C           28.60222868682016       -7.15279546085662       -2.78366523618071
C           28.63307367957054       -8.54289175566932       -3.27384131096643
O           28.12293160208713       -9.46768479182927       -2.69503680603586
C           29.22316581498844       -6.11936899776830       -3.48941647904757
C           29.18833663259980       -4.82430942031811       -3.00424583560834
C           29.71109236694496       -2.51413731463701       -1.00832152300847
C           31.01625434376003       -3.13939319802705       -1.16025013410812
C           31.92865807858523       -2.20360218678047       -0.83026344852085
C           31.18197814566882       -1.01405877808482       -0.46032991023644
N           29.84981338634437       -1.24230018598229       -0.56604148524840
H           32.87675650135170        0.19074918489407       -0.08795509623731
H           32.88444684922864        2.71033320876336        0.72066930011339
H           30.99477416794441        4.45032865198817        1.46162793047518
H           29.11434900151293        0.85292322152204        0.30657688514829
H           27.09952352275254        5.49075891139839        0.26293717246721
H           27.03430069768472        7.77789122095460        1.22592672140332
H           28.69253496261181        8.75200670009948        4.45524277106274
H           29.40078924551360        6.44711713804067        4.54139497778884
H           29.45878194945849        4.17083429470978        3.59020539176305
H           25.66771612504087        4.11056152331330        2.02123322893330
H           23.83648614742684        2.28161254400578        1.30475765568461
H           23.93834032928746       -2.34118980011803       -1.26161391807550
H           25.83553533578794       -4.09346639480081       -1.93220791242068
H           27.68904325888701       -0.69935501965033       -0.24074038729698
H           27.39833143356276       -5.34965280372202       -0.16953224014167
H           27.46379613137675       -7.67164668541102       -1.04272574840402
H           29.17338178897916       -8.67538515346494       -4.23542952238333
H           29.73366661344850       -6.33456455200627       -4.42251309385091
H           29.65961938049058       -4.02266290195800       -3.56156943524942
H           31.18660554301197       -4.15931812149204       -1.46513318000527
H           33.00428500368663       -2.28354088622606       -0.81776865135082
C           22.36103231956281       -0.00394762218901       -0.01741540461697
C           23.57836299393033        0.01297422221974       -0.01218136639140

          :  Hamiltonian                  GFN1-xTB          :
         :: total energy            -214.746112760169 Eh    ::
         :: gradient norm              0.000712980238 Eh/a0 ::
         :: HOMO-LUMO gap              1.004360187538 eV    ::
         :: SCC energy              -218.080612778313 Eh    ::
         :: repulsion energy           3.441195475438 Eh    ::

    * Orbital Energies and Occupations

         #    Occupation            Energy/Eh            Energy/eV
      -------------------------------------------------------------
         1        2.0000           -0.8161967             -22.2098
       ...           ...                  ...                  ...
       181        2.0000           -0.4453866             -12.1196
       182        2.0000           -0.4350435             -11.8381
       183        2.0000           -0.4339305             -11.8079
       184        2.0000           -0.4318133             -11.7502
       185        2.0000           -0.4305845             -11.7168
       186        2.0000           -0.4295147             -11.6877
       187        2.0000           -0.4294674             -11.6864
       188        2.0000           -0.4270792             -11.6214
       189        2.0000           -0.4270536             -11.6207
       190        2.0000           -0.4114676             -11.1966
       191        2.0000           -0.4110418             -11.1850
       192        2.0000           -0.4035106             -10.9801
       193        2.0000           -0.3908224             -10.6348 (HOMO)
       194                         -0.3539128              -9.6305 (LUMO)
       195                         -0.3466648              -9.4332
       196                         -0.3462728              -9.4226
       197                         -0.3372265              -9.1764
       198                         -0.3280533              -8.9268
       199                         -0.3268882              -8.8951
       200                         -0.3223904              -8.7727
       201                         -0.3223312              -8.7711
       202                         -0.3068916              -8.3509
       203                         -0.2987355              -8.1290
       204                         -0.2829729              -7.7001
       ...                                ...                  ...
       412                          1.3232209              36.0067
      -------------------------------------------------------------
                  HL-Gap            0.0369096 Eh            1.0044 eV

Wiberg/Mayer (AO) data.
largest (>0.10) Wiberg bond orders for each atom

     #   Z sym  total        # sym  WBO       # sym  WBO       # sym  WBO
 ---------------------------------------------------------------------------
     1   6 C    3.925 --    39 C    1.366     2 C    1.347    41 H    0.971
     2   6 C    3.901 --     1 C    1.347     3 C    1.229     6 N    1.169
     3   6 C    3.953 --     4 C    1.596     2 C    1.229    42 H    0.976
     4   6 C    3.959 --     3 C    1.596     5 C    1.233    43 H    0.974
     5   6 C    3.897 --     7 C    1.302     4 C    1.233     6 N    1.178
     6   7 N    3.469 --     5 C    1.178     2 C    1.169    44 H    0.873
     7   6 C    3.937 --    16 C    1.330     5 C    1.302     8 C    1.035
     8   6 C    3.986 --    15 C    1.382     9 C    1.379     7 C    1.035
     9   6 C    3.987 --    10 C    1.472     8 C    1.379    45 H    0.972
    10   6 C    3.988 --     9 C    1.472    11 C    1.369    46 H    0.968
                            15 C    0.100
    11   6 C    3.982 --    14 C    1.378    10 C    1.369    12 C    1.049
    12   6 C    3.864 --    13 O    1.809    11 C    1.049    47 H    0.942
    13   8 O    2.004 --    12 C    1.809
    14   6 C    3.993 --    15 C    1.466    11 C    1.378    48 H    0.971
    15   6 C    3.986 --    14 C    1.466     8 C    1.382    49 H    0.972
                            10 C    0.100
    16   6 C    3.914 --     7 C    1.330    19 N    1.289    17 C    1.125
    17   6 C    3.965 --    18 C    1.708    16 C    1.125    50 H    0.973
    18   6 C    3.964 --    17 C    1.708    20 C    1.129    51 H    0.969
    19   7 N    3.020 --    20 C    1.341    16 C    1.289
    20   6 C    3.912 --    19 N    1.341    21 C    1.259    18 C    1.129
    21   6 C    3.937 --    20 C    1.259    22 C    1.255   123 C    1.180
    22   6 C    3.888 --    21 C    1.255    23 C    1.249    26 N    1.187
    23   6 C    3.959 --    24 C    1.582    22 C    1.249    52 H    0.970
    24   6 C    3.954 --    23 C    1.582    25 C    1.241    53 H    0.974
    25   6 C    3.898 --    27 C    1.304    24 C    1.241    26 N    1.169
    26   7 N    3.474 --    22 C    1.187    25 C    1.169    54 H    0.873
    27   6 C    3.923 --    36 C    1.319    25 C    1.304    28 C    1.038
    28   6 C    3.986 --    35 C    1.381    29 C    1.378    27 C    1.038
    29   6 C    3.985 --    30 C    1.472    28 C    1.378    55 H    0.972
    30   6 C    3.988 --    29 C    1.472    31 C    1.369    56 H    0.968
                            35 C    0.100
    31   6 C    3.982 --    34 C    1.378    30 C    1.369    32 C    1.049
    32   6 C    3.864 --    33 O    1.808    31 C    1.049    57 H    0.942
    33   8 O    2.003 --    32 C    1.808
    34   6 C    3.993 --    35 C    1.466    31 C    1.378    58 H    0.971
    35   6 C    3.986 --    34 C    1.466    28 C    1.381    59 H    0.971
                            30 C    0.100
    36   6 C    3.928 --    27 C    1.319    40 N    1.318    37 C    1.116
    37   6 C    3.967 --    38 C    1.724    36 C    1.116    60 H    0.973
    38   6 C    3.966 --    37 C    1.724    39 C    1.116    61 H    0.976
    39   6 C    3.928 --     1 C    1.366    40 N    1.299    38 C    1.116
    40   7 N    3.010 --    36 C    1.318    39 C    1.299
    41   1 H    1.002 --     1 C    0.971
    42   1 H    0.997 --     3 C    0.976
    43   1 H    1.004 --     4 C    0.974
    44   1 H    0.986 --     6 N    0.873
    45   1 H    1.004 --     9 C    0.972
    46   1 H    1.005 --    10 C    0.968
    47   1 H    1.010 --    12 C    0.942
    48   1 H    1.000 --    14 C    0.971
    49   1 H    1.004 --    15 C    0.972
    50   1 H    1.004 --    17 C    0.973
    51   1 H    1.006 --    18 C    0.969
    52   1 H    1.006 --    23 C    0.970
    53   1 H    1.004 --    24 C    0.974
    54   1 H    0.987 --    26 N    0.873
    55   1 H    1.004 --    29 C    0.972
    56   1 H    1.005 --    30 C    0.968
    57   1 H    1.010 --    32 C    0.942
    58   1 H    1.000 --    34 C    0.971
    59   1 H    1.004 --    35 C    0.971
    60   1 H    1.004 --    37 C    0.973
    61   1 H    0.998 --    38 C    0.976
    62   6 C    3.925 --   100 C    1.366    63 C    1.347   102 H    0.971
    63   6 C    3.901 --    62 C    1.347    64 C    1.229    67 N    1.169
    64   6 C    3.953 --    65 C    1.596    63 C    1.229   103 H    0.976
    65   6 C    3.959 --    64 C    1.596    66 C    1.233   104 H    0.974
    66   6 C    3.897 --    68 C    1.302    65 C    1.233    67 N    1.178
    67   7 N    3.469 --    66 C    1.178    63 C    1.169   105 H    0.873
    68   6 C    3.937 --    77 C    1.330    66 C    1.302    69 C    1.035
    69   6 C    3.986 --    76 C    1.382    70 C    1.379    68 C    1.035
    70   6 C    3.987 --    71 C    1.472    69 C    1.379   106 H    0.972
    71   6 C    3.988 --    70 C    1.472    72 C    1.369   107 H    0.968
                            76 C    0.100
    72   6 C    3.982 --    75 C    1.378    71 C    1.369    73 C    1.049
    73   6 C    3.864 --    74 O    1.809    72 C    1.049   108 H    0.942
    74   8 O    2.004 --    73 C    1.809
    75   6 C    3.993 --    76 C    1.466    72 C    1.378   109 H    0.971
    76   6 C    3.986 --    75 C    1.466    69 C    1.382   110 H    0.972
                            71 C    0.100
    77   6 C    3.914 --    68 C    1.330    80 N    1.289    78 C    1.125
    78   6 C    3.965 --    79 C    1.708    77 C    1.125   111 H    0.973
    79   6 C    3.964 --    78 C    1.708    81 C    1.129   112 H    0.969
    80   7 N    3.020 --    81 C    1.341    77 C    1.289
    81   6 C    3.912 --    80 N    1.341    82 C    1.259    79 C    1.129
    82   6 C    3.937 --    81 C    1.259    83 C    1.255   124 C    1.180
    83   6 C    3.888 --    82 C    1.255    84 C    1.249    87 N    1.187
    84   6 C    3.959 --    85 C    1.582    83 C    1.249   113 H    0.970
    85   6 C    3.954 --    84 C    1.582    86 C    1.241   114 H    0.974
    86   6 C    3.898 --    88 C    1.304    85 C    1.241    87 N    1.169
    87   7 N    3.474 --    83 C    1.187    86 C    1.169   115 H    0.873
    88   6 C    3.923 --    97 C    1.319    86 C    1.304    89 C    1.038
    89   6 C    3.986 --    96 C    1.381    90 C    1.378    88 C    1.038
    90   6 C    3.985 --    91 C    1.472    89 C    1.378   116 H    0.972
    91   6 C    3.988 --    90 C    1.472    92 C    1.369   117 H    0.968
                            96 C    0.100
    92   6 C    3.982 --    95 C    1.378    91 C    1.369    93 C    1.049
    93   6 C    3.864 --    94 O    1.808    92 C    1.049   118 H    0.942
    94   8 O    2.003 --    93 C    1.808
    95   6 C    3.993 --    96 C    1.466    92 C    1.378   119 H    0.971
    96   6 C    3.986 --    95 C    1.466    89 C    1.381   120 H    0.971
                            91 C    0.100
    97   6 C    3.928 --    88 C    1.319   101 N    1.318    98 C    1.116
    98   6 C    3.967 --    99 C    1.724    97 C    1.116   121 H    0.973
    99   6 C    3.966 --    98 C    1.724   100 C    1.116   122 H    0.976
   100   6 C    3.928 --    62 C    1.366   101 N    1.299    99 C    1.116
   101   7 N    3.010 --    97 C    1.318   100 C    1.299
   102   1 H    1.002 --    62 C    0.971
   103   1 H    0.997 --    64 C    0.976
   104   1 H    1.004 --    65 C    0.974
   105   1 H    0.986 --    67 N    0.873
   106   1 H    1.004 --    70 C    0.972
   107   1 H    1.005 --    71 C    0.968
   108   1 H    1.010 --    73 C    0.942
   109   1 H    1.000 --    75 C    0.971
   110   1 H    1.004 --    76 C    0.972
   111   1 H    1.004 --    78 C    0.973
   112   1 H    1.006 --    79 C    0.969
   113   1 H    1.006 --    84 C    0.970
   114   1 H    1.004 --    85 C    0.974
   115   1 H    0.987 --    87 N    0.873
   116   1 H    1.004 --    90 C    0.972
   117   1 H    1.005 --    91 C    0.968
   118   1 H    1.010 --    93 C    0.942
   119   1 H    1.000 --    95 C    0.971
   120   1 H    1.004 --    96 C    0.971
   121   1 H    1.004 --    98 C    0.973
   122   1 H    0.998 --    99 C    0.976
   123   6 C    3.933 --   124 C    2.575    21 C    1.180
   124   6 C    3.933 --   123 C    2.575    82 C    1.180
 ---------------------------------------------------------------------------

           -------------------------------------------------
          | TOTAL ENERGY             -214.746112760169 Eh   |
          | GRADIENT NORM               0.000712980238 Eh/α |
          | HOMO-LUMO GAP               1.004360187538 eV   |
           -------------------------------------------------

 * finished run on 2022/07/30 at 03:11:46.729
