   * xtb version 6.5.1 (b24c23e) compiled by 'conda@728c89f4b128' on 2022-07-12
          program call               : xtb Cu_DHP_C2_3.xyz --gfn 1 --opt -T 48

   ID    Z sym.   atoms
    1   29 Cu     1, 59, 121
    2    6 C      2-6, 8-11, 13-17, 19-24, 26-29, 31-36, 60-64, 66-69, 71-75,
                  77-82, 84-87, 89-94, 117-120, 122-126, 128-131, 133-137,
                  139-144, 146-149, 151-156
    3    7 N      7, 12, 18, 25, 30, 37, 65, 70, 76, 83, 88, 95, 127, 132,
                  138, 145, 150, 157
    4    1 H      38-58, 96-116, 158-177
########################################################################
[WARNING] Please study the warnings concerning your input carefully
-1- prog_main_parseArguments: Unknown option '-T' provided
########################################################################

          :  Hamiltonian                  GFN1-xTB          :
 * total energy  :  -302.2698094 Eh     change        0.5873119E-08 Eh
 * total energy  :  -302.4495435 Eh     change       -0.1797341E+00 Eh
 * total energy  :  -302.6032769 Eh     change       -0.1537334E+00 Eh
 * total energy  :  -302.6642201 Eh     change       -0.6094318E-01 Eh
 * total energy  :  -302.7101529 Eh     change       -0.4593277E-01 Eh
 * total energy  :  -302.7488335 Eh     change       -0.3868065E-01 Eh
 * total energy  :  -302.7762745 Eh     change       -0.2744103E-01 Eh
 * total energy  :  -302.7954261 Eh     change       -0.1915153E-01 Eh
 * total energy  :  -302.8102784 Eh     change       -0.1485230E-01 Eh
 * total energy  :  -302.8220106 Eh     change       -0.1173219E-01 Eh
 * total energy  :  -302.9203551 Eh     change       -0.8904484E-05 Eh
 * total energy  :  -302.9203637 Eh     change       -0.8603127E-05 Eh
 * total energy  :  -302.9203729 Eh     change       -0.9124272E-05 Eh
 * total energy  :  -302.9203837 Eh     change       -0.1078604E-04 Eh
 * total energy  :  -302.9203974 Eh     change       -0.1372960E-04 Eh
 * total energy  :  -302.9204146 Eh     change       -0.1720137E-04 Eh
 * total energy  :  -302.9204344 Eh     change       -0.1976474E-04 Eh
 * total energy  :  -302.9204548 Eh     change       -0.2041206E-04 Eh
 * total energy  :  -302.9204582 Eh     change       -0.3421849E-05 Eh
   *** GEOMETRY OPTIMIZATION CONVERGED AFTER 152 ITERATIONS ***

 final structure:
================
177
 xtb: 6.5.1 (b24c23e)
Cu          30.38848757696060        0.41910854398808        0.31047478350488
C           26.98328286788764        0.37364256065579        0.22810998506525
C           27.62255367425882       -0.85531903312636        0.29705063182141
C           26.95085514803971       -2.12037392978593        0.37949165436890
C           27.91257535329635       -3.07486198544525        0.43974157018937
C           29.18187414219568       -2.40203086437257        0.38284777624932
N           28.97365668349744       -1.05455030421708        0.30198153351197
C           30.42807612343940       -3.03113846239852        0.42742290489955
C           30.45100659246128       -4.51460856882373        0.46132255363272
C           29.94563763546537       -5.24897788976292       -0.54087898280104
C           29.94339278933018       -6.75545018540530       -0.52003531699215
N           30.87150249792701       -7.27336390975956        0.48891135763700
C           31.20622952763792       -6.51582162069027        1.58183711482811
C           31.05676940537843       -5.17982604206720        1.60631544067387
C           31.65802856402862       -2.36892585876386        0.43976282292167
C           32.93780244259676       -3.01848430915452        0.42936483740810
C           33.88056007566385       -2.04223214520476        0.41895766974668
N           31.84175019692407       -1.01170231709364        0.43044831651494
C           33.18547212662361       -0.79010408450713        0.41708829492109
C           33.81512799946132        0.46485862975589        0.38415988848937
C           33.15421136147739        1.70271383623504        0.32680933645896
C           33.81513658359053        2.97292540813077        0.35445313879374
C           32.84794239087008        3.92371177552034        0.30425303838228
C           31.58763305120633        3.24020183292444        0.23910017763799
N           31.80687327219667        1.88835974151118        0.25681541170871
C           30.34119748527131        3.86919462848879        0.19579133910903
C           30.32637555107248        5.35297212054951        0.16438590148369
C           29.76414979931133        6.07136191248657        1.14757599780249
C           29.72540372706671        7.57739799874121        1.12924035489195
N           30.68177963806523        8.12023917318225        0.16061927899198
C           31.07581207721949        7.37526984480537       -0.92118850740145
C           30.95892927136157        6.03623043581108       -0.95518970293330
C           29.11162373645490        3.20712305189768        0.18137564019936
C           27.82915540235599        3.84625199915147        0.06411344192512
C           26.89143698538095        2.86637949960929        0.07629203109498
C           27.59185182281312        1.61941321078686        0.19017555262943
N           28.93578652366864        1.85444377674616        0.25101109228798
H           25.89842239853416        0.35898425013321        0.20169473782212
H           25.87968388556179       -2.24716046313565        0.39963848609133
H           27.78107745405610       -4.14126479403715        0.52879410280907
H           29.49628612464961       -4.79055650530095       -1.41415805397791
H           30.25263875803252       -7.14786025911552       -1.49829016693273
H           28.92187570629973       -7.13306206069381       -0.32538317926823
H           30.79005342658363       -8.26776716902369        0.64452803590951
H           31.67807473122294       -7.06693843887144        2.38912762293534
H           31.37343381776511       -4.59277869493750        2.45670964210237
H           33.09115151666031       -4.08550847976377        0.41854389449687
H           34.95315661317908       -2.15184148274196        0.40196747668380
H           34.88273058704970        3.11097258688904        0.41734989768653
H           32.97194054642380        4.99446580238059        0.32100525247791
H           29.29287101193375        5.59918597459079        2.00174504315341
H           29.98426863916747        7.97461430122400        2.12005126411416
H           28.70389711411910        7.93050030022103        0.89293333353481
H           30.58464922556746        9.11333733816525        0.00561775687243
H           31.56529361564854        7.94041088539207       -1.70801715635293
H           31.32165297912420        5.45973573462227       -1.79432652917320
H           27.67419830498058        4.90912062891224       -0.02958242204526
H           25.81950884324959        2.96461490480580        0.00404960995893
Cu          52.18630243823882        0.37855852288035        0.33680776984155
C           55.59046250744611        0.29727554465455        0.29616771826153
C           54.99636950927680        1.55009399354051        0.33504407784280
C           55.71225220740716        2.79134418066552        0.40792621214369
C           54.78548937577280        3.78159265705006        0.42068273043761
C           53.49395944331008        3.15478886642554        0.34063157971097
N           53.65398552842760        1.79887785885920        0.30273684804076
C           52.27126650761604        3.82956122046819        0.31247425134788
C           52.30144383885743        5.31320767108360        0.31372693241523
C           52.88018846135135        6.00977376888768       -0.67557786666444
C           52.94148986585517        7.51523755661350       -0.67693972843226
N           51.98608543460850        8.08632109289429        0.27641937453694
C           51.57264264233198        7.36156829814408        1.36510173859516
C           51.66928708019750        6.02170337070450        1.41798362226578
C           51.01816595271062        3.21234626657353        0.28881213834626
C           49.76453112090265        3.90532564440037        0.19709542430539
C           48.78670621392025        2.96400502872561        0.20513114420666
N           50.78455579192885        1.86398364924337        0.33668133034429
C           49.43441429005637        1.68978007611931        0.29597995100163
C           48.76014772681287        0.46046262060412        0.37446430272515
C           49.37634226156569       -0.80007447952018        0.43814808721418
C           48.67071351351982       -2.04220805874308        0.54207904545470
C           49.60255954546893       -3.02904959895071        0.53055473177642
C           50.88557163197525       -2.39648108427617        0.41318348663463
N           50.71546187446984       -1.03846798510488        0.36946264770148
C           52.10710214884750       -3.07249740527475        0.36374790639661
C           52.06719513358926       -4.55604210552801        0.36733228029897
C           52.63024638359490       -5.27552492294148        1.34923083621105
C           52.61989659399605       -6.78218489132224        1.35685840416465
N           51.62262910337156       -7.31080153737570        0.42210370230649
C           51.22446687620450       -6.57134832307635       -0.66223534651876
C           51.38281609892035       -5.23763186613510       -0.72254580737157
C           53.35945446536034       -2.45672359189556        0.30617859295507
C           54.61721140798529       -3.14465589633993        0.19632849785063
C           55.59024038074658       -2.19981308556177        0.18460430861434
C           54.93642770983098       -0.92571730571255        0.27275527336448
N           53.58487354232994       -1.10998336789411        0.33787700519954
H           56.67535664042515        0.27131779528616        0.28315277084837
H           56.78649678329159        2.87936556240692        0.45425306719606
H           54.95462463884289        4.84420203803407        0.48906897420914
H           53.35146592526512        5.51940907853545       -1.51941907269555
H           52.69721128547329        7.90331759138465       -1.67501131336390
H           53.96652614138313        7.85527964287941       -0.43665595841071
H           52.10188447553162        9.07893203769300        0.42197200571775
H           51.08555384167052        7.94445906574384        2.14036620833471
H           51.29106677232847        5.46231222126387        2.26186782404382
H           49.65202712941745        4.97524569657022        0.12726767228676
H           47.71958142876569        3.11053846548584        0.15281091241055
H           47.59912267784419       -2.13829693955067        0.61528668288163
H           49.44066449654940       -4.09250280813640        0.60227348128531
H           53.13964455592163       -4.80477096569666        2.18201780715405
H           52.37404204653580       -7.15413478829716        2.36070366953228
H           53.62341111233135       -7.17176865101869        1.10144819997461
H           51.68749322248040       -8.30850379245545        0.28000815994411
H           50.69717969682638       -7.13348760816097       -1.42645616789770
H           51.01658161841272       -4.66401413916454       -1.56214411648491
H           54.73336399803392       -4.21422496990069        0.12585313086515
H           56.65760059686206       -2.33903404296629        0.11211480955185
C           35.22653903570744        0.48312178544398        0.40674261970489
C           36.44235234737848        0.49786911611831        0.42082204580232
C           46.13324146118861        0.51686930202796        0.40996808636717
C           47.34874189060408        0.49285986206633        0.39071823332413
Cu          41.28846151790622        0.52748712207947        0.43695090462205
C           37.85351734191810        0.51057974199109        0.43077769210879
C           38.49671615746672        1.49655194054922       -0.33608762633108
C           37.81697304616131        2.50593171866221       -1.09075960255338
C           38.77063679667131        3.24184907541856       -1.71665164246699
C           40.04077186549837        2.68047469684143       -1.35457015121460
N           39.84145126263978        1.62446413469745       -0.50560911768705
C           41.27836167161899        3.15121524801485       -1.79740383559046
C           41.27746947358449        4.25842982337474       -2.78578218590449
C           40.72974640215686        4.10928188277804       -4.00127743782488
C           40.76313151269990        5.19501874128904       -5.04428340766176
N           41.09877503841499        6.49200731867632       -4.45051950018301
C           41.79491199526525        6.56507384341161       -3.27197823843701
C           41.88833927880825        5.52814794151784       -2.42095536116105
C           42.51997373825011        2.65523160547933       -1.39396991240371
C           43.78608884608639        3.10434545735343       -1.89850400298524
C           44.74547388948610        2.37518800712614       -1.27334438296567
N           42.72690122693064        1.65619461561768       -0.48068689428995
C           44.07266031479856        1.47016579780909       -0.39067974465115
C           44.72184739009348        0.52874349360826        0.42446353654625
C           44.07855303885386       -0.40692189507650        1.25160799915824
C           44.75888734576353       -1.30436825357473        2.13576823620025
C           43.80531827078168       -2.03165727101748        2.77196125440738
C           42.53483937251168       -1.59113567587204        2.27073405344651
N           42.73385222551943       -0.59413208870374        1.35291381243381
C           41.29641778251627       -2.09683304889677        2.67184254006879
C           41.29290537114497       -3.21314763621596        3.64997763610531
C           41.84775424099636       -4.40169511101247        3.37081942923061
C           41.87213566453763       -5.53631333975039        4.36185808371766
N           40.91488144504071       -5.31330019747631        5.44903278507610
C           40.52556783124101       -4.04178554495678        5.78451386290761
C           40.65203945858139       -3.00289593753954        4.94067249593756
C           40.05610216251777       -1.63039312290141        2.23108703061706
C           38.79023813006585       -2.20036077370056        2.59451306626871
C           37.83146466630870       -1.47776178570610        1.96136245368021
C           38.50394098129735       -0.46531095638922        1.20363550285098
N           39.84937799566260       -0.57899539195780        1.37867417820520
H           36.74670734508141        2.63209731368523       -1.12839225136764
H           38.63153961384287        4.09733912102497       -2.35762860677491
H           40.29605577359037        3.16809426254885       -4.31889241349274
H           41.49147270617290        4.94079656585772       -5.83723443065411
H           39.77979935549172        5.28589552653087       -5.52601856346673
H           41.29253605635817        7.21412044366527       -5.12919043757853
H           42.19242887462224        7.54839436100453       -3.04135628594631
H           42.37502309298320        5.62991041878325       -1.46137703709201
H           43.91973854639873        3.87052184577676       -2.64525987553187
H           45.81479530995239        2.43036738761937       -1.40169691905770
H           45.82881982659057       -1.35412847688200        2.26084401087498
H           43.94621107951492       -2.78958957757186        3.52539889826847
H           42.32549257867289       -4.59940470802378        2.41831656858113
H           42.89137816793011       -5.66064040007201        4.77362771037759
H           41.60656924957195       -6.47912504663185        3.86469728877603
H           41.00976603840022       -5.96542878474278        6.21421440120465
H           40.03189695944146       -3.95708954577651        6.74740807786718
H           40.29210377709997       -2.01774567277264        5.20141970372973
H           38.65718171676372       -3.05055182537040        3.24389967781365
H           36.76220334991943       -1.61242915036121        1.99801202684917

          :  Hamiltonian                  GFN1-xTB          :
         :: total energy            -302.920458176487 Eh    ::
         :: gradient norm              0.000349375485 Eh/a0 ::
         :: HOMO-LUMO gap              0.002788546947 eV    ::
         :: SCC energy              -307.401042281446 Eh    ::
         :: repulsion energy           4.642079360375 Eh    ::

    * Orbital Energies and Occupations

         #    Occupation            Energy/Eh            Energy/eV
      -------------------------------------------------------------
         1        2.0000           -0.7778483             -21.1663
       ...           ...                  ...                  ...
       269        2.0000           -0.3851695             -10.4810
       270        2.0000           -0.3847905             -10.4707
       271        2.0000           -0.3846917             -10.4680
       272        2.0000           -0.3779796             -10.2853
       273        2.0000           -0.3707774             -10.0894
       274        2.0000           -0.3680049             -10.0139
       275        2.0000           -0.3677211             -10.0062
       276        2.0000           -0.3672933              -9.9946
       277        2.0000           -0.3669155              -9.9843
       278        2.0000           -0.3666718              -9.9776
       279        2.0000           -0.3644576              -9.9174
       280        1.0359           -0.3456052              -9.4044
       281        1.0060           -0.3455414              -9.4027 (HOMO)
       282        0.9581           -0.3454389              -9.3999 (LUMO)
       283        0.0000           -0.3293696              -8.9626
       284                         -0.3197299              -8.7003
       285                         -0.3170491              -8.6273
       286                         -0.3168321              -8.6214
       287                         -0.3161815              -8.6037
       288                         -0.3104552              -8.4479
       289                         -0.2878163              -7.8319
       290                         -0.2818561              -7.6697
       291                         -0.2781749              -7.5695
       292                         -0.2623379              -7.1386
       ...                                ...                  ...
       599                          1.3533110              36.8255
      -------------------------------------------------------------
                  HL-Gap            0.0001025 Eh            0.0028 eV

Wiberg/Mayer (AO) data.
largest (>0.10) Wiberg bond orders for each atom

     #   Z sym  total        # sym  WBO       # sym  WBO       # sym  WBO
 ---------------------------------------------------------------------------
     1  29 Cu   2.192 --     7 N    0.506    37 N    0.506    18 N    0.504
                            25 N    0.504
     2   6 C    3.928 --     3 C    1.360    36 C    1.360    38 H    0.972
     3   6 C    3.920 --     2 C    1.360     7 N    1.230     4 C    1.172
     4   6 C    3.955 --     5 C    1.653     3 C    1.172    39 H    0.976
     5   6 C    3.958 --     4 C    1.653     6 C    1.173    40 H    0.974
     6   6 C    3.914 --     8 C    1.321     7 N    1.237     5 C    1.173
     7   7 N    3.243 --     6 C    1.237     3 C    1.230     1 Cu   0.506
     8   6 C    3.936 --    15 C    1.323     6 C    1.321     9 C    1.025
     9   6 C    3.988 --    10 C    1.768    14 C    1.097     8 C    1.025
    10   6 C    3.971 --     9 C    1.768    11 C    1.013    41 H    0.972
    11   6 C    3.961 --    10 C    1.013    42 H    0.976    43 H    0.967
                            12 N    0.949
    12   7 N    3.246 --    13 C    1.159    11 C    0.949    44 H    0.928
                            14 C    0.127
    13   6 C    3.958 --    14 C    1.693    12 N    1.159    45 H    0.971
    14   6 C    3.968 --    13 C    1.693     9 C    1.097    46 H    0.974
                            12 N    0.127
    15   6 C    3.908 --     8 C    1.323    18 N    1.224    16 C    1.181
    16   6 C    3.955 --    17 C    1.641    15 C    1.181    47 H    0.972
    17   6 C    3.957 --    16 C    1.641    19 C    1.187    48 H    0.972
    18   7 N    3.248 --    19 C    1.252    15 C    1.224     1 Cu   0.504
    19   6 C    3.904 --    20 C    1.268    18 N    1.252    17 C    1.187
    20   6 C    3.938 --    19 C    1.268    21 C    1.268   117 C    1.166
    21   6 C    3.904 --    20 C    1.268    25 N    1.253    22 C    1.187
    22   6 C    3.957 --    23 C    1.641    21 C    1.187    49 H    0.972
    23   6 C    3.955 --    22 C    1.641    24 C    1.181    50 H    0.972
    24   6 C    3.908 --    26 C    1.323    25 N    1.224    23 C    1.181
    25   7 N    3.248 --    21 C    1.253    24 C    1.224     1 Cu   0.504
    26   6 C    3.935 --    24 C    1.323    33 C    1.321    27 C    1.025
    27   6 C    3.988 --    28 C    1.769    32 C    1.097    26 C    1.025
    28   6 C    3.971 --    27 C    1.769    29 C    1.013    51 H    0.972
    29   6 C    3.961 --    28 C    1.013    52 H    0.976    53 H    0.967
                            30 N    0.949
    30   7 N    3.246 --    31 C    1.159    29 C    0.949    54 H    0.928
                            32 C    0.127
    31   6 C    3.958 --    32 C    1.693    30 N    1.159    55 H    0.971
    32   6 C    3.968 --    31 C    1.693    27 C    1.097    56 H    0.974
                            30 N    0.127
    33   6 C    3.914 --    26 C    1.321    37 N    1.237    34 C    1.173
    34   6 C    3.958 --    35 C    1.654    33 C    1.173    57 H    0.974
    35   6 C    3.955 --    34 C    1.654    36 C    1.172    58 H    0.976
    36   6 C    3.920 --     2 C    1.360    37 N    1.230    35 C    1.172
    37   7 N    3.243 --    33 C    1.237    36 C    1.230     1 Cu   0.506
    38   1 H    1.002 --     2 C    0.972
    39   1 H    0.998 --     4 C    0.976
    40   1 H    1.007 --     5 C    0.974
    41   1 H    1.003 --    10 C    0.972
    42   1 H    1.019 --    11 C    0.976
    43   1 H    1.008 --    11 C    0.967
    44   1 H    0.964 --    12 N    0.928
    45   1 H    1.002 --    13 C    0.971
    46   1 H    1.003 --    14 C    0.974
    47   1 H    1.006 --    16 C    0.972
    48   1 H    1.004 --    17 C    0.972
    49   1 H    1.004 --    22 C    0.972
    50   1 H    1.006 --    23 C    0.972
    51   1 H    1.003 --    28 C    0.972
    52   1 H    1.019 --    29 C    0.976
    53   1 H    1.008 --    29 C    0.967
    54   1 H    0.964 --    30 N    0.928
    55   1 H    1.002 --    31 C    0.971
    56   1 H    1.003 --    32 C    0.974
    57   1 H    1.007 --    34 C    0.974
    58   1 H    0.998 --    35 C    0.976
    59  29 Cu   2.188 --    95 N    0.505    65 N    0.505    76 N    0.503
                            83 N    0.503
    60   6 C    3.929 --    61 C    1.360    94 C    1.360    96 H    0.971
    61   6 C    3.920 --    60 C    1.360    65 N    1.231    62 C    1.172
    62   6 C    3.955 --    63 C    1.654    61 C    1.172    97 H    0.976
    63   6 C    3.958 --    62 C    1.654    64 C    1.173    98 H    0.974
    64   6 C    3.914 --    66 C    1.321    65 N    1.237    63 C    1.173
    65   7 N    3.243 --    64 C    1.237    61 C    1.231    59 Cu   0.505
    66   6 C    3.936 --    73 C    1.323    64 C    1.321    67 C    1.026
    67   6 C    3.988 --    68 C    1.768    72 C    1.097    66 C    1.026
    68   6 C    3.971 --    67 C    1.768    69 C    1.013    99 H    0.972
    69   6 C    3.961 --    68 C    1.013   100 H    0.976   101 H    0.966
                            70 N    0.949
    70   7 N    3.245 --    71 C    1.158    69 C    0.949   102 H    0.929
                            72 C    0.127
    71   6 C    3.958 --    72 C    1.694    70 N    1.158   103 H    0.971
    72   6 C    3.968 --    71 C    1.694    67 C    1.097   104 H    0.974
                            70 N    0.127
    73   6 C    3.908 --    66 C    1.323    76 N    1.225    74 C    1.181
    74   6 C    3.956 --    75 C    1.642    73 C    1.181   105 H    0.973
    75   6 C    3.957 --    74 C    1.642    77 C    1.186   106 H    0.973
    76   7 N    3.248 --    77 C    1.252    73 C    1.225    59 Cu   0.503
    77   6 C    3.905 --    78 C    1.269    76 N    1.252    75 C    1.186
    78   6 C    3.938 --    77 C    1.269    79 C    1.268   120 C    1.165
    79   6 C    3.905 --    78 C    1.268    83 N    1.252    80 C    1.186
    80   6 C    3.957 --    81 C    1.642    79 C    1.186   107 H    0.973
    81   6 C    3.956 --    80 C    1.642    82 C    1.181   108 H    0.973
    82   6 C    3.908 --    84 C    1.323    83 N    1.225    81 C    1.181
    83   7 N    3.248 --    79 C    1.252    82 C    1.225    59 Cu   0.503
    84   6 C    3.936 --    82 C    1.323    91 C    1.321    85 C    1.025
    85   6 C    3.988 --    86 C    1.769    90 C    1.097    84 C    1.025
    86   6 C    3.971 --    85 C    1.769    87 C    1.013   109 H    0.972
    87   6 C    3.961 --    86 C    1.013   110 H    0.976   111 H    0.966
                            88 N    0.949
    88   7 N    3.245 --    89 C    1.159    87 C    0.949   112 H    0.929
                            90 C    0.127
    89   6 C    3.958 --    90 C    1.694    88 N    1.159   113 H    0.971
    90   6 C    3.968 --    89 C    1.694    85 C    1.097   114 H    0.974
                            88 N    0.127
    91   6 C    3.914 --    84 C    1.321    95 N    1.237    92 C    1.173
    92   6 C    3.958 --    93 C    1.654    91 C    1.173   115 H    0.974
    93   6 C    3.955 --    92 C    1.654    94 C    1.172   116 H    0.976
    94   6 C    3.920 --    60 C    1.360    95 N    1.231    93 C    1.172
    95   7 N    3.243 --    91 C    1.237    94 C    1.231    59 Cu   0.505
    96   1 H    1.002 --    60 C    0.971
    97   1 H    0.998 --    62 C    0.976
    98   1 H    1.007 --    63 C    0.974
    99   1 H    1.004 --    68 C    0.972
   100   1 H    1.019 --    69 C    0.976
   101   1 H    1.008 --    69 C    0.966
   102   1 H    0.964 --    70 N    0.929
   103   1 H    1.002 --    71 C    0.971
   104   1 H    1.003 --    72 C    0.974
   105   1 H    1.006 --    74 C    0.973
   106   1 H    1.004 --    75 C    0.973
   107   1 H    1.004 --    80 C    0.973
   108   1 H    1.006 --    81 C    0.973
   109   1 H    1.003 --    86 C    0.972
   110   1 H    1.019 --    87 C    0.976
   111   1 H    1.008 --    87 C    0.966
   112   1 H    0.964 --    88 N    0.929
   113   1 H    1.002 --    89 C    0.971
   114   1 H    1.003 --    90 C    0.974
   115   1 H    1.007 --    92 C    0.974
   116   1 H    0.998 --    93 C    0.976
   117   6 C    3.931 --   118 C    2.585    20 C    1.166
   118   6 C    3.933 --   117 C    2.585   122 C    1.168
   119   6 C    3.933 --   120 C    2.586   140 C    1.166
   120   6 C    3.931 --   119 C    2.586    78 C    1.165
   121  29 Cu   2.173 --   157 N    0.501   138 N    0.501   145 N    0.501
                           127 N    0.500
   122   6 C    3.928 --   156 C    1.267   123 C    1.265   118 C    1.168
   123   6 C    3.907 --   122 C    1.265   127 N    1.255   124 C    1.188
   124   6 C    3.956 --   125 C    1.640   123 C    1.188   158 H    0.972
   125   6 C    3.956 --   124 C    1.640   126 C    1.181   159 H    0.974
   126   6 C    3.908 --   128 C    1.324   127 N    1.223   125 C    1.181
   127   7 N    3.241 --   123 C    1.255   126 C    1.223   121 Cu   0.500
   128   6 C    3.931 --   126 C    1.324   135 C    1.321   129 C    1.024
   129   6 C    3.988 --   130 C    1.766   134 C    1.099   128 C    1.024
   130   6 C    3.971 --   129 C    1.766   131 C    1.014   160 H    0.972
   131   6 C    3.961 --   130 C    1.014   162 H    0.975   161 H    0.967
                           132 N    0.949
   132   7 N    3.249 --   133 C    1.161   131 C    0.949   163 H    0.928
                           134 C    0.128
   133   6 C    3.958 --   134 C    1.691   132 N    1.161   164 H    0.971
   134   6 C    3.968 --   133 C    1.691   129 C    1.099   165 H    0.973
                           132 N    0.128
   135   6 C    3.907 --   128 C    1.321   138 N    1.224   136 C    1.182
   136   6 C    3.957 --   137 C    1.640   135 C    1.182   166 H    0.973
   137   6 C    3.956 --   136 C    1.640   139 C    1.187   167 H    0.973
   138   7 N    3.241 --   139 C    1.254   135 C    1.224   121 Cu   0.501
   139   6 C    3.906 --   140 C    1.267   138 N    1.254   137 C    1.187
   140   6 C    3.928 --   139 C    1.267   141 C    1.266   119 C    1.166
   141   6 C    3.908 --   140 C    1.266   145 N    1.255   142 C    1.188
   142   6 C    3.956 --   143 C    1.639   141 C    1.188   168 H    0.973
   143   6 C    3.956 --   142 C    1.639   144 C    1.182   169 H    0.974
   144   6 C    3.908 --   146 C    1.322   145 N    1.223   143 C    1.182
   145   7 N    3.241 --   141 C    1.255   144 C    1.223   121 Cu   0.501
   146   6 C    3.931 --   144 C    1.322   153 C    1.322   147 C    1.025
   147   6 C    3.988 --   148 C    1.769   152 C    1.097   146 C    1.025
   148   6 C    3.972 --   147 C    1.769   149 C    1.013   170 H    0.972
   149   6 C    3.961 --   148 C    1.013   172 H    0.976   171 H    0.966
                           150 N    0.949
   150   7 N    3.245 --   151 C    1.159   149 C    0.949   173 H    0.928
                           152 C    0.127
   151   6 C    3.958 --   152 C    1.694   150 N    1.159   174 H    0.971
   152   6 C    3.968 --   151 C    1.694   147 C    1.097   175 H    0.974
                           150 N    0.127
   153   6 C    3.906 --   146 C    1.322   157 N    1.224   154 C    1.181
   154   6 C    3.956 --   155 C    1.641   153 C    1.181   176 H    0.973
   155   6 C    3.956 --   154 C    1.641   156 C    1.186   177 H    0.972
   156   6 C    3.905 --   122 C    1.267   157 N    1.254   155 C    1.186
   157   7 N    3.241 --   156 C    1.254   153 C    1.224   121 Cu   0.501
   158   1 H    1.004 --   124 C    0.972
   159   1 H    1.007 --   125 C    0.974
   160   1 H    1.003 --   130 C    0.972
   161   1 H    1.009 --   131 C    0.967
   162   1 H    1.018 --   131 C    0.975
   163   1 H    0.964 --   132 N    0.928
   164   1 H    1.002 --   133 C    0.971
   165   1 H    1.004 --   134 C    0.973
   166   1 H    1.006 --   136 C    0.973
   167   1 H    1.004 --   137 C    0.973
   168   1 H    1.004 --   142 C    0.973
   169   1 H    1.007 --   143 C    0.974
   170   1 H    1.003 --   148 C    0.972
   171   1 H    1.008 --   149 C    0.966
   172   1 H    1.019 --   149 C    0.976
   173   1 H    0.964 --   150 N    0.928
   174   1 H    1.001 --   151 C    0.971
   175   1 H    1.003 --   152 C    0.974
   176   1 H    1.006 --   154 C    0.973
   177   1 H    1.004 --   155 C    0.972
 ---------------------------------------------------------------------------

           -------------------------------------------------
          | TOTAL ENERGY             -302.920458176487 Eh   |
          | GRADIENT NORM               0.000349375485 Eh/α |
          | HOMO-LUMO GAP               0.002788546947 eV   |
           -------------------------------------------------

 * finished run on 2022/07/30 at 05:20:16.384
