   * xtb version 6.5.1 (b24c23e) compiled by 'conda@728c89f4b128' on 2022-07-12
          program call               : xtb Ni_H_C2_2.xyz --gfn 1 --opt -T 48

   ID    Z sym.   atoms
    1   28 Ni     1, 37
    2    6 C      2-6, 8-11, 13-18, 20-24, 38-42, 44-47, 49-54, 56-60, 73, 74
    3    7 N      7, 12, 19, 25, 43, 48, 55, 61
    4    1 H      26-36, 62-72
########################################################################
[WARNING] Please study the warnings concerning your input carefully
-1- prog_main_parseArguments: Unknown option '-T' provided
########################################################################

          :  Hamiltonian                  GFN1-xTB          :
 * total energy  :  -134.3006221 Eh     change       -0.1554668E-10 Eh
 * total energy  :  -134.3719198 Eh     change       -0.7129773E-01 Eh
 * total energy  :  -134.4109580 Eh     change       -0.3903818E-01 Eh
 * total energy  :  -134.4188751 Eh     change       -0.7917088E-02 Eh
 * total energy  :  -134.4230235 Eh     change       -0.4148361E-02 Eh
 * total energy  :  -134.4250036 Eh     change       -0.1980174E-02 Eh
 * total energy  :  -134.4261458 Eh     change       -0.1142146E-02 Eh
 * total energy  :  -134.4267040 Eh     change       -0.5582697E-03 Eh
 * total energy  :  -134.4269545 Eh     change       -0.2504495E-03 Eh
 * total energy  :  -134.4270327 Eh     change       -0.7816959E-04 Eh
 * total energy  :  -134.4273914 Eh     change       -0.1366872E-04 Eh
 * total energy  :  -134.4273991 Eh     change       -0.7783537E-05 Eh
 * total energy  :  -134.4274058 Eh     change       -0.6636264E-05 Eh
 * total energy  :  -134.4274137 Eh     change       -0.7896276E-05 Eh
 * total energy  :  -134.4274239 Eh     change       -0.1025733E-04 Eh
 * total energy  :  -134.4274356 Eh     change       -0.1170282E-04 Eh
 * total energy  :  -134.4274471 Eh     change       -0.1142551E-04 Eh
 * total energy  :  -134.4274550 Eh     change       -0.7940446E-05 Eh
 * total energy  :  -134.4274589 Eh     change       -0.3862308E-05 Eh
   *** GEOMETRY OPTIMIZATION CONVERGED AFTER 35 ITERATIONS ***

 final structure:
================
74
 xtb: 6.5.1 (b24c23e)
Ni           9.08597160580803       -0.04030007186702       -0.01608317850877
C            5.67552037604591       -0.05316668025044       -0.03502296401316
C            6.33409024689025       -0.90230867293815       -0.90040160095027
C            5.66473742145103       -1.78742809986211       -1.80763840454981
C            6.62839692769944       -2.48751856496330       -2.45014312006872
C            7.88407056033836       -2.02817993197503       -1.93424576998258
N            7.69476197279993       -1.04730067961584       -0.99434294389438
C            9.10450448294615       -2.54117646641740       -2.32142369853479
C           10.31693965254624       -2.10242749753475       -1.83136881976896
C           11.57677521363362       -2.64379719880521       -2.24057474113315
C           12.53182451642332       -1.93770638722672       -1.58977746369579
N           10.49646078559464       -1.08191757726149       -0.92727327634866
C           11.85234326640808       -0.96904024896556       -0.78528713305166
C           12.51423163322443       -0.01572460908098       -0.00940540623691
C           11.83571970144538        0.92518872983326        0.76724955235601
C           12.49817787319119        1.89831659388274        1.58055393422853
C           11.53077125267756        2.58414925383759        2.23473433326136
C           10.28038357694148        2.02748198824940        1.81708966233545
N           10.47785738661210        1.01659244963742        0.90599250217433
C            9.05978749683544        2.44828005580465        2.30258318363581
C            7.84768308082914        1.92747676016209        1.90001944526310
C            6.58290086824229        2.37502874662634        2.40389628729051
C            5.63164954477801        1.67389209880064        1.74427056023614
C            6.31774580305124        0.79828499852589        0.84031644477787
N            7.67616168091075        0.95142816081169        0.95174194494065
H            4.59177761921508       -0.05663026420098       -0.04183047830511
H            4.59374022934998       -1.85021785808699       -1.91868607487310
H            6.52210009871054       -3.25093995139072       -3.20459533958563
H            9.11224686320552       -3.33792670650445       -3.05624144198945
H           11.69437169746165       -3.45580731605764       -2.94038593924762
H           13.60334996221566       -2.04478043533358       -1.64312369491007
H           13.56777820587741        2.02132818733693        1.63778692221744
H           11.63412558573553        3.39214528983240        2.94143049411698
H            9.05357215881906        3.23942597809650        3.04344180253794
H            6.46247268420166        3.13276486526252        3.16194767674653
H            4.55899051810008        1.72942899510272        1.84236867062355
Ni          19.98028337062988        0.04063662653087        0.01523875063204
C           23.39073480419798        0.06290284246780        0.00989128023635
C           22.73215324479577        1.27333889230548       -0.05905067196580
C           23.40150297976400        2.53856268860588       -0.13473886805127
C           22.43784290448580        3.48878104325288       -0.13906854608543
C           21.18217110410843        2.80185519320862       -0.06641351356812
N           21.37148189522716        1.44380876481311       -0.03099816329677
C           19.96173956384768        3.44187818977192       -0.00770009294591
C           18.74930358126137        2.78757427563294        0.05966676682406
C           17.48946584604676        3.46340232819131        0.12115934411738
C           16.53441921020894        2.50315825468677        0.12755171695980
N           18.56978764313399        1.42429990261592        0.04193675190266
C           17.21390641388723        1.24525728231280        0.07101270188456
C           16.55202377999995        0.01795514930738        0.00362620949180
C           17.23054117133555       -1.20068619402846       -0.05482420608940
C           16.56808747834221       -2.46782427816322       -0.10784180297395
C           17.53549933689395       -3.41534726522296       -0.08531526565528
C           18.78588608480408       -2.72251573958746       -0.01979378023153
N           18.58840560384726       -1.36165000526638       -0.01368599675665
C           20.00648257885168       -3.36047641031407        0.05625025297184
C           21.21858837755238       -2.70433322933657        0.10884624160896
C           22.48337202205530       -3.37445081801796        0.18048726267600
C           23.43462051705191       -2.41193231586933        0.16426649237392
C           22.74852130976918       -1.15595682579023        0.08462348714608
N           21.39010670896554       -1.34422790049668        0.06399076186470
H           24.47447750061616        0.07005943189931        0.00718575480699
H           24.47249906999323        2.65972876653181       -0.17465732053004
H           22.54413658531028        4.56117379476728       -0.18361176426505
H           19.95400064195076        4.52571846857297       -0.01528613881854
H           17.37186349593768        4.53497886439056        0.14974030396559
H           15.46289218768509        2.61826145176685        0.16009709891531
H           15.49848605655071       -2.59734194132598       -0.14825164285461
H           17.43215151364883       -4.48858789101003       -0.10612025395241
H           20.01269473649112       -4.44423616818748        0.07202118021186
H           22.60380436534255       -4.44506064677607        0.23147658833753
H           24.50727934170765       -2.51901926037335        0.19950415747493
C           13.92560261885081       -0.00494966498046       -0.00695871795803
C           15.14065280458474        0.00834740972377       -0.00182928549067

          :  Hamiltonian                  GFN1-xTB          :
         :: total energy            -134.427458857783 Eh    ::
         :: gradient norm              0.000276388842 Eh/a0 ::
         :: HOMO-LUMO gap              1.330153959290 eV    ::
         :: SCC energy              -136.459201062985 Eh    ::
         :: repulsion energy           2.096838572023 Eh    ::

    * Orbital Energies and Occupations

         #    Occupation            Energy/Eh            Energy/eV
      -------------------------------------------------------------
         1        2.0000           -0.7804451             -21.2370
       ...           ...                  ...                  ...
       113        2.0000           -0.4293415             -11.6830
       114        2.0000           -0.4000865             -10.8869
       115        2.0000           -0.3981812             -10.8351
       116        2.0000           -0.3981462             -10.8341
       117        2.0000           -0.3979417             -10.8285
       118        2.0000           -0.3979241             -10.8281
       119        2.0000           -0.3969635             -10.8019
       120        2.0000           -0.3969632             -10.8019
       121        2.0000           -0.3960461             -10.7770
       122        2.0000           -0.3960450             -10.7769
       123        2.0000           -0.3959307             -10.7738
       124        2.0000           -0.3959296             -10.7738
       125        2.0000           -0.3873349             -10.5399 (HOMO)
       126                         -0.3384526              -9.2098 (LUMO)
       127                         -0.3293156              -8.9611
       128                         -0.3293136              -8.9611
       129                         -0.3286218              -8.9423
       130                         -0.3286075              -8.9419
       131                         -0.3245356              -8.8311
       132                         -0.2953463              -8.0368
       133                         -0.2878906              -7.8339
       134                         -0.2318592              -6.3092
       135                         -0.2318544              -6.3091
       136                         -0.2161796              -5.8825
       ...                                ...                  ...
       262                          1.3448264              36.5946
      -------------------------------------------------------------
                  HL-Gap            0.0488823 Eh            1.3302 eV

Wiberg/Mayer (AO) data.
largest (>0.10) Wiberg bond orders for each atom

     #   Z sym  total        # sym  WBO       # sym  WBO       # sym  WBO
 ---------------------------------------------------------------------------
     1  28 Ni   3.016 --     7 N    0.665    25 N    0.665    12 N    0.662
                            19 N    0.662
     2   6 C    3.941 --     3 C    1.365    24 C    1.365    26 H    0.970
     3   6 C    3.923 --     2 C    1.365     7 N    1.218     4 C    1.170
     4   6 C    3.960 --     5 C    1.656     3 C    1.170    27 H    0.975
     5   6 C    3.962 --     4 C    1.656     6 C    1.171    28 H    0.975
     6   6 C    3.922 --     8 C    1.365     7 N    1.217     5 C    1.171
     7   7 N    3.407 --     3 C    1.218     6 C    1.217     1 Ni   0.665
     8   6 C    3.945 --     9 C    1.367     6 C    1.365    29 H    0.970
     9   6 C    3.917 --     8 C    1.367    12 N    1.205    10 C    1.177
    10   6 C    3.959 --    11 C    1.643     9 C    1.177    30 H    0.975
    11   6 C    3.962 --    10 C    1.643    13 C    1.185    31 H    0.972
    12   7 N    3.411 --    13 C    1.239     9 C    1.205     1 Ni   0.662
    13   6 C    3.912 --    14 C    1.275    12 N    1.239    11 C    1.185
    14   6 C    3.949 --    13 C    1.275    15 C    1.275    73 C    1.160
    15   6 C    3.912 --    14 C    1.275    19 N    1.239    16 C    1.185
    16   6 C    3.962 --    17 C    1.643    15 C    1.185    32 H    0.972
    17   6 C    3.959 --    16 C    1.643    18 C    1.177    33 H    0.975
    18   6 C    3.917 --    20 C    1.367    19 N    1.205    17 C    1.177
    19   7 N    3.411 --    15 C    1.239    18 C    1.205     1 Ni   0.662
    20   6 C    3.945 --    18 C    1.367    21 C    1.365    34 H    0.970
    21   6 C    3.922 --    20 C    1.365    25 N    1.217    22 C    1.171
    22   6 C    3.962 --    23 C    1.656    21 C    1.171    35 H    0.975
    23   6 C    3.960 --    22 C    1.656    24 C    1.170    36 H    0.975
    24   6 C    3.923 --     2 C    1.365    25 N    1.218    23 C    1.170
    25   7 N    3.407 --    24 C    1.218    21 C    1.217     1 Ni   0.665
    26   1 H    1.000 --     2 C    0.970
    27   1 H    0.998 --     4 C    0.975
    28   1 H    0.998 --     5 C    0.975
    29   1 H    1.000 --     8 C    0.970
    30   1 H    0.998 --    10 C    0.975
    31   1 H    1.004 --    11 C    0.972
    32   1 H    1.004 --    16 C    0.972
    33   1 H    0.998 --    17 C    0.975
    34   1 H    1.000 --    20 C    0.970
    35   1 H    0.998 --    22 C    0.975
    36   1 H    0.998 --    23 C    0.975
    37  28 Ni   3.016 --    43 N    0.665    61 N    0.665    48 N    0.662
                            55 N    0.662
    38   6 C    3.941 --    39 C    1.365    60 C    1.365    62 H    0.970
    39   6 C    3.923 --    38 C    1.365    43 N    1.218    40 C    1.170
    40   6 C    3.960 --    41 C    1.656    39 C    1.170    63 H    0.975
    41   6 C    3.962 --    40 C    1.656    42 C    1.171    64 H    0.975
    42   6 C    3.922 --    44 C    1.365    43 N    1.217    41 C    1.171
    43   7 N    3.407 --    39 C    1.218    42 C    1.217    37 Ni   0.665
    44   6 C    3.945 --    45 C    1.367    42 C    1.365    65 H    0.970
    45   6 C    3.917 --    44 C    1.367    48 N    1.205    46 C    1.177
    46   6 C    3.959 --    47 C    1.643    45 C    1.177    66 H    0.975
    47   6 C    3.962 --    46 C    1.643    49 C    1.185    67 H    0.972
    48   7 N    3.411 --    49 C    1.239    45 C    1.205    37 Ni   0.662
    49   6 C    3.912 --    50 C    1.275    48 N    1.239    47 C    1.185
    50   6 C    3.949 --    49 C    1.275    51 C    1.275    74 C    1.160
    51   6 C    3.912 --    50 C    1.275    55 N    1.239    52 C    1.185
    52   6 C    3.962 --    53 C    1.643    51 C    1.185    68 H    0.972
    53   6 C    3.959 --    52 C    1.643    54 C    1.177    69 H    0.975
    54   6 C    3.917 --    56 C    1.367    55 N    1.205    53 C    1.177
    55   7 N    3.411 --    51 C    1.239    54 C    1.205    37 Ni   0.662
    56   6 C    3.945 --    54 C    1.367    57 C    1.365    70 H    0.970
    57   6 C    3.922 --    56 C    1.365    61 N    1.217    58 C    1.171
    58   6 C    3.962 --    59 C    1.656    57 C    1.171    71 H    0.975
    59   6 C    3.960 --    58 C    1.656    60 C    1.170    72 H    0.975
    60   6 C    3.923 --    38 C    1.365    61 N    1.218    59 C    1.170
    61   7 N    3.407 --    60 C    1.218    57 C    1.217    37 Ni   0.665
    62   1 H    1.000 --    38 C    0.970
    63   1 H    0.998 --    40 C    0.975
    64   1 H    0.998 --    41 C    0.975
    65   1 H    1.000 --    44 C    0.970
    66   1 H    0.998 --    46 C    0.975
    67   1 H    1.004 --    47 C    0.972
    68   1 H    1.004 --    52 C    0.972
    69   1 H    0.998 --    53 C    0.975
    70   1 H    1.000 --    56 C    0.970
    71   1 H    0.998 --    58 C    0.975
    72   1 H    0.998 --    59 C    0.975
    73   6 C    3.937 --    74 C    2.596    14 C    1.160
    74   6 C    3.937 --    73 C    2.596    50 C    1.160
 ---------------------------------------------------------------------------

           -------------------------------------------------
          | TOTAL ENERGY             -134.427458857783 Eh   |
          | GRADIENT NORM               0.000276388842 Eh/α |
          | HOMO-LUMO GAP               1.330153959290 eV   |
           -------------------------------------------------

 * finished run on 2022/07/30 at 02:04:19.572
