   * xtb version 6.5.1 (b24c23e) compiled by 'conda@728c89f4b128' on 2022-07-12
          program call               : xtb Zn_Ph2Me_C6_3.xyz --gfn 1 --opt -T 48

   ID    Z sym.   atoms
    1   30 Zn     1, 69, 149
    2    6 C      2-6, 8-11, 13-31, 34-41, 70-74, 76-79, 81-99, 102-109,
                  137-148, 150-154, 156-159, 161-179, 182-189
    3    7 N      7, 12, 32, 33, 75, 80, 100, 101, 155, 160, 180, 181
    4    1 H      42-68, 110-136, 190-215

          :  Hamiltonian                  GFN1-xTB          :
 * total energy  :  -336.3852693 Eh     change       -0.1851959E-09 Eh
 * total energy  :  -336.8399829 Eh     change       -0.4547136E+00 Eh
 * total energy  :  -336.9798841 Eh     change       -0.1399012E+00 Eh
 * total energy  :  -337.0838757 Eh     change       -0.1039916E+00 Eh
 * total energy  :  -337.1586906 Eh     change       -0.7481491E-01 Eh
 * total energy  :  -337.2006334 Eh     change       -0.4194284E-01 Eh
 * total energy  :  -337.2253482 Eh     change       -0.2471481E-01 Eh
 * total energy  :  -337.2409815 Eh     change       -0.1563328E-01 Eh
 * total energy  :  -337.2487099 Eh     change       -0.7728352E-02 Eh
 * total energy  :  -337.2558121 Eh     change       -0.7102255E-02 Eh
 * total energy  :  -337.2969762 Eh     change       -0.2511737E-04 Eh
 * total energy  :  -337.2969719 Eh     change        0.4344471E-05 Eh
 * total energy  :  -337.2969861 Eh     change       -0.1423048E-04 Eh
 * total energy  :  -337.2969925 Eh     change       -0.6428578E-05 Eh
 * total energy  :  -337.2969983 Eh     change       -0.5776246E-05 Eh
 * total energy  :  -337.2970076 Eh     change       -0.9245740E-05 Eh
 * total energy  :  -337.2970177 Eh     change       -0.1014884E-04 Eh
 * total energy  :  -337.2970262 Eh     change       -0.8464431E-05 Eh
 * total energy  :  -337.2970304 Eh     change       -0.4175714E-05 Eh
   *** GEOMETRY OPTIMIZATION CONVERGED AFTER 79 ITERATIONS ***

 final structure:
================
215
 xtb: 6.5.1 (b24c23e)
Zn          28.35991886849864        0.05874313351896       -0.10491740569677
C           24.95526203565069        0.16588153852837       -0.29383168853307
C           25.59337220871792        1.35026694608933        0.05531334098750
C           24.92888967712265        2.58304436316703        0.37383231566299
C           25.89357701253876        3.48743840636237        0.67704532618544
C           27.16094132591858        2.82068080194632        0.53639119111887
N           26.94288823352523        1.52561807735138        0.16644710852746
C           28.41465318194569        3.40081771403584        0.76376489156936
C           29.64703620137497        2.74822370569611        0.65596146430173
C           30.93138564770794        3.36832891464790        0.83027607966877
C           31.87022481346321        2.40976401408563        0.62372968349509
N           29.83096243283957        1.42869342893304        0.33791306742749
C           31.17055698078847        1.19664288921158        0.31773305918730
C           31.79155120390939       -0.03824330898360        0.04010137371441
C           31.12718618539006       -1.24183604757715       -0.27174774798008
C           31.78318273583386       -2.48373238397867       -0.55841184046033
C           30.81169197080160       -3.39346087943861       -0.82582480287973
C           29.55062242725496       -2.71620307865478       -0.70062580016939
C           28.29765656282974       -3.29531386995444       -0.92614460113851
C           28.27152328119795       -4.74051241615792       -1.26914099317955
C           27.79801966654275       -5.16183758024317       -2.50967895384767
C           27.77647660201812       -6.51467418083068       -2.83642608782492
C           27.25233209224568       -6.95719470141360       -4.17609941010758
C           28.22632314723334       -7.44704502597051       -1.90829797941212
C           28.69950004119373       -7.04186914295545       -0.66242031685332
C           29.19505819199363       -8.06471429708696        0.32420536327829
C           28.72271105868782       -5.68804636554947       -0.35007556510435
C           27.06688986109854       -2.63142256191399       -0.85834772947454
C           25.77808999117305       -3.23807716104170       -1.06231968305080
C           24.84619371902937       -2.26716083250981       -0.89108133769243
C           25.55237526309725       -1.05837373486875       -0.57035170470100
N           26.89400239294620       -1.31186121665615       -0.55763717187806
N           29.78095051432506       -1.40811015996901       -0.36581834796488
C           28.44008256056134        4.83387160208871        1.15355806604390
C           27.96530709897809        5.81166754589616        0.28035442271422
C           27.99084559278624        7.15411150218225        0.64179270077079
C           27.50335808714916        8.20971746435242       -0.31383784250297
C           28.49244994903224        7.51582361915868        1.88892769233713
C           28.96829300044810        6.55171111124853        2.77218637678669
C           29.48622353466078        6.94997527924815        4.12802868336467
C           28.94114890974009        5.21234557946915        2.39811979780739
H           23.87107091859858        0.19699383802585       -0.34264083100985
H           23.85932748463691        2.72463695731359        0.37062814188967
H           25.76343663592908        4.51419025768773        0.97980851040703
H           31.09217497276167        4.40784360391584        1.06686224748913
H           32.94315867567635        2.50898584560129        0.66857350374603
H           32.85144323757799       -2.63174848225178       -0.55818516621475
H           30.93606678627620       -4.42953329763113       -1.09693671278094
H           27.46073791179897       -4.42498412562494       -3.23061048282520
H           27.60023336904835       -7.96114605849360       -4.41926274626091
H           26.16008098078363       -6.96693424672310       -4.16342720068526
H           27.57404231603248       -6.27230237660242       -4.96141448356223
H           28.21009958673576       -8.50342566770172       -2.15632260650149
H           29.29277222234128       -7.63190506423675        1.31972038578003
H           28.51131830860579       -8.91312635947303        0.37453353056352
H           30.17345969801873       -8.43845687445680        0.01431063024394
H           29.07881049084849       -5.35998964447628        0.62045017624291
H           25.61207966051562       -4.27759345299850       -1.29609850532424
H           23.77321028181485       -2.35213385226167       -0.96532500744822
H           27.58967732394609        5.51885310712326       -0.69407601303863
H           27.00703158605883        9.01858177022464        0.22324512513497
H           26.80713181303216        7.78750709290330       -1.03857053876341
H           28.34849030618496        8.63494258609483       -0.86005511430852
H           28.51310289525951        8.56245156520831        2.17505860126737
H           28.66606341562967        6.96226760321889        4.84964871330122
H           29.92657735479608        7.94688156471801        4.09839573240421
H           30.23697218703950        6.24218437902349        4.48011341466363
H           29.29823389243808        4.45054738337771        3.08261642029183
Zn          60.45470283437853        0.05917968377167       -0.07168498190821
C           63.85697195531412        0.22676157870561       -0.25846930914125
C           63.21298707114472       -0.44895786121776       -1.28823208351328
C           63.87078487505477       -1.10111269335572       -2.38592301372502
C           62.90203636824948       -1.65671739699897       -3.15611673370417
C           61.63868435074916       -1.34115090720085       -2.54370969602066
N           61.86328100548894       -0.61512182236699       -1.41058941954312
C           60.38313814514072       -1.73484272897856       -3.02131072543994
C           59.15480779016001       -1.45410861112708       -2.41429734625365
C           57.86760784074557       -1.80934891550515       -2.94518444574384
C           56.93386316251248       -1.33945046125470       -2.07931060756748
N           58.97772656267649       -0.76925345006893       -1.24175607448624
C           57.63937168013350       -0.68983817739164       -1.01357329583676
C           57.02494104957256       -0.06066278793287        0.08740672267387
C           57.69394119174481        0.59389689344922        1.14039521537385
C           57.04411502708572        1.23016766114501        2.24864952234621
C           58.02017609388953        1.74660337499938        3.03807996576214
C           59.27802731120322        1.42793968137790        2.42047933737487
C           60.53393615572932        1.80745330270995        2.90535978812618
C           60.56743974842638        2.54511470049228        4.19435194777300
C           61.04481966585594        3.85279843406183        4.24665330998902
C           61.07488027252455        4.54719115353390        5.45257014966032
C           61.60389940690644        5.95552934887811        5.49708273932792
C           60.62932998642856        3.92058855920502        6.61105536734390
C           60.15180974489156        2.61254525219670        6.57567718165331
C           59.66049548961763        1.95521021944484        7.83727905203740
C           60.12023300541411        1.93164047794329        5.36474545263534
C           61.76103062712208        1.55388787460947        2.28096505403778
C           63.05289241858014        1.92494442206972        2.79506819567605
C           63.97909369797684        1.48912950146997        1.90484017089903
C           63.26659548597112        0.83645278380876        0.84220406548209
N           61.92682997413683        0.89142652186601        1.09975694082269
N           59.04137154244388        0.73029320428687        1.26610411407366
C           60.35015592205024       -2.51509981164083       -4.28489461559811
C           60.80113150387444       -1.94707204247049       -5.47559770123312
C           60.76667990859030       -2.67202861029168       -6.66161857247871
C           61.22719321721848       -2.04585314545040       -7.95039433454795
C           60.28057506391859       -3.97636988946708       -6.65030569250887
C           59.82886633159752       -4.55798371867627       -5.46970857804621
C           59.32739851071511       -5.97703346376357       -5.46291227200127
C           59.86438187533805       -3.82161653910161       -4.29022776375977
H           64.94045553201934        0.27101547153336       -0.31242388322485
H           64.93909902394878       -1.13057860064192       -2.53377932430665
H           63.02666060278307       -2.23882598601146       -4.05525909893720
H           57.70178333068309       -2.33837528945090       -3.86986515813655
H           55.86068447250489       -1.41736225708075       -2.15168239899617
H           55.97653516548535        1.27499529853273        2.39479883004596
H           57.90130316750768        2.30611631451073        3.95201187303642
H           61.37845669023662        4.33609717282699        3.33479106425573
H           61.25784814734175        6.47458326746920        6.39090406128992
H           62.69612483141866        5.94220438830282        5.51012436212733
H           61.28425148444788        6.51554953091387        4.61760524810319
H           60.65251331388181        4.45599260766198        7.55472681336469
H           59.56907420492645        0.87711614008248        7.70584891823334
H           60.34298670815911        2.15264520514588        8.66491632436186
H           58.67964943958157        2.35276719670500        8.10717620292434
H           59.76095768996889        0.90904426655863        5.32524806201055
H           63.22476016695057        2.44387874427307        3.72456300341021
H           65.05217929807446        1.58821725475502        1.95661804383314
H           61.16489219777469       -0.92529862078140       -5.47410084795569
H           61.72053530864157       -2.78306049407659       -8.58455462165572
H           61.91850920605263       -1.22499377337568       -7.75930175088076
H           60.36906733212543       -1.64889503071905       -8.49763321194680
H           60.25288948933100       -4.54582065453932       -7.57371748403756
H           60.15832648257908       -6.66349236465303       -5.28436262615884
H           58.87536869248752       -6.23403463785527       -6.42116427625816
H           58.59017727538539       -6.12449153431236       -4.67339563824235
H           59.52559274302040       -4.26779849881094       -3.36150740827607
C           36.99284475496193       -0.11144871616942        0.08990766008794
C           35.76430909774576       -0.10213233274451        0.08948126426136
C           34.42013342901564       -0.08729268428532        0.07880802938603
C           33.19619377348246       -0.06800995712069        0.06595080870851
C           38.33702051200947       -0.11677944417318        0.08872661344598
C           39.56130108992065       -0.11871413483921        0.08403772145601
C           53.05011964747742       -0.09207637453105        0.16524484457642
C           51.82220771439550       -0.09598240725545        0.16518288972246
C           50.47679833709717       -0.10400756643147        0.15640261590926
C           49.25323459281439       -0.10531720898347        0.13811270298409
C           54.39556986245266       -0.08588102070265        0.15250309130943
C           55.61886508967519       -0.07813584709166        0.12935777886604
Zn          44.40723972513327       -0.11557688289255        0.07818861932180
C           40.96597831353871       -0.11880978478680        0.07846033721199
C           41.60925905411238        1.12871556749837       -0.05462364985767
C           40.93172729125325        2.38663970240942       -0.16355665772232
C           41.88776055978091        3.34262953807783       -0.28953309713867
C           43.15919200176383        2.67533169959750       -0.26447914721003
N           42.95275306881750        1.33025561735503       -0.11158095043677
C           44.40437105612516        3.30627412932293       -0.35596287153215
C           45.65082912646835        2.67661248873105       -0.27321929873555
C           46.92226991229728        3.33218632430271       -0.40120703858425
C           47.87952157609146        2.37940084321981       -0.26198108945365
N           45.85860505057920        1.33756904060118       -0.07586604518282
C           47.20297417308737        1.13218743863280       -0.06100029781193
C           47.84720533500888       -0.10873109976528        0.11531166445625
C           47.20471471566061       -1.35375127518978        0.26584816297484
C           47.88223335947448       -2.60126848334803        0.46139897381645
C           46.92657756478798       -3.56089442946723        0.55779617565931
C           45.65528485868414       -2.90803372116814        0.41495381147415
C           44.41013819614928       -3.54380352405745        0.46692763555445
C           44.41295832486586       -5.02030561882254        0.62922415850376
C           43.84693606814483       -5.60520580502874        1.76034120936384
C           43.84645683496665       -6.98783244722706        1.91649122931326
C           43.25157474069199       -7.60745308590861        3.15228602010751
C           44.41687917977751       -7.78540565625246        0.93000197277653
C           44.98457786375541       -7.21622949728170       -0.20699406845744
C           45.61093520617977       -8.09165601876815       -1.25881033193926
C           44.98186316032201       -5.83364797176723       -0.35062566224404
C           43.16375876367925       -2.91428687572598        0.38230626996628
C           41.89310653145190       -3.58343873274475        0.39804005193081
C           40.93560707956888       -2.62639108301462        0.29315790249469
C           41.61141502174021       -1.36623414998459        0.20122575303514
N           42.95529589549602       -1.56697329345551        0.25211209654917
N           45.86128443639914       -1.56490108278009        0.24692969162761
C           44.40147861371928        4.77756357801658       -0.56079108020879
C           44.95145356402702        5.62507773986565        0.39930065572369
C           44.94671642021589        7.00342110684618        0.21129899838494
C           45.55565947706413        7.91032107678608        1.24653232267536
C           44.39175239179003        7.53145722857181       -0.95017841387476
C           43.83909938822748        6.69818274090263       -1.91865457933418
C           43.25894051685635        7.27958244583404       -3.17975488348589
C           43.84574107240955        5.32236285460313       -1.71783405754709
H           39.86123216530286        2.51511475882126       -0.14053729377102
H           41.74664346347304        4.40769464221643       -0.37934141801221
H           47.06310203944159        4.38519990846498       -0.58463420344095
H           48.95034669211547        2.50137713504792       -0.30015417348219
H           48.95245576151697       -2.71945879988370        0.52191386031256
H           47.06811146637619       -4.61685299951891        0.72285653929657
H           43.41635175439617       -4.97279879649154        2.52910815006083
H           42.94409481740952       -8.63600959766294        2.96311578587783
H           43.99067015967720       -7.61474997171552        3.95670229223056
H           42.38700674807838       -7.03709812478002        3.49310014291526
H           44.41711182547854       -8.86447071751267        1.04538719912260
H           45.69160198778260       -7.56321339054255       -2.20871236010884
H           45.02316253114375       -8.99807687590771       -1.40768174757599
H           46.61480704772379       -8.38761963849672       -0.94582191202115
H           45.40762012702472       -5.37892517245921       -1.23847924568908
H           41.75293736150714       -4.65001412813349        0.46926622935309
H           39.86515691946898       -2.75552199699827        0.27159178393959
H           45.36806360018898        5.20292888872268        1.30734015386929
H           45.08941000020655        8.89546412654255        1.22391637953614
H           46.62292266178360        8.03429225577432        1.04877812430036
H           45.44348204620361        7.48878061797488        2.24572732118715
H           44.38599166728046        8.60605071216924       -1.10153174160113
H           42.80349357512961        8.25093024647461       -2.98514743626219
H           42.50622193594285        6.61493973951077       -3.60403916630486
H           44.04832563744657        7.41803193308514       -3.92215645210453
H           43.42817817451472        4.66190184234613       -2.47001615186140

          :  Hamiltonian                  GFN1-xTB          :
         :: total energy            -337.297030356504 Eh    ::
         :: gradient norm              0.000587033617 Eh/a0 ::
         :: HOMO-LUMO gap              1.001214839625 eV    ::
         :: SCC energy              -342.976107537905 Eh    ::
         :: repulsion energy           5.861782442461 Eh    ::

    * Orbital Energies and Occupations

         #    Occupation            Energy/Eh            Energy/eV
      -------------------------------------------------------------
         1        2.0000           -0.7569281             -20.5971
       ...           ...                  ...                  ...
       301        2.0000           -0.4169788             -11.3466
       302        2.0000           -0.4168446             -11.3429
       303        2.0000           -0.4168041             -11.3418
       304        2.0000           -0.4147178             -11.2850
       305        2.0000           -0.4097552             -11.1500
       306        2.0000           -0.4071917             -11.0802
       307        2.0000           -0.4054949             -11.0341
       308        2.0000           -0.3903297             -10.6214
       309        2.0000           -0.3894994             -10.5988
       310        2.0000           -0.3894468             -10.5974
       311        2.0000           -0.3813176             -10.3762
       312        2.0000           -0.3769042             -10.2561
       313        2.0000           -0.3714768             -10.1084 (HOMO)
       314                         -0.3346829              -9.1072 (LUMO)
       315                         -0.3271927              -8.9034
       316                         -0.3230678              -8.7911
       317                         -0.3223655              -8.7720
       318                         -0.3217745              -8.7559
       319                         -0.3217027              -8.7540
       320                         -0.2988205              -8.1313
       321                         -0.2913095              -7.9269
       322                         -0.2886179              -7.8537
       323                         -0.2769341              -7.5358
       324                         -0.2683266              -7.3015
       ...                                ...                  ...
       700                          1.5852684              43.1373
      -------------------------------------------------------------
                  HL-Gap            0.0367940 Eh            1.0012 eV

Wiberg/Mayer (AO) data.
largest (>0.10) Wiberg bond orders for each atom

     #   Z sym  total        # sym  WBO       # sym  WBO       # sym  WBO
 ---------------------------------------------------------------------------
     1  30 Zn   1.999 --    32 N    0.460     7 N    0.460    12 N    0.457
                            33 N    0.456
     2   6 C    3.926 --    31 C    1.357     3 C    1.357    42 H    0.971
     3   6 C    3.923 --     2 C    1.357     7 N    1.233     4 C    1.171
     4   6 C    3.960 --     5 C    1.658     3 C    1.171    43 H    0.976
     5   6 C    3.963 --     4 C    1.658     6 C    1.173    44 H    0.973
     6   6 C    3.918 --     8 C    1.314     7 N    1.244     5 C    1.173
     7   7 N    3.294 --     6 C    1.244     3 C    1.233     1 Zn   0.460
     8   6 C    3.933 --     9 C    1.325     6 C    1.314    34 C    1.025
     9   6 C    3.913 --     8 C    1.325    12 N    1.224    10 C    1.179
    10   6 C    3.960 --    11 C    1.646     9 C    1.179    45 H    0.973
    11   6 C    3.962 --    10 C    1.646    13 C    1.186    46 H    0.974
    12   7 N    3.297 --    13 C    1.264     9 C    1.224     1 Zn   0.457
    13   6 C    3.902 --    12 N    1.264    14 C    1.253    11 C    1.186
    14   6 C    3.938 --    15 C    1.253    13 C    1.253   140 C    1.193
    15   6 C    3.902 --    33 N    1.264    14 C    1.253    16 C    1.186
    16   6 C    3.962 --    17 C    1.646    15 C    1.186    47 H    0.974
    17   6 C    3.960 --    16 C    1.646    18 C    1.179    48 H    0.973
    18   6 C    3.913 --    19 C    1.326    33 N    1.224    17 C    1.179
    19   6 C    3.933 --    18 C    1.326    28 C    1.314    20 C    1.024
    20   6 C    3.988 --    21 C    1.403    27 C    1.392    19 C    1.024
                            24 C    0.103
    21   6 C    3.986 --    22 C    1.411    20 C    1.403    49 H    0.972
                            25 C    0.104
    22   6 C    3.988 --    24 C    1.422    21 C    1.411    23 C    1.019
                            27 C    0.103
    23   6 C    3.996 --    22 C    1.019    50 H    0.984    52 H    0.981
                            51 H    0.972
    24   6 C    3.988 --    22 C    1.422    25 C    1.409    53 H    0.972
                            20 C    0.103
    25   6 C    3.988 --    27 C    1.423    24 C    1.409    26 C    1.020
                            21 C    0.104
    26   6 C    3.996 --    25 C    1.020    54 H    0.985    55 H    0.979
                            56 H    0.972
    27   6 C    3.987 --    25 C    1.423    20 C    1.392    57 H    0.971
                            22 C    0.103
    28   6 C    3.918 --    19 C    1.314    32 N    1.244    29 C    1.173
    29   6 C    3.963 --    30 C    1.658    28 C    1.173    58 H    0.973
    30   6 C    3.960 --    29 C    1.658    31 C    1.171    59 H    0.976
    31   6 C    3.923 --     2 C    1.357    32 N    1.233    30 C    1.171
    32   7 N    3.294 --    28 C    1.244    31 C    1.233     1 Zn   0.460
    33   7 N    3.297 --    15 C    1.264    18 C    1.224     1 Zn   0.456
    34   6 C    3.988 --    41 C    1.398    35 C    1.396     8 C    1.025
                            38 C    0.103
    35   6 C    3.986 --    36 C    1.419    34 C    1.396    60 H    0.972
                            39 C    0.103
    36   6 C    3.988 --    35 C    1.419    38 C    1.414    37 C    1.020
                            41 C    0.104
    37   6 C    3.996 --    36 C    1.020    62 H    0.984    61 H    0.981
                            63 H    0.971
    38   6 C    3.988 --    39 C    1.417    36 C    1.414    64 H    0.972
                            34 C    0.103
    39   6 C    3.988 --    38 C    1.417    41 C    1.416    40 C    1.020
                            35 C    0.103
    40   6 C    3.996 --    39 C    1.020    67 H    0.983    66 H    0.983
                            65 H    0.971
    41   6 C    3.986 --    39 C    1.416    34 C    1.398    68 H    0.972
                            36 C    0.104
    42   1 H    1.002 --     2 C    0.971
    43   1 H    0.998 --     4 C    0.976
    44   1 H    1.006 --     5 C    0.973
    45   1 H    1.005 --    10 C    0.973
    46   1 H    1.002 --    11 C    0.974
    47   1 H    1.002 --    16 C    0.974
    48   1 H    1.005 --    17 C    0.973
    49   1 H    1.003 --    21 C    0.972
    50   1 H    1.004 --    23 C    0.984
    51   1 H    1.006 --    23 C    0.972
    52   1 H    1.005 --    23 C    0.981
    53   1 H    1.000 --    24 C    0.972
    54   1 H    1.004 --    26 C    0.985
    55   1 H    1.005 --    26 C    0.979
    56   1 H    1.006 --    26 C    0.972
    57   1 H    1.003 --    27 C    0.971
    58   1 H    1.005 --    29 C    0.973
    59   1 H    0.998 --    30 C    0.976
    60   1 H    1.003 --    35 C    0.972
    61   1 H    1.005 --    37 C    0.981
    62   1 H    1.004 --    37 C    0.984
    63   1 H    1.006 --    37 C    0.971
    64   1 H    1.000 --    38 C    0.972
    65   1 H    1.006 --    40 C    0.971
    66   1 H    1.004 --    40 C    0.983
    67   1 H    1.004 --    40 C    0.983
    68   1 H    1.003 --    41 C    0.972
    69  30 Zn   1.999 --   100 N    0.460    75 N    0.460   101 N    0.457
                            80 N    0.457
    70   6 C    3.928 --    99 C    1.357    71 C    1.357   110 H    0.971
    71   6 C    3.923 --    70 C    1.357    75 N    1.233    72 C    1.171
    72   6 C    3.960 --    73 C    1.658    71 C    1.171   111 H    0.976
    73   6 C    3.963 --    72 C    1.658    74 C    1.173   112 H    0.973
    74   6 C    3.918 --    76 C    1.315    75 N    1.244    73 C    1.173
    75   7 N    3.295 --    74 C    1.244    71 C    1.233    69 Zn   0.460
    76   6 C    3.934 --    77 C    1.325    74 C    1.315   102 C    1.024
    77   6 C    3.913 --    76 C    1.325    80 N    1.225    78 C    1.178
    78   6 C    3.961 --    79 C    1.647    77 C    1.178   113 H    0.973
    79   6 C    3.962 --    78 C    1.647    81 C    1.185   114 H    0.974
    80   7 N    3.298 --    81 C    1.262    77 C    1.225    69 Zn   0.457
    81   6 C    3.904 --    80 N    1.262    82 C    1.256    79 C    1.185
    82   6 C    3.939 --    83 C    1.257    81 C    1.256   148 C    1.185
    83   6 C    3.904 --   101 N    1.261    82 C    1.257    84 C    1.185
    84   6 C    3.962 --    85 C    1.647    83 C    1.185   115 H    0.974
    85   6 C    3.961 --    84 C    1.647    86 C    1.178   116 H    0.973
    86   6 C    3.913 --    87 C    1.325   101 N    1.225    85 C    1.178
    87   6 C    3.934 --    86 C    1.325    96 C    1.315    88 C    1.024
    88   6 C    3.988 --    89 C    1.403    95 C    1.392    87 C    1.024
                            92 C    0.103
    89   6 C    3.986 --    90 C    1.411    88 C    1.403   117 H    0.972
                            93 C    0.104
    90   6 C    3.988 --    92 C    1.422    89 C    1.411    91 C    1.019
                            95 C    0.103
    91   6 C    3.996 --    90 C    1.019   118 H    0.984   120 H    0.981
                           119 H    0.972
    92   6 C    3.988 --    90 C    1.422    93 C    1.409   121 H    0.972
                            88 C    0.103
    93   6 C    3.988 --    95 C    1.423    92 C    1.409    94 C    1.020
                            89 C    0.104
    94   6 C    3.996 --    93 C    1.020   122 H    0.985   123 H    0.980
                           124 H    0.972
    95   6 C    3.987 --    93 C    1.423    88 C    1.392   125 H    0.972
                            90 C    0.103
    96   6 C    3.918 --    87 C    1.315   100 N    1.244    97 C    1.173
    97   6 C    3.963 --    98 C    1.658    96 C    1.173   126 H    0.973
    98   6 C    3.960 --    97 C    1.658    99 C    1.171   127 H    0.976
    99   6 C    3.923 --    70 C    1.357   100 N    1.233    98 C    1.171
   100   7 N    3.295 --    96 C    1.244    99 C    1.233    69 Zn   0.460
   101   7 N    3.298 --    83 C    1.261    86 C    1.225    69 Zn   0.457
   102   6 C    3.988 --   109 C    1.398   103 C    1.396    76 C    1.024
                           106 C    0.103
   103   6 C    3.986 --   104 C    1.419   102 C    1.396   128 H    0.972
                           107 C    0.103
   104   6 C    3.988 --   103 C    1.419   106 C    1.414   105 C    1.020
                           109 C    0.104
   105   6 C    3.996 --   104 C    1.020   130 H    0.984   129 H    0.981
                           131 H    0.971
   106   6 C    3.988 --   107 C    1.417   104 C    1.414   132 H    0.972
                           102 C    0.103
   107   6 C    3.988 --   106 C    1.417   109 C    1.416   108 C    1.020
                           103 C    0.103
   108   6 C    3.996 --   107 C    1.020   135 H    0.983   134 H    0.983
                           133 H    0.971
   109   6 C    3.987 --   107 C    1.416   102 C    1.398   136 H    0.972
                           104 C    0.104
   110   1 H    1.002 --    70 C    0.971
   111   1 H    0.998 --    72 C    0.976
   112   1 H    1.005 --    73 C    0.973
   113   1 H    1.005 --    78 C    0.973
   114   1 H    1.002 --    79 C    0.974
   115   1 H    1.002 --    84 C    0.974
   116   1 H    1.005 --    85 C    0.973
   117   1 H    1.003 --    89 C    0.972
   118   1 H    1.004 --    91 C    0.984
   119   1 H    1.006 --    91 C    0.972
   120   1 H    1.005 --    91 C    0.981
   121   1 H    1.000 --    92 C    0.972
   122   1 H    1.004 --    94 C    0.985
   123   1 H    1.005 --    94 C    0.980
   124   1 H    1.006 --    94 C    0.972
   125   1 H    1.003 --    95 C    0.972
   126   1 H    1.005 --    97 C    0.973
   127   1 H    0.998 --    98 C    0.976
   128   1 H    1.003 --   103 C    0.972
   129   1 H    1.005 --   105 C    0.981
   130   1 H    1.004 --   105 C    0.984
   131   1 H    1.006 --   105 C    0.971
   132   1 H    1.000 --   106 C    0.972
   133   1 H    1.006 --   108 C    0.971
   134   1 H    1.004 --   108 C    0.983
   135   1 H    1.004 --   108 C    0.983
   136   1 H    1.003 --   109 C    0.972
   137   6 C    3.925 --   138 C    2.366   141 C    1.336   140 C    0.190
   138   6 C    3.924 --   137 C    2.366   139 C    1.336   142 C    0.190
   139   6 C    3.933 --   140 C    2.447   138 C    1.336
   140   6 C    3.889 --   139 C    2.447    14 C    1.193   137 C    0.190
   141   6 C    3.931 --   142 C    2.445   137 C    1.336
   142   6 C    3.890 --   141 C    2.445   150 C    1.195   138 C    0.190
   143   6 C    3.922 --   144 C    2.374   147 C    1.329   146 C    0.189
   144   6 C    3.923 --   143 C    2.374   145 C    1.329   148 C    0.189
   145   6 C    3.930 --   146 C    2.453   144 C    1.329
   146   6 C    3.889 --   145 C    2.453   162 C    1.188   143 C    0.189
   147   6 C    3.933 --   148 C    2.455   143 C    1.329
   148   6 C    3.888 --   147 C    2.455    82 C    1.185   144 C    0.189
   149  30 Zn   1.996 --   160 N    0.457   155 N    0.457   181 N    0.457
                           180 N    0.457
   150   6 C    3.927 --   179 C    1.251   151 C    1.251   142 C    1.195
   151   6 C    3.903 --   155 N    1.263   150 C    1.251   152 C    1.188
   152   6 C    3.960 --   153 C    1.643   151 C    1.188   190 H    0.974
   153   6 C    3.961 --   152 C    1.643   154 C    1.182   191 H    0.973
   154   6 C    3.911 --   156 C    1.320   155 N    1.224   153 C    1.182
   155   7 N    3.293 --   151 C    1.263   154 C    1.224   149 Zn   0.457
   156   6 C    3.929 --   154 C    1.320   157 C    1.320   182 C    1.025
   157   6 C    3.911 --   156 C    1.320   160 N    1.225   158 C    1.181
   158   6 C    3.961 --   159 C    1.644   157 C    1.181   192 H    0.973
   159   6 C    3.960 --   158 C    1.644   161 C    1.188   193 H    0.974
   160   7 N    3.292 --   161 C    1.262   157 C    1.225   149 Zn   0.457
   161   6 C    3.904 --   160 N    1.262   162 C    1.254   159 C    1.188
   162   6 C    3.927 --   163 C    1.254   161 C    1.254   146 C    1.188
   163   6 C    3.904 --   181 N    1.262   162 C    1.254   164 C    1.188
   164   6 C    3.960 --   165 C    1.644   163 C    1.188   194 H    0.974
   165   6 C    3.961 --   164 C    1.644   166 C    1.181   195 H    0.973
   166   6 C    3.911 --   167 C    1.320   181 N    1.225   165 C    1.181
   167   6 C    3.929 --   176 C    1.321   166 C    1.320   168 C    1.025
   168   6 C    3.988 --   169 C    1.400   175 C    1.393   167 C    1.025
                           172 C    0.103
   169   6 C    3.986 --   170 C    1.414   168 C    1.400   196 H    0.972
                           173 C    0.104
   170   6 C    3.988 --   172 C    1.419   169 C    1.414   171 C    1.020
                           175 C    0.103
   171   6 C    3.996 --   170 C    1.020   197 H    0.984   199 H    0.982
                           198 H    0.971
   172   6 C    3.988 --   170 C    1.419   173 C    1.411   200 H    0.972
                           168 C    0.103
   173   6 C    3.988 --   175 C    1.421   172 C    1.411   174 C    1.020
                           169 C    0.104
   174   6 C    3.996 --   173 C    1.020   201 H    0.984   202 H    0.981
                           203 H    0.972
   175   6 C    3.986 --   173 C    1.421   168 C    1.393   204 H    0.972
                           170 C    0.103
   176   6 C    3.911 --   167 C    1.321   180 N    1.224   177 C    1.182
   177   6 C    3.960 --   178 C    1.643   176 C    1.182   205 H    0.973
   178   6 C    3.960 --   177 C    1.643   179 C    1.188   206 H    0.974
   179   6 C    3.903 --   180 N    1.264   150 C    1.251   178 C    1.188
   180   7 N    3.292 --   179 C    1.264   176 C    1.224   149 Zn   0.457
   181   7 N    3.292 --   163 C    1.262   166 C    1.225   149 Zn   0.457
   182   6 C    3.988 --   183 C    1.399   189 C    1.395   156 C    1.025
                           186 C    0.103
   183   6 C    3.986 --   184 C    1.415   182 C    1.399   207 H    0.972
                           187 C    0.104
   184   6 C    3.988 --   186 C    1.417   183 C    1.415   185 C    1.020
                           189 C    0.103
   185   6 C    3.996 --   184 C    1.020   208 H    0.983   210 H    0.982
                           209 H    0.971
   186   6 C    3.988 --   184 C    1.417   187 C    1.413   211 H    0.972
                           182 C    0.103
   187   6 C    3.988 --   189 C    1.419   186 C    1.413   188 C    1.020
                           183 C    0.104
   188   6 C    3.996 --   187 C    1.020   213 H    0.983   212 H    0.982
                           214 H    0.971
   189   6 C    3.986 --   187 C    1.419   182 C    1.395   215 H    0.972
                           184 C    0.103
   190   1 H    1.002 --   152 C    0.974
   191   1 H    1.005 --   153 C    0.973
   192   1 H    1.005 --   158 C    0.973
   193   1 H    1.002 --   159 C    0.974
   194   1 H    1.002 --   164 C    0.974
   195   1 H    1.005 --   165 C    0.973
   196   1 H    1.003 --   169 C    0.972
   197   1 H    1.004 --   171 C    0.984
   198   1 H    1.006 --   171 C    0.971
   199   1 H    1.004 --   171 C    0.982
   200   1 H    1.000 --   172 C    0.972
   201   1 H    1.004 --   174 C    0.984
   202   1 H    1.005 --   174 C    0.981
   203   1 H    1.006 --   174 C    0.972
   204   1 H    1.003 --   175 C    0.972
   205   1 H    1.005 --   177 C    0.973
   206   1 H    1.002 --   178 C    0.974
   207   1 H    1.003 --   183 C    0.972
   208   1 H    1.004 --   185 C    0.983
   209   1 H    1.006 --   185 C    0.971
   210   1 H    1.004 --   185 C    0.982
   211   1 H    1.000 --   186 C    0.972
   212   1 H    1.004 --   188 C    0.982
   213   1 H    1.004 --   188 C    0.983
   214   1 H    1.006 --   188 C    0.971
   215   1 H    1.003 --   189 C    0.972
 ---------------------------------------------------------------------------

           -------------------------------------------------
          | TOTAL ENERGY             -337.297030356504 Eh   |
          | GRADIENT NORM               0.000587033617 Eh/α |
          | HOMO-LUMO GAP               1.001214839625 eV   |
           -------------------------------------------------

 * finished run on 2022/07/30 at 09:46:23.624
