   * xtb version 6.5.1 (b24c23e) compiled by 'conda@728c89f4b128' on 2022-07-12
          program call               : xtb m-CP_C8_2.xyz --gfn 1 --opt -T 48

   ID    Z sym.   atoms
    1    6 C      1-5, 7-11, 14-19, 21-26, 28-34, 37-41, 64-68, 70-74, 77-82,
                  84-89, 91-97, 100-104, 127-134
    2    7 N      6, 20, 27, 42, 69, 83, 90, 105
    3    8 O      12, 13, 35, 36, 75, 76, 98, 99
    4    1 H      43-63, 106-126
########################################################################
[WARNING] Please study the warnings concerning your input carefully
-1- prog_main_parseArguments: Unknown option '-T' provided
########################################################################

          :  Hamiltonian                  GFN1-xTB          :
 * total energy  :  -245.3912690 Eh     change       -0.1783263E-08 Eh
 * total energy  :  -245.9937880 Eh     change       -0.6025190E+00 Eh
 * total energy  :  -246.1165593 Eh     change       -0.1227714E+00 Eh
 * total energy  :  -246.1710467 Eh     change       -0.5448737E-01 Eh
 * total energy  :  -246.1892266 Eh     change       -0.1817988E-01 Eh
 * total energy  :  -246.1988658 Eh     change       -0.9639199E-02 Eh
 * total energy  :  -246.2036846 Eh     change       -0.4818832E-02 Eh
 * total energy  :  -246.2063798 Eh     change       -0.2695195E-02 Eh
 * total energy  :  -246.2081687 Eh     change       -0.1788865E-02 Eh
 * total energy  :  -246.2101941 Eh     change       -0.2025383E-02 Eh
 * total energy  :  -246.2193912 Eh     change        0.9040481E-04 Eh
 * total energy  :  -246.2194856 Eh     change       -0.9439748E-04 Eh
 * total energy  :  -246.2195025 Eh     change       -0.1693719E-04 Eh
 * total energy  :  -246.2194878 Eh     change        0.1470009E-04 Eh
 * total energy  :  -246.2195111 Eh     change       -0.2326954E-04 Eh
 * total energy  :  -246.2195153 Eh     change       -0.4201949E-05 Eh
 * total energy  :  -246.2195236 Eh     change       -0.8281827E-05 Eh
 * total energy  :  -246.2195309 Eh     change       -0.7288454E-05 Eh
 * total energy  :  -246.2195343 Eh     change       -0.3417703E-05 Eh
   *** GEOMETRY OPTIMIZATION CONVERGED AFTER 77 ITERATIONS ***

 final structure:
================
134
 xtb: 6.5.1 (b24c23e)
C            9.83454882797250       -0.11573209156496       -0.69364059955080
C           10.43990803376060        1.10676304088783       -0.95405129125006
C            9.78719202577008        2.32082015929345       -1.30848940715851
C           10.74297824221525        3.28678850405871       -1.45146690869069
C           12.01183412674332        2.69134701458425       -1.19826342311122
N           11.77783357141041        1.37919083302478       -0.90013331557024
C           13.26699175355592        3.31002133188519       -1.21147746551529
C           13.29647064992719        4.74808775102831       -1.57651054497994
C           13.77289620415527        5.69535055919106       -0.67438173630833
C           13.80018345091430        7.04676230494764       -1.01585529780867
C           14.31771640189120        8.00798252038810       -0.00936701451491
O           14.31339426996263        9.28058818324698       -0.43215845151610
O           14.71016673090901        7.69949396081976        1.08654481187419
C           13.35008808774487        7.46055940586610       -2.26957032279507
C           12.87566563248929        6.51952561676418       -3.16976617743887
C           12.84669926302731        5.17459025579756       -2.82838350260187
C           14.47675283069890        2.68033318142928       -0.91052373659904
C           15.77236570843595        3.33063560066161       -0.99665348057165
C           16.68939221316209        2.40124571118599       -0.65858792854616
N           14.63011690345554        1.38036901831231       -0.53548086196451
C           15.95373121473615        1.18468983427903       -0.37114952477227
C           16.58936540947876       -0.01457432408886        0.01097733656195
C           15.95519724662386       -1.23852798860754        0.29758841873833
C           16.59831513889014       -2.44797168669391        0.67225088598571
C           15.63490637594830       -3.40346661882928        0.84081379477418
C           14.37185322965649       -2.80369679313633        0.57833353528301
N           14.61771332101177       -1.49580114643344        0.25358292509451
C           13.11752248791696       -3.42224637704791        0.59626605176916
C           13.08361819674772       -4.85123547175964        0.99435483570803
C           12.61975490270282       -5.82403533375953        0.10582094844821
C           12.58452142565685       -7.16110675528034        0.47650598094295
C           13.00776315953705       -7.54372265686291        1.73837774915353
C           13.47305972170618       -6.58107480673097        2.63545660322095
C           13.91424968183259       -7.03013638518934        3.98004647117826
O           14.35210722869312       -6.03300517994627        4.76223475376999
O           13.89109124226125       -8.17444323153889        4.35505926679150
C           13.51250320185574       -5.23925867939389        2.26193598309083
C           11.90930107887609       -2.79707453069238        0.27109889200206
C           10.60760119118395       -3.44277601139748        0.34503296382596
C            9.69993874326628       -2.51541993183884       -0.02036462182616
C           10.44462381824508       -1.30194114746739       -0.30768662656839
N           11.77126776213060       -1.50839190241612       -0.12045981147983
H            8.75373197894799       -0.13308560284373       -0.79138633688595
H            8.72092794582528        2.42964758572467       -1.42684943712486
H           10.58716497512749        4.32438381140338       -1.69873790773863
H           12.50091583014192        0.71011898218916       -0.65762104896791
H           14.11476572078590        5.39354605015697        0.30960166338734
H           14.66616793548852        9.84170347232155        0.27752702183381
H           13.37339394163774        8.51078612266507       -2.53390957070794
H           12.52739467909158        6.83348740214794       -4.14731871111874
H           12.48850138137023        4.44302027321491       -3.54418195747415
H           15.93783777453869        4.35366946922245       -1.29291689015025
H           17.76144504007893        2.50237535925213       -0.60532990708175
H           17.66363559380959       -2.56351150326614        0.79019815725310
H           15.78368916223541       -4.43615920029980        1.11102994830081
H           13.89879541744260       -0.82390284370204        0.00585233695612
H           12.29933360323730       -5.52831713231291       -0.88687707481887
H           12.22574918364658       -7.90531247933124       -0.22535380234002
H           12.98483850285375       -8.58339036777239        2.04484120056971
H           14.61765963951685       -6.40637228725255        5.61837828906035
H           13.86046687993982       -4.49246151892933        2.96582047575056
H           10.43493542848883       -4.46175106449300        0.65208262851506
H            8.62753287914488       -2.61002318564114       -0.08898842292386
C           35.07754033869335       -0.17927109378037       -0.67967285096508
C           34.47277407246244       -1.40123140093491       -0.41543248092569
C           35.12591774164625       -2.65381188368153       -0.24215724755691
C           34.17050417313863       -3.59395840782890        0.02312261123308
C           32.90146470614393       -2.94739704444618        0.01100069157002
N           33.13499410769651       -1.62806224509492       -0.25395115033242
C           31.64645927721464       -3.51773700546769        0.25194840695165
C           31.61740956850993       -4.97935614042242        0.50682516820318
C           31.14067540487745       -5.47511625497199        1.71722605703090
C           31.11388292671014       -6.84802562269888        1.95820207486628
C           30.59558557812155       -7.31391796808025        3.26934070016668
O           30.60119560945626       -8.64808175428350        3.40422192030389
O           30.20269674417390       -6.58444768049544        4.14325554824706
C           31.56485293439725       -7.73811194991369        0.98353358235392
C           32.03954429568418       -7.24725450904097       -0.22258093869317
C           32.06800957821196       -5.88029344862592       -0.46098775439832
C           30.43648593406296       -2.82040981590340        0.26904144000444
C           29.14103644298021       -3.44967648677397        0.45559993264233
C           28.22367867011628       -2.46357258280959        0.38471709403268
N           30.28269199296643       -1.48067487554600        0.08059534743333
C           28.95897341613052       -1.23539408434685        0.15088149599785
C           28.32307737680868        0.01530995467436        0.01074720828320
C           28.95671902977162        1.24958339733525       -0.22879700338377
C           28.31332730503259        2.50646989413337       -0.38087248580566
C           29.27631000831873        3.44728759305166       -0.61976426662570
C           30.53935411309138        2.79259275894387       -0.61615857153276
N           30.29394577185253        1.46637918244421       -0.37652633674462
C           31.79312908909132        3.36412798726106       -0.85602392804428
C           31.82669203900850        4.83078571262742       -1.07882658319381
C           32.28512648453416        5.35364468496509       -2.29018115258148
C           32.32057116971200        6.72519516024786       -2.50003154863560
C           31.90326009860641        7.59158342320555       -1.50351014167513
C           31.44351519497327        7.08143614823816       -0.28846391487116
C           31.00919004073472        8.04240478511905        0.75658021482225
O           30.57779283289145        7.45370827987211        1.88136090948293
O           31.03260105456276        9.23987660423558        0.62961441755186
C           31.40350499782499        5.70439888476284       -0.07937085603311
C           33.00137878256490        2.66084594553847       -0.89858522368835
C           34.30245682572274        3.28036033911517       -1.09910658541570
C           35.21061144219885        2.28516320253778       -1.05239269945072
C           34.46680253087573        1.06053834105242       -0.81424205683967
N           33.14020163720206        1.32514199714665       -0.72628867847321
H           36.15827659668935       -0.20311587742640       -0.77687134116302
H           36.19218635377535       -2.80125836898028       -0.30622020603220
H           34.32673493120863       -4.64184637152574        0.22196585948406
H           32.41171614619135       -0.91851624599524       -0.30622263136226
H           30.79801899597854       -4.79748715831017        2.49155224048762
H           30.24844147909788       -8.87009906328418        4.28129280156864
H           31.54194471093696       -8.80462755342394        1.17174144226846
H           32.38846048935666       -7.93335454167108       -0.98612491366238
H           32.42650355181153       -5.50527387258307       -1.41319621607272
H           28.97590957134409       -4.50460449168171        0.60262235068819
H           27.15161127605473       -2.53444625233476        0.47424391228432
H           27.24811438125006        2.66020413148385       -0.31874390270295
H           29.12733807269534        4.50017300866822       -0.79545738934682
H           31.01294414288132        0.75194159371460       -0.32874518442827
H           32.60125515576199        4.67681259755803       -3.07601497808762
H           32.67502766195786        7.11618251044275       -3.44695236136639
H           31.92669919855849        8.66553507424897       -1.64992251779997
H           30.31677940980072        8.14532632745615        2.51097642323433
H           31.05967473110494        5.31177073020928        0.87028965125017
H           34.47435491427113        4.33550751514001       -1.23881187658536
H           36.28280820559869        2.34362628051101       -1.15578614685792
C           17.99167025431354       -0.00396907349577        0.10073133879953
C           19.21520920886369        0.01001205122591        0.15500976023961
C           20.55674517368920        0.02373118877417        0.19542921871235
C           21.78747488051944        0.03474744923890        0.21237827692168
C           23.12484108168987        0.04808174345757        0.21127689510413
C           24.35556668328824        0.05598444828318        0.19149225277390
C           25.69710000730462        0.05662343680776        0.14919215116086
C           26.92073519491297        0.04149768270967        0.09706391386322

          :  Hamiltonian                  GFN1-xTB          :
         :: total energy            -246.219534297889 Eh    ::
         :: gradient norm              0.000552446755 Eh/a0 ::
         :: HOMO-LUMO gap              1.031728658522 eV    ::
         :: SCC energy              -250.016742528141 Eh    ::
         :: repulsion energy           3.908137022376 Eh    ::

    * Orbital Energies and Occupations

         #    Occupation            Energy/Eh            Energy/eV
      -------------------------------------------------------------
         1        2.0000           -0.8332408             -22.6736
       ...           ...                  ...                  ...
       205        2.0000           -0.4265999             -11.6084
       206        2.0000           -0.4264478             -11.6042
       207        2.0000           -0.4264366             -11.6039
       208        2.0000           -0.4223825             -11.4936
       209        2.0000           -0.4223231             -11.4920
       210        2.0000           -0.4211507             -11.4601
       211        2.0000           -0.4211403             -11.4598
       212        2.0000           -0.4176046             -11.3636
       213        2.0000           -0.4110063             -11.1841
       214        2.0000           -0.4048568             -11.0167
       215        2.0000           -0.4045658             -11.0088
       216        2.0000           -0.3926914             -10.6857
       217        2.0000           -0.3845636             -10.4645 (HOMO)
       218                         -0.3466483              -9.4328 (LUMO)
       219                         -0.3384566              -9.2099
       220                         -0.3376393              -9.1876
       221                         -0.3364494              -9.1553
       222                         -0.3124524              -8.5023
       223                         -0.3119229              -8.4879
       224                         -0.3108869              -8.4597
       225                         -0.3108775              -8.4594
       226                         -0.3081965              -8.3865
       227                         -0.3039111              -8.2698
       228                         -0.3005270              -8.1778
       ...                                ...                  ...
       452                          1.6023473              43.6021
      -------------------------------------------------------------
                  HL-Gap            0.0379153 Eh            1.0317 eV

Wiberg/Mayer (AO) data.
largest (>0.10) Wiberg bond orders for each atom

     #   Z sym  total        # sym  WBO       # sym  WBO       # sym  WBO
 ---------------------------------------------------------------------------
     1   6 C    3.926 --    41 C    1.366     2 C    1.347    43 H    0.971
     2   6 C    3.902 --     1 C    1.347     3 C    1.229     6 N    1.169
     3   6 C    3.953 --     4 C    1.595     2 C    1.229    44 H    0.976
     4   6 C    3.959 --     3 C    1.595     5 C    1.234    45 H    0.974
     5   6 C    3.897 --     7 C    1.302     4 C    1.234     6 N    1.178
     6   7 N    3.470 --     5 C    1.178     2 C    1.169    46 H    0.873
     7   6 C    3.939 --    17 C    1.337     5 C    1.302     8 C    1.028
     8   6 C    3.988 --     9 C    1.407    16 C    1.388     7 C    1.028
                            14 C    0.102
     9   6 C    3.984 --     8 C    1.407    10 C    1.397    47 H    0.968
                            15 C    0.104
    10   6 C    3.988 --     9 C    1.397    14 C    1.391    11 C    1.004
    11   6 C    3.836 --    13 O    1.693    12 O    1.090    10 C    1.004
    12   8 O    2.098 --    11 C    1.090    48 H    0.838    13 O    0.129
    13   8 O    1.962 --    11 C    1.693    12 O    0.129
    14   6 C    3.986 --    15 C    1.448    10 C    1.391    49 H    0.970
                             8 C    0.102
    15   6 C    3.994 --    14 C    1.448    16 C    1.441    50 H    0.972
                             9 C    0.104
    16   6 C    3.986 --    15 C    1.441     8 C    1.388    51 H    0.973
    17   6 C    3.914 --     7 C    1.337    20 N    1.285    18 C    1.123
    18   6 C    3.966 --    19 C    1.712    17 C    1.123    52 H    0.973
    19   6 C    3.964 --    18 C    1.712    21 C    1.127    53 H    0.974
    20   7 N    3.023 --    21 C    1.345    17 C    1.285
    21   6 C    3.906 --    20 N    1.345    22 C    1.253    19 C    1.127
    22   6 C    3.938 --    21 C    1.253    23 C    1.251   127 C    1.193
    23   6 C    3.883 --    22 C    1.251    24 C    1.248    27 N    1.190
    24   6 C    3.959 --    25 C    1.584    23 C    1.248    54 H    0.975
    25   6 C    3.954 --    24 C    1.584    26 C    1.240    55 H    0.974
    26   6 C    3.899 --    28 C    1.310    25 C    1.240    27 N    1.165
    27   7 N    3.475 --    23 C    1.190    26 C    1.165    56 H    0.873
    28   6 C    3.924 --    38 C    1.321    26 C    1.310    29 C    1.028
    29   6 C    3.988 --    37 C    1.406    30 C    1.388    28 C    1.028
                            32 C    0.102
    30   6 C    3.986 --    31 C    1.440    29 C    1.388    57 H    0.972
                            33 C    0.100
    31   6 C    3.994 --    32 C    1.450    30 C    1.440    58 H    0.972
                            37 C    0.104
    32   6 C    3.985 --    31 C    1.450    33 C    1.388    59 H    0.969
                            29 C    0.102
    33   6 C    3.988 --    37 C    1.400    32 C    1.388    34 C    1.005
                            30 C    0.100
    34   6 C    3.836 --    36 O    1.692    35 O    1.090    33 C    1.005
    35   8 O    2.099 --    34 C    1.090    60 H    0.838    36 O    0.129
    36   8 O    1.961 --    34 C    1.692    35 O    0.129
    37   6 C    3.984 --    29 C    1.406    33 C    1.400    61 H    0.969
                            31 C    0.104
    38   6 C    3.930 --    28 C    1.321    42 N    1.317    39 C    1.117
    39   6 C    3.967 --    40 C    1.723    38 C    1.117    62 H    0.974
    40   6 C    3.966 --    39 C    1.723    41 C    1.116    63 H    0.976
    41   6 C    3.929 --     1 C    1.366    42 N    1.300    40 C    1.116
    42   7 N    3.012 --    38 C    1.317    41 C    1.300
    43   1 H    1.002 --     1 C    0.971
    44   1 H    0.997 --     3 C    0.976
    45   1 H    1.004 --     4 C    0.974
    46   1 H    0.986 --     6 N    0.873
    47   1 H    1.007 --     9 C    0.968
    48   1 H    0.873 --    12 O    0.838
    49   1 H    1.005 --    14 C    0.970
    50   1 H    1.002 --    15 C    0.972
    51   1 H    1.004 --    16 C    0.973
    52   1 H    1.004 --    18 C    0.973
    53   1 H    1.002 --    19 C    0.974
    54   1 H    1.002 --    24 C    0.975
    55   1 H    1.004 --    25 C    0.974
    56   1 H    0.987 --    27 N    0.873
    57   1 H    1.005 --    30 C    0.972
    58   1 H    1.002 --    31 C    0.972
    59   1 H    1.005 --    32 C    0.969
    60   1 H    0.873 --    35 O    0.838
    61   1 H    1.007 --    37 C    0.969
    62   1 H    1.004 --    39 C    0.974
    63   1 H    0.998 --    40 C    0.976
    64   6 C    3.926 --   104 C    1.366    65 C    1.347   106 H    0.971
    65   6 C    3.902 --    64 C    1.347    66 C    1.229    69 N    1.169
    66   6 C    3.953 --    67 C    1.595    65 C    1.229   107 H    0.976
    67   6 C    3.959 --    66 C    1.595    68 C    1.234   108 H    0.974
    68   6 C    3.897 --    70 C    1.302    67 C    1.234    69 N    1.178
    69   7 N    3.470 --    68 C    1.178    65 C    1.169   109 H    0.873
    70   6 C    3.939 --    80 C    1.337    68 C    1.302    71 C    1.028
    71   6 C    3.988 --    72 C    1.407    79 C    1.388    70 C    1.028
                            77 C    0.102
    72   6 C    3.984 --    71 C    1.407    73 C    1.397   110 H    0.968
                            78 C    0.104
    73   6 C    3.988 --    72 C    1.397    77 C    1.391    74 C    1.004
    74   6 C    3.836 --    76 O    1.693    75 O    1.090    73 C    1.004
    75   8 O    2.098 --    74 C    1.090   111 H    0.838    76 O    0.129
    76   8 O    1.962 --    74 C    1.693    75 O    0.129
    77   6 C    3.986 --    78 C    1.448    73 C    1.391   112 H    0.970
                            71 C    0.102
    78   6 C    3.994 --    77 C    1.448    79 C    1.441   113 H    0.972
                            72 C    0.104
    79   6 C    3.986 --    78 C    1.441    71 C    1.388   114 H    0.973
    80   6 C    3.914 --    70 C    1.337    83 N    1.285    81 C    1.123
    81   6 C    3.966 --    82 C    1.712    80 C    1.123   115 H    0.973
    82   6 C    3.964 --    81 C    1.712    84 C    1.127   116 H    0.974
    83   7 N    3.023 --    84 C    1.345    80 C    1.285
    84   6 C    3.906 --    83 N    1.345    85 C    1.253    82 C    1.127
    85   6 C    3.938 --    84 C    1.253    86 C    1.251   134 C    1.193
    86   6 C    3.883 --    85 C    1.251    87 C    1.248    90 N    1.190
    87   6 C    3.959 --    88 C    1.584    86 C    1.248   117 H    0.975
    88   6 C    3.954 --    87 C    1.584    89 C    1.240   118 H    0.974
    89   6 C    3.899 --    91 C    1.310    88 C    1.240    90 N    1.165
    90   7 N    3.475 --    86 C    1.190    89 C    1.165   119 H    0.873
    91   6 C    3.924 --   101 C    1.321    89 C    1.310    92 C    1.028
    92   6 C    3.988 --   100 C    1.406    93 C    1.388    91 C    1.028
                            95 C    0.102
    93   6 C    3.986 --    94 C    1.440    92 C    1.388   120 H    0.973
                            96 C    0.100
    94   6 C    3.994 --    95 C    1.450    93 C    1.440   121 H    0.972
                           100 C    0.104
    95   6 C    3.985 --    94 C    1.450    96 C    1.388   122 H    0.969
                            92 C    0.102
    96   6 C    3.988 --   100 C    1.400    95 C    1.388    97 C    1.005
                            93 C    0.100
    97   6 C    3.836 --    99 O    1.692    98 O    1.090    96 C    1.005
    98   8 O    2.099 --    97 C    1.090   123 H    0.838    99 O    0.129
    99   8 O    1.961 --    97 C    1.692    98 O    0.129
   100   6 C    3.984 --    92 C    1.406    96 C    1.400   124 H    0.969
                            94 C    0.104
   101   6 C    3.930 --    91 C    1.321   105 N    1.317   102 C    1.117
   102   6 C    3.967 --   103 C    1.723   101 C    1.117   125 H    0.974
   103   6 C    3.966 --   102 C    1.723   104 C    1.116   126 H    0.976
   104   6 C    3.929 --    64 C    1.366   105 N    1.300   103 C    1.116
   105   7 N    3.012 --   101 C    1.317   104 C    1.300
   106   1 H    1.002 --    64 C    0.971
   107   1 H    0.997 --    66 C    0.976
   108   1 H    1.004 --    67 C    0.974
   109   1 H    0.986 --    69 N    0.873
   110   1 H    1.007 --    72 C    0.968
   111   1 H    0.873 --    75 O    0.838
   112   1 H    1.005 --    77 C    0.970
   113   1 H    1.002 --    78 C    0.972
   114   1 H    1.004 --    79 C    0.973
   115   1 H    1.004 --    81 C    0.973
   116   1 H    1.002 --    82 C    0.974
   117   1 H    1.002 --    87 C    0.975
   118   1 H    1.004 --    88 C    0.974
   119   1 H    0.987 --    90 N    0.873
   120   1 H    1.004 --    93 C    0.973
   121   1 H    1.002 --    94 C    0.972
   122   1 H    1.005 --    95 C    0.969
   123   1 H    0.873 --    98 O    0.838
   124   1 H    1.007 --   100 C    0.969
   125   1 H    1.004 --   102 C    0.974
   126   1 H    0.998 --   103 C    0.976
   127   6 C    3.877 --   128 C    2.436    22 C    1.193   130 C    0.186
   128   6 C    3.932 --   127 C    2.436   129 C    1.346
   129   6 C    3.892 --   130 C    2.333   128 C    1.346   132 C    0.182
   130   6 C    3.924 --   129 C    2.333   131 C    1.371   127 C    0.186
   131   6 C    3.924 --   132 C    2.333   130 C    1.371   134 C    0.186
   132   6 C    3.892 --   131 C    2.333   133 C    1.346   129 C    0.182
   133   6 C    3.932 --   134 C    2.436   132 C    1.346
   134   6 C    3.877 --   133 C    2.436    85 C    1.193   131 C    0.186
 ---------------------------------------------------------------------------

           -------------------------------------------------
          | TOTAL ENERGY             -246.219534297889 Eh   |
          | GRADIENT NORM               0.000552446755 Eh/α |
          | HOMO-LUMO GAP               1.031728658522 eV   |
           -------------------------------------------------

 * finished run on 2022/07/28 at 01:45:50.389
