   * xtb version 6.5.1 (b24c23e) compiled by 'conda@728c89f4b128' on 2022-07-12
          program call               : xtb H_C6_2.xyz --gfn 1 --opt -T 48

   ID    Z sym.   atoms
    1    6 C      1-5, 7-10, 12-17, 19-23, 38-42, 44-47, 49-54, 56-60, 75-80
    2    7 N      6, 11, 18, 24, 43, 48, 55, 61
    3    1 H      25-37, 62-74
########################################################################
[WARNING] Please study the warnings concerning your input carefully
-1- prog_main_parseArguments: Unknown option '-T' provided
########################################################################

          :  Hamiltonian                  GFN1-xTB          :
 * total energy  :  -135.1529848 Eh     change       -0.2833360E-09 Eh
 * total energy  :  -136.2880369 Eh     change       -0.1135052E+01 Eh
 * total energy  :  -136.4410104 Eh     change       -0.1529735E+00 Eh
 * total energy  :  -136.5066657 Eh     change       -0.6565528E-01 Eh
 * total energy  :  -136.5308012 Eh     change       -0.2413552E-01 Eh
 * total energy  :  -136.5433817 Eh     change       -0.1258050E-01 Eh
 * total energy  :  -136.5512345 Eh     change       -0.7852836E-02 Eh
 * total energy  :  -136.5552064 Eh     change       -0.3971866E-02 Eh
 * total energy  :  -136.5572376 Eh     change       -0.2031242E-02 Eh
 * total energy  :  -136.5583628 Eh     change       -0.1125194E-02 Eh
 * total energy  :  -136.5616165 Eh     change       -0.1238481E-04 Eh
 * total energy  :  -136.5616466 Eh     change       -0.3008608E-04 Eh
 * total energy  :  -136.5616635 Eh     change       -0.1689148E-04 Eh
 * total energy  :  -136.5616812 Eh     change       -0.1769028E-04 Eh
 * total energy  :  -136.5616755 Eh     change        0.5698674E-05 Eh
 * total energy  :  -136.5616973 Eh     change       -0.2179518E-04 Eh
 * total energy  :  -136.5617040 Eh     change       -0.6756533E-05 Eh
 * total energy  :  -136.5617025 Eh     change        0.1520044E-05 Eh
 * total energy  :  -136.5617071 Eh     change       -0.4563450E-05 Eh
   *** GEOMETRY OPTIMIZATION CONVERGED AFTER 31 ITERATIONS ***

 final structure:
================
80
 xtb: 6.5.1 (b24c23e)
C            3.05527938539649       -0.08493926302573       -0.00196010132286
C            3.68123582603478       -1.32337691663118       -0.06560144526504
C            3.06922015130225       -2.60806616829807       -0.13285851710221
C            4.06281448623992       -3.54504394889917       -0.18074258630680
C            5.31290132723969       -2.86271805053518       -0.14388307865592
N            5.03151954899911       -1.52883739718035       -0.07518626148952
C            6.58250063253489       -3.42777113129176       -0.17004056692974
C            7.80122721490497       -2.76552038814869       -0.13287090560101
C            9.08031884315342       -3.45232247827097       -0.16267611867253
C           10.02874029454921       -2.49418371803064       -0.11174895116339
N            7.99268639765147       -1.41987976342580       -0.06538637615557
C            9.32518605398369       -1.22546897471265       -0.05174007262880
C            9.97956780171427        0.02290976121589        0.00855283125480
C            9.32841270535077        1.26954869823763        0.06549985770023
C            9.93461050091576        2.55336563661470        0.12772055487086
C            8.93688580270339        3.48779507137574        0.17249785689392
C            7.69113141912284        2.80071623183357        0.13911701184657
N            7.98024318601206        1.46442557022629        0.07424102341311
C            6.42257918050506        3.36659642768303        0.16753729847554
C            5.20273757658327        2.70213459908600        0.13602227658963
C            3.91712373529404        3.38240954617524        0.17089776602729
C            2.97474169957261        2.41945405007221        0.12412909005272
C            3.68547876349066        1.15225875268305        0.06045403258047
N            5.02346182160106        1.36206270712360        0.06989657002433
H            1.97046185248396       -0.09356496903044       -0.00214719462107
H            2.00423808481825       -2.77774266296304       -0.14267722475679
H            3.95371857189560       -4.61655249604197       -0.23671109613776
H            5.72490005990518       -0.78934909287150       -0.03618061990275
H            6.61547449962275       -4.51121911823637       -0.22522285470477
H            9.20230572830253       -4.52284403017590       -0.21534462607084
H           11.10154367125265       -2.60438228379695       -0.11368175488043
H           10.99878443556521        2.72678599223900        0.13651547180205
H            9.04245771933149        4.55971568402012        0.22446661827679
H            7.28975430357563        0.72174241929062        0.03845377699776
H            6.39124076555395        4.45011817136466        0.22066697052846
H            3.78956032238805        4.45245379241367        0.22394217642574
H            1.90071828882100        2.52184363582065        0.13019627574085
C           26.07781978308295        0.08074680484809       -0.01075971026127
C           25.45266727136904        1.30110127298731       -0.23328284423635
C           26.06551732311145        2.56592941834437       -0.46595390889238
C           25.07253357244733        3.48937381015706       -0.63530037215134
C           23.82200212388543        2.81831427531185       -0.51080578541617
N           24.10251729292460        1.50440703403964       -0.26979855239847
C           22.55276896630906        3.37600779315802       -0.61018842443734
C           21.33360420869808        2.72507163848366       -0.48703673895849
C           20.05497915843795        3.40318796541481       -0.60503436053559
C           19.10591204748554        2.46050927056268       -0.42965474368314
N           21.14124050072070        1.39968383831274       -0.24552499359143
C           19.80861789311546        1.20973887340428       -0.20599803107671
C           19.15347822580381       -0.01994452711048        0.01518498288760
C           19.80388233974724       -1.24948853335530        0.23108790181088
C           19.19680254080510       -2.51444274954364        0.45660975514693
C           20.19388469986094       -3.43640818207772        0.61918282841354
C           21.44010942739244       -2.76018161053422        0.49774601874918
N           21.15190587866080       -1.44275743602774        0.26367018353918
C           22.70828341596467       -3.31888729621491        0.59690294788917
C           23.92856045492458       -2.66469225329249        0.48080982999626
C           25.21373073539732       -3.33589694065185        0.60164710519075
C           26.15673669146666       -2.38724739848153        0.43324673146605
C           25.44682110883454       -1.13795080103001        0.20905817968625
N           24.10870249282012       -1.34398245167134        0.24505398298423
H           27.16264182701753        0.08862898913089       -0.01170461856535
H           27.13061113306861        2.73227667241896       -0.49723045587454
H           25.18232691094040        4.54452315952773       -0.82963800799513
H           23.40865677140454        0.77658404756426       -0.13575129661892
H           22.52050712139779        4.44312868044907       -0.80564710953185
H           19.93370727502134        4.45791818458483       -0.79610843607212
H           18.03318739981085        2.57039853961362       -0.44520293665437
H           18.13250940504284       -2.68444181215340        0.48820241958763
H           20.08757960000322       -4.49292278014405        0.80714918764826
H           21.84290595268843       -0.71127439462700        0.13295361287021
H           22.73890311335292       -4.38693464789079        0.78704846113736
H           25.34060184494606       -4.39065974683401        0.78995237651929
H           27.23069253954420       -2.48874843200988        0.45224993886855
C           15.18076171757993       -0.00302575837048        0.02124393963749
C           13.95231707230210        0.01224276455624        0.01776606683373
C           12.60800312346685        0.02513231086207        0.01488780294939
C           11.38386974110951        0.03241281475461        0.01256187191790
C           16.52504867813534       -0.01806594721509        0.02205177160040
C           17.74914396152597       -0.02789935517011        0.02013432246794

          :  Hamiltonian                  GFN1-xTB          :
         :: total energy            -136.561707070909 Eh    ::
         :: gradient norm              0.000364727259 Eh/a0 ::
         :: HOMO-LUMO gap              1.057269212109 eV    ::
         :: SCC energy              -138.901793636468 Eh    ::
         :: repulsion energy           2.401117544484 Eh    ::

    * Orbital Energies and Occupations

         #    Occupation            Energy/Eh            Energy/eV
      -------------------------------------------------------------
         1        2.0000           -0.8036185             -21.8676
       ...           ...                  ...                  ...
       113        2.0000           -0.4226425             -11.5007
       114        2.0000           -0.4204357             -11.4406
       115        2.0000           -0.4203566             -11.4385
       116        2.0000           -0.4166234             -11.3369
       117        2.0000           -0.4165372             -11.3346
       118        2.0000           -0.4161585             -11.3242
       119        2.0000           -0.4158709             -11.3164
       120        2.0000           -0.4153390             -11.3019
       121        2.0000           -0.4132918             -11.2462
       122        2.0000           -0.3988454             -10.8531
       123        2.0000           -0.3987115             -10.8495
       124        2.0000           -0.3895803             -10.6010
       125        2.0000           -0.3799433             -10.3388 (HOMO)
       126                         -0.3410893              -9.2815 (LUMO)
       127                         -0.3311378              -9.0107
       128                         -0.3306333              -8.9970
       129                         -0.3295146              -8.9665
       130                         -0.2999985              -8.1634
       131                         -0.2923974              -7.9565
       132                         -0.2843464              -7.7375
       133                         -0.2614613              -7.1147
       134                         -0.2304954              -6.2721
       135                         -0.2297017              -6.2505
       136                         -0.2134936              -5.8095
       ...                                ...                  ...
       268                          1.5787886              42.9610
      -------------------------------------------------------------
                  HL-Gap            0.0388539 Eh            1.0573 eV

Wiberg/Mayer (AO) data.
largest (>0.10) Wiberg bond orders for each atom

     #   Z sym  total        # sym  WBO       # sym  WBO       # sym  WBO
 ---------------------------------------------------------------------------
     1   6 C    3.930 --    23 C    1.364     2 C    1.349    25 H    0.972
     2   6 C    3.903 --     1 C    1.349     3 C    1.225     6 N    1.172
     3   6 C    3.954 --     4 C    1.602     2 C    1.225    26 H    0.977
     4   6 C    3.958 --     3 C    1.602     5 C    1.226    27 H    0.977
     5   6 C    3.897 --     7 C    1.343     4 C    1.226     6 N    1.174
     6   7 N    3.472 --     5 C    1.174     2 C    1.172    28 H    0.873
     7   6 C    3.945 --     8 C    1.378     5 C    1.343    29 H    0.971
     8   6 C    3.915 --     7 C    1.378    11 N    1.278     9 C    1.119
     9   6 C    3.965 --    10 C    1.717     8 C    1.119    30 H    0.976
    10   6 C    3.964 --     9 C    1.717    12 C    1.124    31 H    0.975
    11   7 N    3.027 --    12 C    1.353     8 C    1.278
    12   6 C    3.908 --    11 N    1.353    13 C    1.251    10 C    1.124
    13   6 C    3.943 --    14 C    1.254    12 C    1.251    78 C    1.194
    14   6 C    3.885 --    13 C    1.254    15 C    1.245    18 N    1.192
    15   6 C    3.959 --    16 C    1.589    14 C    1.245    32 H    0.975
    16   6 C    3.953 --    15 C    1.589    17 C    1.233    33 H    0.977
    17   6 C    3.899 --    19 C    1.350    16 C    1.233    18 N    1.162
    18   7 N    3.476 --    14 C    1.192    17 C    1.162    34 H    0.873
    19   6 C    3.930 --    20 C    1.364    17 C    1.350    35 H    0.971
    20   6 C    3.930 --    19 C    1.364    24 N    1.309    21 C    1.112
    21   6 C    3.967 --    22 C    1.730    20 C    1.112    36 H    0.976
    22   6 C    3.966 --    21 C    1.730    23 C    1.113    37 H    0.976
    23   6 C    3.929 --     1 C    1.364    24 N    1.308    22 C    1.113
    24   7 N    3.016 --    20 C    1.309    23 C    1.308
    25   1 H    1.002 --     1 C    0.972
    26   1 H    0.998 --     3 C    0.977
    27   1 H    0.998 --     4 C    0.977
    28   1 H    0.986 --     6 N    0.873
    29   1 H    1.002 --     7 C    0.971
    30   1 H    0.998 --     9 C    0.976
    31   1 H    1.002 --    10 C    0.975
    32   1 H    1.001 --    15 C    0.975
    33   1 H    0.998 --    16 C    0.977
    34   1 H    0.987 --    18 N    0.873
    35   1 H    1.002 --    19 C    0.971
    36   1 H    0.998 --    21 C    0.976
    37   1 H    0.998 --    22 C    0.976
    38   6 C    3.930 --    60 C    1.364    39 C    1.349    62 H    0.972
    39   6 C    3.903 --    38 C    1.349    40 C    1.225    43 N    1.172
    40   6 C    3.954 --    41 C    1.602    39 C    1.225    63 H    0.977
    41   6 C    3.958 --    40 C    1.602    42 C    1.226    64 H    0.977
    42   6 C    3.897 --    44 C    1.343    41 C    1.226    43 N    1.174
    43   7 N    3.472 --    42 C    1.174    39 C    1.172    65 H    0.873
    44   6 C    3.945 --    45 C    1.378    42 C    1.343    66 H    0.971
    45   6 C    3.915 --    44 C    1.378    48 N    1.278    46 C    1.119
    46   6 C    3.965 --    47 C    1.717    45 C    1.119    67 H    0.976
    47   6 C    3.964 --    46 C    1.717    49 C    1.124    68 H    0.975
    48   7 N    3.027 --    49 C    1.353    45 C    1.278
    49   6 C    3.908 --    48 N    1.353    50 C    1.251    47 C    1.124
    50   6 C    3.943 --    51 C    1.254    49 C    1.251    80 C    1.194
    51   6 C    3.885 --    50 C    1.254    52 C    1.245    55 N    1.192
    52   6 C    3.959 --    53 C    1.589    51 C    1.245    69 H    0.975
    53   6 C    3.953 --    52 C    1.589    54 C    1.233    70 H    0.977
    54   6 C    3.899 --    56 C    1.350    53 C    1.233    55 N    1.162
    55   7 N    3.476 --    51 C    1.192    54 C    1.162    71 H    0.873
    56   6 C    3.930 --    57 C    1.364    54 C    1.350    72 H    0.971
    57   6 C    3.930 --    56 C    1.364    61 N    1.309    58 C    1.112
    58   6 C    3.967 --    59 C    1.730    57 C    1.112    73 H    0.976
    59   6 C    3.966 --    58 C    1.730    60 C    1.113    74 H    0.976
    60   6 C    3.929 --    38 C    1.364    61 N    1.308    59 C    1.113
    61   7 N    3.016 --    57 C    1.309    60 C    1.308
    62   1 H    1.002 --    38 C    0.972
    63   1 H    0.998 --    40 C    0.977
    64   1 H    0.998 --    41 C    0.977
    65   1 H    0.986 --    43 N    0.873
    66   1 H    1.002 --    44 C    0.971
    67   1 H    0.998 --    46 C    0.976
    68   1 H    1.002 --    47 C    0.975
    69   1 H    1.001 --    52 C    0.975
    70   1 H    0.998 --    53 C    0.977
    71   1 H    0.987 --    55 N    0.873
    72   1 H    1.002 --    56 C    0.971
    73   1 H    0.998 --    58 C    0.976
    74   1 H    0.998 --    59 C    0.976
    75   6 C    3.925 --    76 C    2.367    79 C    1.336    78 C    0.190
    76   6 C    3.925 --    75 C    2.367    77 C    1.336    80 C    0.190
    77   6 C    3.933 --    78 C    2.448    76 C    1.336
    78   6 C    3.891 --    77 C    2.448    13 C    1.194    75 C    0.190
    79   6 C    3.933 --    80 C    2.448    75 C    1.336
    80   6 C    3.891 --    79 C    2.448    50 C    1.194    76 C    0.190
 ---------------------------------------------------------------------------

           -------------------------------------------------
          | TOTAL ENERGY             -136.561707070909 Eh   |
          | GRADIENT NORM               0.000364727259 Eh/α |
          | HOMO-LUMO GAP               1.057269212109 eV   |
           -------------------------------------------------

 * finished run on 2022/07/26 at 15:50:12.850
