   * xtb version 6.5.1 (b24c23e) compiled by 'conda@728c89f4b128' on 2022-07-12
          program call               : xtb Ph2Me_C8_3.xyz --gfn 1 --opt -T 48

   ID    Z sym.   atoms
    1    6 C      1-5, 7-10, 12-30, 33-40, 70-74, 76-79, 81-99, 102-109,
                  139-159, 161-164, 166-184, 187-194
    2    7 N      6, 11, 31, 32, 75, 80, 100, 101, 160, 165, 185, 186
    3    1 H      41-69, 110-138, 195-222

          :  Hamiltonian                  GFN1-xTB          :
 * total energy  :  -345.3700205 Eh     change        0.2700040E-07 Eh
 * total energy  :  -345.7165588 Eh     change       -0.3465383E+00 Eh
 * total energy  :  -345.8496439 Eh     change       -0.1330851E+00 Eh
 * total energy  :  -345.8972335 Eh     change       -0.4758968E-01 Eh
 * total energy  :  -345.9173772 Eh     change       -0.2014370E-01 Eh
 * total energy  :  -345.9305882 Eh     change       -0.1321094E-01 Eh
 * total energy  :  -345.9400942 Eh     change       -0.9505995E-02 Eh
 * total energy  :  -345.9487568 Eh     change       -0.8662668E-02 Eh
 * total energy  :  -345.9587661 Eh     change       -0.1000931E-01 Eh
 * total energy  :  -345.9727292 Eh     change       -0.1396305E-01 Eh
 * total energy  :  -346.3973890 Eh     change       -0.5204259E-05 Eh
 * total energy  :  -346.3973973 Eh     change       -0.8312982E-05 Eh
 * total energy  :  -346.3974095 Eh     change       -0.1215733E-04 Eh
 * total energy  :  -346.3974171 Eh     change       -0.7624603E-05 Eh
 * total energy  :  -346.3974237 Eh     change       -0.6622634E-05 Eh
 * total energy  :  -346.3974327 Eh     change       -0.8920388E-05 Eh
 * total energy  :  -346.3974407 Eh     change       -0.8076799E-05 Eh
 * total energy  :  -346.3974463 Eh     change       -0.5603431E-05 Eh
 * total energy  :  -346.3974508 Eh     change       -0.4442564E-05 Eh
   *** GEOMETRY OPTIMIZATION CONVERGED AFTER 114 ITERATIONS ***

 final structure:
================
222
 xtb: 6.5.1 (b24c23e)
C           21.67511793800331        0.10507889869235       -0.08760479832667
C           22.28673953348043        1.29761329947585        0.27710980108720
C           21.63864067101580        2.51229213083030        0.63745732334005
C           22.60422550803156        3.43639125573265        0.92239380645543
C           23.87377247928578        2.81896218409162        0.73482838590316
N           23.63106702830000        1.52938263355725        0.35506461838838
C           25.13799366196326        3.39155829888829        0.91400064615371
C           26.35257008819006        2.72489281292416        0.74155704588603
C           27.65064551959411        3.36256884469467        0.87036557469853
C           28.57179289179126        2.40862193453352        0.62232560613157
N           26.50772006501583        1.41353929596704        0.40769821257714
C           27.83542812533270        1.19230011192319        0.33697486796309
C           28.47188704707178       -0.03074475720442        0.04045656041122
C           27.83224073994950       -1.24667099158785       -0.26800031202828
C           28.47085201115925       -2.48733999813751       -0.53174335757229
C           27.50031845532957       -3.41329876125048       -0.79727237908671
C           26.23808866574965       -2.76268481987850       -0.71353073637893
C           24.97589577624237       -3.33177047848297       -0.90920999181714
C           24.94161453455485       -4.76594513460275       -1.28906684763935
C           24.32217390271980       -5.69799892889885       -0.45817753068354
C           24.29325383045623       -7.04505992880207       -0.80498801915533
C           23.61594525312504       -8.03928986272615        0.09917755990659
C           24.88295557150686       -7.45532127582834       -1.99640736436800
C           25.50292460424166       -6.53651581417616       -2.83810274479430
C           26.12017781672713       -6.98276326111519       -4.13599404078321
C           25.53144919991179       -5.19341769525967       -2.47801139186239
C           23.76091136258917       -2.65165189572872       -0.77726570831015
C           22.45937995636665       -3.24584267762341       -1.03985260269903
C           21.54537753263975       -2.28184522452929       -0.80908162160967
C           22.28769443141151       -1.09760435329759       -0.41451488931942
N           23.61872219872483       -1.35494713358502       -0.41406874663445
N           26.49081439779176       -1.45737441779195       -0.38146501025519
C           25.16941718063067        4.82128032345817        1.31239287086535
C           25.73124781591233        5.19929589290953        2.53026792467549
C           25.75415226706927        6.53677892634721        2.91326324010981
C           26.37461290504659        6.93749720679192        4.22434335786103
C           25.21564718083535        7.49803660012704        2.06436944684038
C           24.65323184427565        7.13644051696156        0.84282447128455
C           24.09174143560171        8.19194249851719       -0.07119825573754
C           24.63078763716317        5.79674180393751        0.47332379070994
H           20.59027851136147        0.12418966021068       -0.11626490270254
H           20.56932284529222        2.64656036537544        0.67593446911540
H           22.45658894915270        4.45531028330936        1.24179467667688
H           24.35348235680754        0.84334668819404        0.16361213645692
H           27.81219211946278        4.40231610568085        1.10456473114430
H           29.64662311260692        2.49491546601084        0.62050390300583
H           29.53747383368532       -2.64296099824945       -0.51193428853525
H           27.64182318177490       -4.45753901239980       -1.02355242131919
H           23.87788984131891       -5.36894471498426        0.47482608767066
H           22.53164623548690       -7.95879037270663       -0.00463341299480
H           23.90959837380956       -9.05859550819017       -0.15117059748084
H           23.86932446501334       -7.84544188145113        1.14215600648399
H           24.86207281563100       -8.50476660384995       -2.27170731626200
H           27.02758676855393       -6.41627155073531       -4.34757938074092
H           26.36525376877808       -8.04445805161625       -4.10657459796041
H           25.41893452707227       -6.81667905411059       -4.95696341501239
H           26.00087366943418       -4.46692155373871       -3.13240738698265
H           22.29411250478677       -4.25963401072302       -1.36757512818188
H           20.47128981943498       -2.33421168316301       -0.89585587904766
H           25.77282936357772       -0.75474087899460       -0.23871649547190
H           26.13552497390985        4.43925054407832        3.18980993984681
H           26.23212897023943        6.15947986777971        4.97469586102712
H           25.94098228581758        7.86748160849321        4.59233912877941
H           27.44845881767024        7.09034505345852        4.09454516212162
H           25.23110135034232        8.54272538397396        2.35768273120651
H           23.50536639117725        8.91770568453829        0.49368513418583
H           24.90512351686966        8.72744667901049       -0.56575217596063
H           23.45783512560912        7.74736645730177       -0.83833044949865
H           24.20714013903256        5.50382436458638       -0.48119940169986
C           65.62371354905626       -0.06880068099304       -0.07062448291467
C           65.00869542230512       -1.28161122844827       -0.35367172990542
C           65.65356447237782       -2.52087068666747       -0.62485555511939
C           64.68569338787196       -3.45754193322169       -0.85611343256703
C           63.41822854335594       -2.81807129838254       -0.74377835680782
N           63.66399796888002       -1.51123849174835       -0.43087410563387
C           62.15243894127507       -3.39408871095039       -0.90027701854492
C           60.93985639864025       -2.72033250453620       -0.74112073587151
C           59.64072386551715       -3.32732144138212       -0.96901731876795
C           58.72243827489570       -2.37154367043430       -0.71736556634355
N           60.78842321479955       -1.41656959586444       -0.37683319488678
C           59.46174360727397       -1.18070551333498       -0.34534305939796
C           58.82830037986559        0.03197189978724       -0.00272960174265
C           59.47021851942000        1.23925944078072        0.33361353978897
C           58.83288623861202        2.45097815184886        0.71081308673327
C           59.80508192379370        3.38220674963190        0.95061444456847
C           61.06737132884754        2.76915839710643        0.71749335762736
C           62.33164346244268        3.35189647782692        0.84973888254439
C           62.37253795726457        4.78344095182915        1.23764532863637
C           62.99030944300132        5.16932946062594        2.42617328634930
C           63.03057000199658        6.50877752299710        2.80012692125990
C           63.70919255722427        6.91001034978427        4.08199138286180
C           62.45224075134447        7.46536815514056        1.97205906802217
C           61.83338088947038        7.09652044405269        0.78116127372854
C           61.23052059525928        8.13878845639458       -0.12160952383099
C           61.79450865457729        5.75396312710712        0.42008029488432
C           63.54529505511012        2.68650953264912        0.64660106537073
C           64.85047799573671        3.32309749881015        0.73297589012945
C           65.76187270762156        2.36324795747927        0.47614882201840
C           65.01459095819941        1.14394464949590        0.22360411695887
N           63.68313518519562        1.37830749527789        0.32574704445294
N           60.81257223913970        1.47232864627692        0.35487158763654
C           62.11721270913523       -4.83209765263682       -1.26651622635060
C           61.52192290121336       -5.76016800900484       -0.41429338073156
C           61.49407459592151       -7.11059011535974       -0.74829882819791
C           60.83738507046207       -8.10401663321472        0.17170523859107
C           62.06181657811111       -7.52781929655208       -1.94755333142603
C           62.65880066859678       -6.61246931306290       -2.81071626344430
C           63.25360061239128       -7.08035500209369       -4.11153362405790
C           62.68560130600403       -5.26680998180840       -2.46398607945891
H           66.70899405116253       -0.07981959442473       -0.08200628848894
H           66.72225096733618       -2.66504647479530       -0.63247541228601
H           64.83049064292391       -4.50252063879438       -1.07757536452600
H           62.94304753620552       -0.81488056459799       -0.27430190541775
H           59.47651710706377       -4.34275084557404       -1.29142716793852
H           57.64791678823478       -2.43790549343383       -0.77815677339974
H           57.76579708121891        2.58147098999953        0.79205568074839
H           59.66434548993910        4.40203231652863        1.26967780656139
H           63.42525402299122        4.41364727813251        3.07108083717018
H           64.79348676015417        6.86112478784814        3.96020272579398
H           63.44115559217519        7.92790746188793        4.36458227716327
H           63.43110202233593        6.23444389215241        4.89188861224842
H           62.48158162384243        8.51156930356710        2.25873707208275
H           60.32872040861023        7.75930597336809       -0.60299770391948
H           60.98014733419978        9.04073955517568        0.43696064032238
H           61.94347861447132        8.40878946895634       -0.90404299880942
H           61.32724710717248        5.45726210706982       -0.51267205414527
H           65.02040693938554        4.36578675483727        0.94829828567527
H           66.83731626017236        2.44336650469803        0.44564887487354
H           61.53024519538839        0.78700126853229        0.14301330742854
H           61.09516929150650       -5.42488701076887        0.52462145967317
H           60.94742620986619       -7.80000055178109        1.21291204410063
H           61.26994052491983       -9.09664450237267        0.04545026381589
H           59.76994680140850       -8.16678774680313       -0.05198444575928
H           62.04234250060612       -8.57970122424750       -2.21369999431781
H           63.84450091944393       -7.98468363544300       -3.96050517652745
H           62.45827025715990       -7.31257692687912       -4.82311868459492
H           63.89132502721176       -6.31200093704542       -4.54841006300702
H           63.13591054848332       -4.54247219921543       -3.13399936938038
C           29.87697438525684       -0.05135752670553        0.04654173117723
C           31.10179327952472       -0.06882915639841        0.04294416845519
C           32.44414474754477       -0.08195796975563        0.03448396997174
C           33.67509460935984       -0.09189011967254        0.02191828630973
C           35.01264079834986       -0.09882984206022        0.00620779356830
C           36.24365677637948       -0.10085447980744       -0.01043085032218
C           37.58576164758878       -0.09959427042567       -0.02771717348258
C           38.81077709595441       -0.09242076802104       -0.04426342169529
C           48.48893454763008        0.04166201315421       -0.01521835613112
C           49.71392353267412        0.06128762054329       -0.00739425714206
C           51.05607700134260        0.07244505785734       -0.00048102550996
C           52.28718019416385        0.08082367541113        0.00541304750217
C           53.62483669158291        0.08163931296262        0.00889238973565
C           54.85590136722027        0.07547650484480        0.00848670369984
C           56.19832070055428        0.06684739460962        0.00898311237610
C           57.42317199782840        0.05082069428941        0.00706441510336
C           40.21490425972635       -0.08097114035983       -0.05566871713364
C           40.85684875667628       -1.25100881771585        0.39457518144233
C           40.22412795923872       -2.42616013093541        0.87565366055069
C           41.20152544785579       -3.32612509512731        1.20251451274408
C           42.46029380874170       -2.72817813712731        0.92203346196099
N           42.20076571152399       -1.47156242094251        0.44332156624598
C           43.72664423068764       -3.29431777510144        1.11166185829096
C           44.94513970023259       -2.65887904983170        0.86890504582429
C           46.23720863566307       -3.30256460114763        1.02634572946453
C           47.16682007800933       -2.37728756297398        0.71033554289236
N           45.11131800557114       -1.37517465569941        0.44557017479802
C           46.44125872570689       -1.17486043958896        0.35167498905202
C           47.08492415965513        0.02077682984856       -0.02764067652605
C           46.44234392581140        1.20916203847726       -0.42625204922423
C           47.07367826775535        2.42592807605205       -0.79193971176031
C           46.09622495377925        3.32142210797468       -1.13089884625825
C           44.83910836490823        2.67334715965692       -0.98890691185080
C           43.57350555418618        3.22141206859875       -1.22903958644923
C           43.54548420486612        4.61616870443576       -1.73815983951405
C           42.94303720047280        5.62654245470161       -0.98906772782063
C           42.91199117307502        6.93306881352225       -1.46262047563378
C           42.28053278016531        8.02644818470898       -0.64398901947806
C           43.48659253859901        7.22554932482300       -2.69689918238932
C           44.08868629312025        6.22840853528839       -3.45683576749889
C           44.71859986013991        6.55177593082272       -4.78472577144416
C           44.11912500660220        4.92517539016148       -2.96995307182983
C           42.35538046132648        2.57000099870049       -1.03196328047671
C           41.06474682379185        3.15957412942456       -1.34040508241911
C           40.13488161077706        2.24018041974561       -1.00845642064534
C           40.85919479895009        1.08812283368999       -0.50938270088275
N           42.18854197199754        1.30962151603999       -0.54366139274559
N           45.09914590526179        1.40193366175259       -0.55136588289638
C           43.75456353145907       -4.69023203575132        1.61718998221609
C           43.19241314956377       -5.72152981299137        0.86686182776754
C           43.21834817683768       -7.03145371104385        1.33504144171876
C           42.59765694934674       -8.13586984657314        0.52286562245249
C           43.80578740848916       -7.30355871634285        2.56627582152538
C           44.37015305963056       -6.28406286829375        3.32814330244519
C           44.98537178952360       -6.58945025565997        4.66702410546092
C           44.34249480453234       -4.97956969558967        2.84813580334403
H           39.15740186447725       -2.55595303498049        0.96205104422753
H           41.06496405883164       -4.31415683531841        1.61076128440456
H           42.91190118245357       -0.80025159747478        0.17338383777015
H           46.38970989955507       -4.32691080529160        1.32530535732927
H           48.24060269354772       -2.47554262134592        0.70487891704293
H           48.13947802145422        2.58802585909466       -0.78899902090982
H           46.23121173305084        4.34384465928108       -1.44396375288054
H           42.50822913501118        5.38743343482563       -0.02480741116269
H           43.05202501941898        8.57642090449825       -0.10031491785573
H           41.75145320559773        8.73229955836065       -1.28505607414960
H           41.57946492231106        7.61457955791464        0.08186846657267
H           43.46022068802071        8.24372000448552       -3.07138722478920
H           44.56831459687639        5.73608875729481       -5.49258255380369
H           45.79406649525085        6.69718564675689       -4.65996571813067
H           44.29736072880551        7.46545872830192       -5.20401196773889
H           44.57267687121259        4.13665355496139       -3.56063052944311
H           40.91342018631141        4.13906143940040       -1.76419877866678
H           39.06190082973932        2.30650273097493       -1.09212033408521
H           44.38882639932699        0.70709286300126       -0.34672540538175
H           42.75107102869073       -5.49994053288296       -0.09879010248339
H           43.04254353689112       -9.09950754373665        0.77109581905278
H           42.72632607155835       -7.95126638890233       -0.54398778075413
H           41.52645129085242       -8.19129951638535        0.72994880823678
H           43.82820558594415       -8.32345149913124        2.93630264307217
H           45.72443122880468       -5.83508697941527        4.93698160521868
H           45.46600917211155       -7.56809133074659        4.65804494891823
H           44.21118819654352       -6.59949704058617        5.43767120190915
H           44.76822269347780       -4.17484285807022        3.43738940879083

          :  Hamiltonian                  GFN1-xTB          :
         :: total energy            -346.397450791998 Eh    ::
         :: gradient norm              0.000400151324 Eh/a0 ::
         :: HOMO-LUMO gap              0.890800113352 eV    ::
         :: SCC energy              -352.462206315754 Eh    ::
         :: repulsion energy           6.243098319135 Eh    ::

    * Orbital Energies and Occupations

         #    Occupation            Energy/Eh            Energy/eV
      -------------------------------------------------------------
         1        2.0000           -0.8029032             -21.8481
       ...           ...                  ...                  ...
       309        2.0000           -0.4134297             -11.2500
       310        2.0000           -0.4129598             -11.2372
       311        2.0000           -0.4128113             -11.2332
       312        2.0000           -0.4116950             -11.2028
       313        2.0000           -0.4079732             -11.1015
       314        2.0000           -0.4059131             -11.0455
       315        2.0000           -0.4047492             -11.0138
       316        2.0000           -0.3972379             -10.8094
       317        2.0000           -0.3962632             -10.7829
       318        2.0000           -0.3961892             -10.7809
       319        2.0000           -0.3832486             -10.4287
       320        2.0000           -0.3796167             -10.3299
       321        2.0000           -0.3746448             -10.1946 (HOMO)
       322                         -0.3419085              -9.3038 (LUMO)
       323                         -0.3345768              -9.1043
       324                         -0.3310181              -9.0075
       325                         -0.3286134              -8.9420
       326                         -0.3281322              -8.9289
       327                         -0.3280617              -8.9270
       328                         -0.3073799              -8.3642
       329                         -0.2994504              -8.1485
       330                         -0.2991830              -8.1412
       331                         -0.2936434              -7.9904
       332                         -0.2897304              -7.8840
       ...                                ...                  ...
       716                          1.6071554              43.7329
      -------------------------------------------------------------
                  HL-Gap            0.0327363 Eh            0.8908 eV

Wiberg/Mayer (AO) data.
largest (>0.10) Wiberg bond orders for each atom

     #   Z sym  total        # sym  WBO       # sym  WBO       # sym  WBO
 ---------------------------------------------------------------------------
     1   6 C    3.924 --    30 C    1.366     2 C    1.346    41 H    0.971
     2   6 C    3.903 --     1 C    1.346     3 C    1.230     6 N    1.170
     3   6 C    3.953 --     4 C    1.595     2 C    1.230    42 H    0.977
     4   6 C    3.959 --     3 C    1.595     5 C    1.235    43 H    0.974
     5   6 C    3.896 --     7 C    1.302     4 C    1.235     6 N    1.177
     6   7 N    3.470 --     5 C    1.177     2 C    1.170    44 H    0.874
     7   6 C    3.939 --     8 C    1.338     5 C    1.302    33 C    1.026
     8   6 C    3.915 --     7 C    1.338    11 N    1.284     9 C    1.125
     9   6 C    3.966 --    10 C    1.710     8 C    1.125    45 H    0.974
    10   6 C    3.964 --     9 C    1.710    12 C    1.128    46 H    0.974
    11   7 N    3.022 --    12 C    1.346     8 C    1.284
    12   6 C    3.908 --    11 N    1.346    13 C    1.252    10 C    1.128
    13   6 C    3.937 --    12 C    1.252    14 C    1.250   139 C    1.193
    14   6 C    3.885 --    13 C    1.250    15 C    1.249    32 N    1.190
    15   6 C    3.959 --    16 C    1.583    14 C    1.249    47 H    0.975
    16   6 C    3.955 --    15 C    1.583    17 C    1.241    48 H    0.974
    17   6 C    3.898 --    18 C    1.312    16 C    1.241    32 N    1.163
    18   6 C    3.925 --    27 C    1.321    17 C    1.312    19 C    1.027
    19   6 C    3.988 --    20 C    1.398    26 C    1.396    18 C    1.027
                            23 C    0.102
    20   6 C    3.986 --    21 C    1.415    19 C    1.398    49 H    0.972
                            24 C    0.104
    21   6 C    3.988 --    23 C    1.417    20 C    1.415    22 C    1.020
                            26 C    0.104
    22   6 C    3.996 --    21 C    1.020    51 H    0.985    52 H    0.980
                            50 H    0.972
    23   6 C    3.988 --    21 C    1.417    24 C    1.414    53 H    0.971
                            19 C    0.102
    24   6 C    3.988 --    26 C    1.418    23 C    1.414    25 C    1.020
                            20 C    0.104
    25   6 C    3.996 --    24 C    1.020    55 H    0.984    54 H    0.981
                            56 H    0.971
    26   6 C    3.985 --    24 C    1.418    19 C    1.396    57 H    0.972
                            21 C    0.104
    27   6 C    3.929 --    18 C    1.321    31 N    1.317    28 C    1.118
    28   6 C    3.967 --    29 C    1.722    27 C    1.118    58 H    0.974
    29   6 C    3.966 --    28 C    1.722    30 C    1.117    59 H    0.976
    30   6 C    3.930 --     1 C    1.366    31 N    1.300    29 C    1.117
    31   7 N    3.012 --    27 C    1.317    30 C    1.300
    32   7 N    3.474 --    14 C    1.190    17 C    1.163    60 H    0.873
    33   6 C    3.988 --    34 C    1.400    40 C    1.393     7 C    1.026
                            37 C    0.103
    34   6 C    3.987 --    35 C    1.413    33 C    1.400    61 H    0.972
                            38 C    0.104
    35   6 C    3.988 --    37 C    1.419    34 C    1.413    36 C    1.020
                            40 C    0.103
    36   6 C    3.996 --    35 C    1.020    63 H    0.983    62 H    0.982
                            64 H    0.971
    37   6 C    3.988 --    35 C    1.419    38 C    1.411    65 H    0.972
                            33 C    0.103
    38   6 C    3.988 --    40 C    1.421    37 C    1.411    39 C    1.020
                            34 C    0.104
    39   6 C    3.996 --    38 C    1.020    68 H    0.985    66 H    0.980
                            67 H    0.972
    40   6 C    3.986 --    38 C    1.421    33 C    1.393    69 H    0.972
                            35 C    0.103
    41   1 H    1.002 --     1 C    0.971
    42   1 H    0.998 --     3 C    0.977
    43   1 H    1.005 --     4 C    0.974
    44   1 H    0.986 --     6 N    0.874
    45   1 H    1.005 --     9 C    0.974
    46   1 H    1.003 --    10 C    0.974
    47   1 H    1.002 --    15 C    0.975
    48   1 H    1.005 --    16 C    0.974
    49   1 H    1.003 --    20 C    0.972
    50   1 H    1.006 --    22 C    0.972
    51   1 H    1.004 --    22 C    0.985
    52   1 H    1.005 --    22 C    0.980
    53   1 H    1.001 --    23 C    0.971
    54   1 H    1.004 --    25 C    0.981
    55   1 H    1.004 --    25 C    0.984
    56   1 H    1.006 --    25 C    0.971
    57   1 H    1.003 --    26 C    0.972
    58   1 H    1.005 --    28 C    0.974
    59   1 H    0.998 --    29 C    0.976
    60   1 H    0.987 --    32 N    0.873
    61   1 H    1.003 --    34 C    0.972
    62   1 H    1.004 --    36 C    0.982
    63   1 H    1.004 --    36 C    0.983
    64   1 H    1.006 --    36 C    0.971
    65   1 H    1.000 --    37 C    0.972
    66   1 H    1.005 --    39 C    0.980
    67   1 H    1.006 --    39 C    0.972
    68   1 H    1.004 --    39 C    0.985
    69   1 H    1.003 --    40 C    0.972
    70   6 C    3.924 --    99 C    1.366    71 C    1.346   110 H    0.971
    71   6 C    3.903 --    70 C    1.346    72 C    1.230    75 N    1.170
    72   6 C    3.953 --    73 C    1.594    71 C    1.230   111 H    0.977
    73   6 C    3.959 --    72 C    1.594    74 C    1.235   112 H    0.974
    74   6 C    3.896 --    76 C    1.302    73 C    1.235    75 N    1.177
    75   7 N    3.470 --    74 C    1.177    71 C    1.170   113 H    0.873
    76   6 C    3.939 --    77 C    1.338    74 C    1.302   102 C    1.027
    77   6 C    3.915 --    76 C    1.338    80 N    1.283    78 C    1.125
    78   6 C    3.966 --    79 C    1.710    77 C    1.125   114 H    0.974
    79   6 C    3.964 --    78 C    1.710    81 C    1.128   115 H    0.974
    80   7 N    3.022 --    81 C    1.346    77 C    1.283
    81   6 C    3.908 --    80 N    1.346    82 C    1.251    79 C    1.128
    82   6 C    3.937 --    81 C    1.251    83 C    1.251   154 C    1.193
    83   6 C    3.885 --    82 C    1.251    84 C    1.249   101 N    1.190
    84   6 C    3.959 --    85 C    1.583    83 C    1.249   116 H    0.975
    85   6 C    3.955 --    84 C    1.583    86 C    1.241   117 H    0.974
    86   6 C    3.898 --    87 C    1.312    85 C    1.241   101 N    1.163
    87   6 C    3.925 --    96 C    1.320    86 C    1.312    88 C    1.028
    88   6 C    3.988 --    89 C    1.398    95 C    1.395    87 C    1.028
                            92 C    0.101
    89   6 C    3.986 --    90 C    1.415    88 C    1.398   118 H    0.972
                            93 C    0.104
    90   6 C    3.988 --    92 C    1.417    89 C    1.415    91 C    1.020
                            95 C    0.104
    91   6 C    3.996 --    90 C    1.020   120 H    0.985   121 H    0.979
                           119 H    0.972
    92   6 C    3.987 --    90 C    1.417    93 C    1.414   122 H    0.971
                            88 C    0.101
    93   6 C    3.988 --    95 C    1.418    92 C    1.414    94 C    1.020
                            89 C    0.104
    94   6 C    3.996 --    93 C    1.020   124 H    0.984   123 H    0.981
                           125 H    0.971
    95   6 C    3.985 --    93 C    1.418    88 C    1.395   126 H    0.972
                            90 C    0.104
    96   6 C    3.929 --    87 C    1.320   100 N    1.318    97 C    1.118
    97   6 C    3.967 --    98 C    1.722    96 C    1.118   127 H    0.974
    98   6 C    3.966 --    97 C    1.722    99 C    1.117   128 H    0.976
    99   6 C    3.930 --    70 C    1.366   100 N    1.299    98 C    1.117
   100   7 N    3.012 --    96 C    1.318    99 C    1.299
   101   7 N    3.473 --    83 C    1.190    86 C    1.163   129 H    0.873
   102   6 C    3.988 --   103 C    1.400   109 C    1.392    76 C    1.027
                           106 C    0.103
   103   6 C    3.987 --   104 C    1.413   102 C    1.400   130 H    0.972
                           107 C    0.104
   104   6 C    3.988 --   106 C    1.419   103 C    1.413   105 C    1.020
                           109 C    0.103
   105   6 C    3.996 --   104 C    1.020   132 H    0.983   131 H    0.982
                           133 H    0.971
   106   6 C    3.988 --   104 C    1.419   107 C    1.411   134 H    0.972
                           102 C    0.103
   107   6 C    3.988 --   109 C    1.421   106 C    1.411   108 C    1.020
                           103 C    0.104
   108   6 C    3.996 --   107 C    1.020   137 H    0.985   135 H    0.979
                           136 H    0.972
   109   6 C    3.986 --   107 C    1.421   102 C    1.392   138 H    0.971
                           104 C    0.103
   110   1 H    1.002 --    70 C    0.971
   111   1 H    0.998 --    72 C    0.977
   112   1 H    1.005 --    73 C    0.974
   113   1 H    0.986 --    75 N    0.873
   114   1 H    1.005 --    78 C    0.974
   115   1 H    1.003 --    79 C    0.974
   116   1 H    1.002 --    84 C    0.975
   117   1 H    1.005 --    85 C    0.974
   118   1 H    1.003 --    89 C    0.972
   119   1 H    1.006 --    91 C    0.972
   120   1 H    1.004 --    91 C    0.985
   121   1 H    1.005 --    91 C    0.979
   122   1 H    1.001 --    92 C    0.971
   123   1 H    1.004 --    94 C    0.981
   124   1 H    1.004 --    94 C    0.984
   125   1 H    1.006 --    94 C    0.971
   126   1 H    1.003 --    95 C    0.972
   127   1 H    1.006 --    97 C    0.974
   128   1 H    0.998 --    98 C    0.976
   129   1 H    0.987 --   101 N    0.873
   130   1 H    1.003 --   103 C    0.972
   131   1 H    1.004 --   105 C    0.982
   132   1 H    1.004 --   105 C    0.983
   133   1 H    1.006 --   105 C    0.971
   134   1 H    1.000 --   106 C    0.972
   135   1 H    1.005 --   108 C    0.979
   136   1 H    1.006 --   108 C    0.972
   137   1 H    1.004 --   108 C    0.985
   138   1 H    1.003 --   109 C    0.971
   139   6 C    3.876 --   140 C    2.436    13 C    1.193   142 C    0.186
   140   6 C    3.932 --   139 C    2.436   141 C    1.346
   141   6 C    3.891 --   142 C    2.333   140 C    1.346   144 C    0.181
   142   6 C    3.924 --   141 C    2.333   143 C    1.371   139 C    0.186
   143   6 C    3.922 --   144 C    2.332   142 C    1.371   146 C    0.186
   144   6 C    3.891 --   143 C    2.332   145 C    1.347   141 C    0.181
   145   6 C    3.929 --   146 C    2.433   144 C    1.347
   146   6 C    3.877 --   145 C    2.433   155 C    1.196   143 C    0.186
   147   6 C    3.877 --   148 C    2.433   167 C    1.196   150 C    0.186
   148   6 C    3.929 --   147 C    2.433   149 C    1.347
   149   6 C    3.892 --   150 C    2.332   148 C    1.347   152 C    0.181
   150   6 C    3.922 --   149 C    2.332   151 C    1.371   147 C    0.186
   151   6 C    3.924 --   152 C    2.333   150 C    1.371   154 C    0.186
   152   6 C    3.891 --   151 C    2.333   153 C    1.346   149 C    0.181
   153   6 C    3.932 --   154 C    2.436   152 C    1.346
   154   6 C    3.876 --   153 C    2.436    82 C    1.193   151 C    0.186
   155   6 C    3.924 --   184 C    1.251   156 C    1.246   146 C    1.196
   156   6 C    3.886 --   157 C    1.254   155 C    1.246   160 N    1.190
   157   6 C    3.955 --   158 C    1.577   156 C    1.254   195 H    0.975
   158   6 C    3.956 --   157 C    1.577   159 C    1.247   196 H    0.974
   159   6 C    3.893 --   161 C    1.300   158 C    1.247   160 N    1.165
   160   7 N    3.471 --   156 C    1.190   159 C    1.165   197 H    0.874
   161   6 C    3.928 --   162 C    1.339   159 C    1.300   187 C    1.026
   162   6 C    3.916 --   161 C    1.339   165 N    1.283   163 C    1.125
   163   6 C    3.966 --   164 C    1.709   162 C    1.125   198 H    0.974
   164   6 C    3.964 --   163 C    1.709   166 C    1.130   199 H    0.974
   165   7 N    3.009 --   166 C    1.345   162 C    1.283
   166   6 C    3.908 --   165 N    1.345   167 C    1.252   164 C    1.130
   167   6 C    3.924 --   166 C    1.252   168 C    1.246   147 C    1.196
   168   6 C    3.886 --   169 C    1.254   167 C    1.246   186 N    1.190
   169   6 C    3.955 --   170 C    1.577   168 C    1.254   200 H    0.975
   170   6 C    3.956 --   169 C    1.577   171 C    1.247   201 H    0.974
   171   6 C    3.893 --   172 C    1.300   170 C    1.247   186 N    1.165
   172   6 C    3.928 --   181 C    1.340   171 C    1.300   173 C    1.025
   173   6 C    3.988 --   180 C    1.400   174 C    1.393   172 C    1.025
                           177 C    0.103
   174   6 C    3.987 --   175 C    1.421   173 C    1.393   202 H    0.972
                           178 C    0.103
   175   6 C    3.988 --   174 C    1.421   177 C    1.411   176 C    1.020
                           180 C    0.104
   176   6 C    3.995 --   175 C    1.020   205 H    0.984   204 H    0.981
                           203 H    0.971
   177   6 C    3.988 --   178 C    1.420   175 C    1.411   206 H    0.972
                           173 C    0.103
   178   6 C    3.988 --   177 C    1.420   180 C    1.413   179 C    1.020
                           174 C    0.103
   179   6 C    3.995 --   178 C    1.020   209 H    0.984   207 H    0.981
                           208 H    0.971
   180   6 C    3.986 --   178 C    1.413   173 C    1.400   210 H    0.972
                           175 C    0.104
   181   6 C    3.916 --   172 C    1.340   185 N    1.282   182 C    1.125
   182   6 C    3.966 --   183 C    1.709   181 C    1.125   211 H    0.974
   183   6 C    3.964 --   182 C    1.709   184 C    1.129   212 H    0.974
   184   6 C    3.909 --   185 N    1.346   155 C    1.251   183 C    1.129
   185   7 N    3.009 --   184 C    1.346   181 C    1.282
   186   7 N    3.471 --   168 C    1.190   171 C    1.165   213 H    0.874
   187   6 C    3.988 --   188 C    1.399   194 C    1.394   161 C    1.026
                           191 C    0.103
   188   6 C    3.986 --   189 C    1.414   187 C    1.399   214 H    0.972
                           192 C    0.104
   189   6 C    3.988 --   191 C    1.418   188 C    1.414   190 C    1.020
                           194 C    0.103
   190   6 C    3.995 --   189 C    1.020   215 H    0.984   216 H    0.982
                           217 H    0.971
   191   6 C    3.988 --   189 C    1.418   192 C    1.412   218 H    0.972
                           187 C    0.103
   192   6 C    3.988 --   194 C    1.419   191 C    1.412   193 C    1.020
                           188 C    0.104
   193   6 C    3.995 --   192 C    1.020   219 H    0.984   220 H    0.982
                           221 H    0.971
   194   6 C    3.987 --   192 C    1.419   187 C    1.394   222 H    0.972
                           189 C    0.103
   195   1 H    1.002 --   157 C    0.975
   196   1 H    1.005 --   158 C    0.974
   197   1 H    0.987 --   160 N    0.874
   198   1 H    1.005 --   163 C    0.974
   199   1 H    1.003 --   164 C    0.974
   200   1 H    1.002 --   169 C    0.975
   201   1 H    1.005 --   170 C    0.974
   202   1 H    1.003 --   174 C    0.972
   203   1 H    1.006 --   176 C    0.971
   204   1 H    1.004 --   176 C    0.981
   205   1 H    1.004 --   176 C    0.984
   206   1 H    1.000 --   177 C    0.972
   207   1 H    1.004 --   179 C    0.981
   208   1 H    1.006 --   179 C    0.971
   209   1 H    1.004 --   179 C    0.984
   210   1 H    1.002 --   180 C    0.972
   211   1 H    1.005 --   182 C    0.974
   212   1 H    1.003 --   183 C    0.974
   213   1 H    0.987 --   186 N    0.874
   214   1 H    1.003 --   188 C    0.972
   215   1 H    1.004 --   190 C    0.984
   216   1 H    1.004 --   190 C    0.982
   217   1 H    1.006 --   190 C    0.971
   218   1 H    1.000 --   191 C    0.972
   219   1 H    1.004 --   193 C    0.984
   220   1 H    1.004 --   193 C    0.982
   221   1 H    1.006 --   193 C    0.971
   222   1 H    1.003 --   194 C    0.972
 ---------------------------------------------------------------------------

           -------------------------------------------------
          | TOTAL ENERGY             -346.397450791998 Eh   |
          | GRADIENT NORM               0.000400151324 Eh/α |
          | HOMO-LUMO GAP               0.890800113352 eV   |
           -------------------------------------------------

 * finished run on 2022/07/28 at 05:17:56.691
