   * xtb version 6.5.1 (b24c23e) compiled by 'conda@728c89f4b128' on 2022-07-12
          program call               : xtb Zn_C2Py_C2_3.xyz --gfn 1 --opt -T 48

   ID    Z sym.   atoms
    1   30 Zn     1, 59, 121
    2    6 C      2-6, 8-13, 15-19, 21-26, 28-33, 35-40, 60-64, 66-71, 73-77,
                  79-84, 86-91, 93-98, 117-120, 122-126, 128-133, 135-139,
                  141-146, 148-153, 155-160
    3    7 N      7, 14, 20, 27, 34, 41, 65, 72, 78, 85, 92, 99, 127, 134,
                  140, 147, 154, 161
    4    1 H      42-58, 100-116, 162-177
########################################################################
[WARNING] Please study the warnings concerning your input carefully
-1- prog_main_parseArguments: Unknown option '-T' provided
########################################################################

          :  Hamiltonian                  GFN1-xTB          :
 * total energy  :  -309.7372841 Eh     change       -0.1193172E-07 Eh
 * total energy  :  -309.9733133 Eh     change       -0.2360291E+00 Eh
 * total energy  :  -310.1018022 Eh     change       -0.1284890E+00 Eh
 * total energy  :  -310.1558214 Eh     change       -0.5401913E-01 Eh
 * total energy  :  -310.1879480 Eh     change       -0.3212659E-01 Eh
 * total energy  :  -310.2120942 Eh     change       -0.2414621E-01 Eh
 * total energy  :  -310.2316352 Eh     change       -0.1954098E-01 Eh
 * total energy  :  -310.2478992 Eh     change       -0.1626408E-01 Eh
 * total energy  :  -310.2611825 Eh     change       -0.1328326E-01 Eh
 * total energy  :  -310.2723735 Eh     change       -0.1119102E-01 Eh
 * total energy  :  -310.3502832 Eh     change       -0.9461033E-05 Eh
 * total energy  :  -310.3502965 Eh     change       -0.1337675E-04 Eh
 * total energy  :  -310.3503144 Eh     change       -0.1786330E-04 Eh
 * total energy  :  -310.3503345 Eh     change       -0.2008884E-04 Eh
 * total energy  :  -310.3503554 Eh     change       -0.2096726E-04 Eh
 * total energy  :  -310.3503623 Eh     change       -0.6859290E-05 Eh
 * total energy  :  -310.3503712 Eh     change       -0.8850591E-05 Eh
 * total energy  :  -310.3503770 Eh     change       -0.5823579E-05 Eh
 * total energy  :  -310.3503816 Eh     change       -0.4618882E-05 Eh
   *** GEOMETRY OPTIMIZATION CONVERGED AFTER 125 ITERATIONS ***

 final structure:
================
177
 xtb: 6.5.1 (b24c23e)
Zn          34.84176652231269       -0.27118875623216       -0.18463583318195
C           31.42514911177866       -0.21319432978261       -0.14223907484235
C           32.06938026200242        0.63033316488088        0.75445088405187
C           31.41506879511305        1.51219709261155        1.68038756860299
C           32.38979215556922        2.15531156994462        2.37218364123302
C           33.64759209074037        1.67105262916909        1.87564489664383
N           33.42391305168598        0.75260877898269        0.89898718214175
C           34.91230811340306        2.08277587957277        2.33521452014024
C           34.93897729363606        3.05328223651597        3.36120675191001
C           34.95540618409240        3.88997197125355        4.24030912674579
C           34.96908291111667        4.86696352515146        5.26157262699514
C           36.17060762031615        5.35650445958873        5.78739424636905
C           36.12516584839940        6.31355364691919        6.78537509655213
N           34.98812528995028        6.79897177596456        7.27770213292014
C           33.84146875439111        6.33855847150391        6.78338907323256
C           33.77744989979766        5.38289545650229        5.78543444046066
C           36.15043872862505        1.61248006311369        1.85974598670763
C           37.43101817101292        2.03908362195350        2.34520848050349
C           38.37055243843719        1.36311860935073        1.63461022892963
N           36.32620835128782        0.69116206831596        0.87126588980720
C           37.67008648990917        0.52010818548730        0.70949836509145
C           38.28111997968956       -0.33289816025833       -0.22421760855205
C           37.61871587545605       -1.16195893172422       -1.14437976441112
C           38.26726066387196       -2.02603693401758       -2.08765393088224
C           37.28811397040227       -2.66568105564742       -2.77814487869078
C           36.03507300634396       -2.19590914279117       -2.26164423387751
N           36.26631397685045       -1.28461571297042       -1.27529649127780
C           34.77011028264046       -2.62173895498988       -2.70749330068881
C           34.74090313359740       -3.59174831149800       -3.73384969082398
C           34.71522257669089       -4.42877732221456       -4.61238051137871
C           34.68907687293044       -5.40612833552856       -5.63301252717094
C           35.87280540402895       -5.92015999979924       -6.17599551531189
C           35.79381743019845       -6.87645225144544       -7.17239694968116
N           34.64001797766478       -7.33899868308738       -7.64760097643300
C           33.51028189223734       -6.85569960776973       -7.13658772831562
C           33.47980571800799       -5.89840259204245       -6.13841724913275
C           33.53203857043864       -2.16763487902690       -2.21656897811209
C           32.24673541016783       -2.60835289345144       -2.68216083461830
C           31.31169776356289       -1.93457559956465       -1.96518840270480
C           32.01812119250213       -1.07680103986482       -1.05507938760379
N           33.36378372615422       -1.24403011028439       -1.23363395519056
H           30.33966254033689       -0.19531413540365       -0.12837290472199
H           30.34599864962857        1.61740563814098        1.77905865113574
H           32.27823146332825        2.89279280836146        3.15137481352294
H           37.11993042788567        4.98963765189305        5.41613276517730
H           37.04236419778533        6.71084356259029        7.21076647883611
H           32.93232083351558        6.75556089588606        7.20719113339500
H           32.82139189901708        5.03624917598093        5.41192086847681
H           37.58280454317078        2.76360999900679        3.12955343963000
H           39.44378120377555        1.42456209422837        1.72116146735466
H           39.33532251468863       -2.12524198677833       -2.19949994336092
H           37.39600455007282       -3.39187589661008       -3.56819752385102
H           36.83432688215235       -5.57189830853744       -5.81840134061452
H           36.69653910397614       -7.29208986589105       -7.61101114922618
H           32.58692414979362       -7.25474448366957       -7.54673178675771
H           32.53633536075382       -5.53298802087991       -5.75109340824165
H           32.09146776631661       -3.33988702829328       -3.45946484144546
H           30.23757868906821       -2.00391282937198       -2.03713351065519
Zn          56.70088353886666       -0.39064556752490       -0.24510575749164
C           60.11824186144111       -0.38089533091643       -0.19994348174786
C           59.50543168278730       -1.61038455097623       -0.40900755877327
C           60.19207138289575       -2.85601701747345       -0.60904107853994
C           59.24164777314260       -3.81222334408204       -0.76674319903203
C           57.96668972592497       -3.15922876013661       -0.66256882671170
N           58.15609233802754       -1.83024372636957       -0.44959607609218
C           56.71813897279598       -3.80164984956967       -0.75630481508291
C           56.72385025454314       -5.19521425280463       -0.98674755417492
C           56.72662423581363       -6.39048555864229       -1.19755402288888
C           56.72309023336459       -7.78128777177111       -1.44908912872432
C           55.52432354922062       -8.49464648283473       -1.56745924076138
C           55.57495395205463       -9.85435238795286       -1.81762994941437
N           56.71462733805053      -10.52770333511007       -1.95325243147311
C           57.85872581407887       -9.85678194435862       -1.84245131495421
C           57.91756543059650       -8.49739851376015       -1.59354043088397
C           55.46315940940374       -3.17487352633245       -0.64624508036147
C           54.19940992368591       -3.84790780671663       -0.72858608718381
C           53.23536333428945       -2.90109293743752       -0.58938319068493
N           55.25299286952413       -1.84147039254904       -0.45693634894284
C           53.90421569860835       -1.64352428897648       -0.42394412724662
C           53.26104267605960       -0.40084532574983       -0.28827120710810
C           53.89394869447169        0.84561006385721       -0.13899853973162
C           53.21385464542518        2.09958529339600        0.00701166403836
C           54.16843151201708        3.05193742034074        0.17157770632894
C           55.43765685739410        2.38597851447015        0.12438846378512
N           55.24028342834812        1.05136269161211       -0.07107549363647
C           56.68537979415896        3.01939893869064        0.27196711629600
C           56.67957752942303        4.41119151669847        0.51310446840885
C           56.67878908982792        5.60390035457741        0.73806642036893
C           56.68306526593978        6.99097155356542        1.00960580861248
C           55.49058851840349        7.71589634524771        1.12083534992416
C           55.55242885540621        9.07068398273525        1.39400159449347
N           56.69728052553544        9.72893501420890        1.55811994034035
C           57.83540263619855        9.04714571051118        1.45353271815544
C           57.88297754022373        7.69135244934175        1.18337722849819
C           57.93984188523820        2.38451769453052        0.20970654307600
C           59.20785042075803        3.04447395382204        0.34962721459313
C           60.16765435595062        2.09424033928378        0.21453646422298
C           59.49371740408355        0.84524344980095       -0.00654371591221
N           58.14258627004041        1.05732393983308       -0.00174110340056
H           61.20386290734707       -0.37824087761666       -0.18538929914259
H           61.26449356177335       -2.97161704644608       -0.62491135617224
H           59.38016116144039       -4.86829180026407       -0.93704995896832
H           54.57308269542363       -7.98645611443132       -1.46465254507258
H           54.65988941572139      -10.43175760619410       -1.91420217961509
H           58.76993735730241      -10.43656579598981       -1.95889563438947
H           58.87155193569071       -7.99060448779133       -1.51144137641444
H           54.07392656027857       -4.90906051317025       -0.87472389255152
H           52.16512854746327       -3.03388502200370       -0.60036264363652
H           52.14293801643291        2.22588380550181       -0.01162333167441
H           54.03343641026308        4.11262637579404        0.31265539452897
H           54.53548399638640        7.22019595765432        0.99547922250410
H           54.64255846680509        9.65688011443270        1.48652378372174
H           58.75122612262992        9.61436842424446        1.59345092075860
H           58.83257644321287        7.17538736355125        1.10757354516936
H           59.33568818018643        4.10082140272219        0.52642651228278
H           61.23857654390663        2.21606224498494        0.25927067226532
C           39.69873356322459       -0.35728469615590       -0.24099859304455
C           40.91289056849833       -0.37539480842241       -0.25258121612585
C           50.63152799416772       -0.41145219100204       -0.30502800230285
C           51.84655503310213       -0.40565054497617       -0.29993778403447
Zn          45.77399049196085       -0.40825205928375       -0.29023682134100
C           42.33043023376722       -0.39084091152280       -0.26640325383540
C           42.96624001616112        0.36825565993988       -1.26254432273874
C           42.28976633947563        1.14221938344063       -2.26239394468498
C           43.24795842082898        1.74213863256939       -3.01523836964507
C           44.51543406560707        1.33952226439350       -2.47871283928520
N           44.31446504120466        0.50382569666432       -1.42143087982236
C           45.76625200943494        1.76059869447146       -2.96586596363311
C           45.76422162926914        2.63728374604601       -4.07356229790327
C           45.76485252374151        3.38593360447225       -5.02882260112554
C           45.76957135490208        4.25479393029217       -6.14355264744024
C           46.96912024460502        4.67522258833419       -6.73032961715337
C           46.92036259907496        5.52338799916707       -7.82212842332566
N           45.78165564893003        5.96668867008500       -8.34913105705922
C           44.63698877711626        5.57186626097681       -7.79695546489007
C           44.57624223317895        4.72495046434080       -6.70481361453732
C           47.01992684760598        1.38413440949516       -2.45071919175055
C           48.28406672732471        1.83891668826044       -2.95196606245843
C           49.24643091990865        1.23942635632693       -2.20376330321176
N           47.22727519418500        0.52607233852008       -1.41236631503554
C           48.57570865211132        0.41288959389103       -1.24323492608903
C           49.21716934277453       -0.41416803075073       -0.30497807318450
C           48.57983046011734       -1.24259454696957        0.63526818227419
C           49.25570871965417       -2.07527487265378        1.58677285635967
C           48.29764167278860       -2.67423659989810        2.34096897427067
C           47.03098423698714       -2.21228452392660        1.85324110122472
N           47.23252340882986       -1.35167609072722        0.81544411845173
C           45.78077533182766       -2.58162119203523        2.38156402442694
C           45.78248272522588       -3.45897565702810        3.48880308742584
C           45.78136414136331       -4.20614821927362        4.44522522367243
C           45.77525221408196       -5.07020465640734        5.56370541813287
C           44.57584053701957       -5.47542757720434        6.16145167542317
C           44.62407747834450       -6.31976149225834        7.25613007937472
N           45.76210071469214       -6.77222535252120        7.77683924235280
C           46.90656417748011       -6.39153280533437        7.21452296055396
C           46.96777595642973       -5.55062117731521        6.11783105286839
C           44.52721542868753       -2.15019913862741        1.91038763745869
C           43.26321275172837       -2.54316646083938        2.46228656874482
C           42.30066460096116       -1.93149154059140        1.72458071726896
C           42.97100176970592       -1.16073766253000        0.71820069252542
N           44.31987087244865       -1.31019439005078        0.85793622323345
H           41.21870261359123        1.21213135706386       -2.36708416271096
H           43.11668131006336        2.40141210698751       -3.85857945390739
H           47.91915223381612        4.33855013594426       -6.33329993492810
H           47.83587822387530        5.86394315064119       -8.29734953995878
H           43.72664610342849        5.95247587963517       -8.25143324758371
H           43.62168258803024        4.42804564254543       -6.28730063893514
H           48.41072655063586        2.52813560778419       -3.77175902455953
H           50.31672611128483        1.33958604671019       -2.29078597817798
H           50.32630763909003       -2.18043549930650        1.66344341244838
H           48.42888381666872       -3.36736091744863        3.15673325860329
H           43.62625454654851       -5.13051515466361        5.77029576747824
H           43.70881240665552       -6.64935870513815        7.73950464706153
H           47.81635724588341       -6.77892856007221        7.66417867503241
H           47.92210137977383       -5.26554706663318        5.69166483920186
H           43.13718893977001       -3.20432940174728        3.30496728015395
H           41.23047579161066       -1.99264325790802        1.84295555162364

          :  Hamiltonian                  GFN1-xTB          :
         :: total energy            -310.350381605202 Eh    ::
         :: gradient norm              0.000645471867 Eh/a0 ::
         :: HOMO-LUMO gap              1.134277403623 eV    ::
         :: SCC energy              -315.611001723404 Eh    ::
         :: repulsion energy           5.413204736792 Eh    ::

    * Orbital Energies and Occupations

         #    Occupation            Energy/Eh            Energy/eV
      -------------------------------------------------------------
         1        2.0000           -0.7690242             -20.9262
       ...           ...                  ...                  ...
       273        2.0000           -0.4238179             -11.5327
       274        2.0000           -0.4192026             -11.4071
       275        2.0000           -0.4191946             -11.4069
       276        2.0000           -0.4187095             -11.3937
       277        2.0000           -0.4187042             -11.3935
       278        2.0000           -0.4186233             -11.3913
       279        2.0000           -0.4186149             -11.3911
       280        2.0000           -0.4020679             -10.9408
       281        2.0000           -0.4009312             -10.9099
       282        2.0000           -0.4008954             -10.9089
       283        2.0000           -0.3918939             -10.6640
       284        2.0000           -0.3884309             -10.5697
       285        2.0000           -0.3847477             -10.4695 (HOMO)
       286                         -0.3430638              -9.3352 (LUMO)
       287                         -0.3422403              -9.3128
       288                         -0.3421768              -9.3111
       289                         -0.3421423              -9.3102
       290                         -0.3355665              -9.1312
       291                         -0.3317042              -9.0261
       292                         -0.3151539              -8.5758
       293                         -0.3117854              -8.4841
       294                         -0.3104615              -8.4481
       295                         -0.2876522              -7.8274
       296                         -0.2869919              -7.8094
       ...                                ...                  ...
       608                          1.3488745              36.7047
      -------------------------------------------------------------
                  HL-Gap            0.0416839 Eh            1.1343 eV

Wiberg/Mayer (AO) data.
largest (>0.10) Wiberg bond orders for each atom

     #   Z sym  total        # sym  WBO       # sym  WBO       # sym  WBO
 ---------------------------------------------------------------------------
     1  30 Zn   1.992 --    41 N    0.458     7 N    0.458    20 N    0.454
                            27 N    0.454
     2   6 C    3.932 --     3 C    1.360    40 C    1.360    42 H    0.971
     3   6 C    3.912 --     2 C    1.360     7 N    1.223     4 C    1.172
     4   6 C    3.961 --     5 C    1.655     3 C    1.172    43 H    0.976
     5   6 C    3.962 --     4 C    1.655     6 C    1.178    44 H    0.974
     6   6 C    3.910 --     8 C    1.266     7 N    1.263     5 C    1.178
     7   7 N    3.295 --     6 C    1.263     3 C    1.223     1 Zn   0.458
     8   6 C    3.933 --    17 C    1.269     6 C    1.266     9 C    1.163
     9   6 C    3.957 --    10 C    2.622     8 C    1.163
    10   6 C    3.932 --     9 C    2.622    11 C    1.143
    11   6 C    3.987 --    12 C    1.350    16 C    1.349    10 C    1.143
    12   6 C    3.973 --    13 C    1.458    11 C    1.350    45 H    0.974
                            15 C    0.103
    13   6 C    3.973 --    12 C    1.458    14 N    1.407    46 H    0.972
                            16 C    0.103
    14   7 N    2.993 --    13 C    1.407    15 C    1.406
    15   6 C    3.973 --    16 C    1.458    14 N    1.406    47 H    0.972
                            12 C    0.103
    16   6 C    3.973 --    15 C    1.458    11 C    1.349    48 H    0.974
                            13 C    0.103
    17   6 C    3.905 --     8 C    1.269    20 N    1.251    18 C    1.185
    18   6 C    3.963 --    19 C    1.644    17 C    1.185    49 H    0.974
    19   6 C    3.962 --    18 C    1.644    21 C    1.185    50 H    0.974
    20   7 N    3.295 --    17 C    1.251    21 C    1.242     1 Zn   0.454
    21   6 C    3.906 --    22 C    1.278    20 N    1.242    19 C    1.185
    22   6 C    3.935 --    23 C    1.278    21 C    1.278   117 C    1.141
    23   6 C    3.906 --    22 C    1.278    27 N    1.242    24 C    1.185
    24   6 C    3.962 --    25 C    1.644    23 C    1.185    51 H    0.974
    25   6 C    3.963 --    24 C    1.644    26 C    1.185    52 H    0.974
    26   6 C    3.905 --    28 C    1.268    27 N    1.251    25 C    1.185
    27   7 N    3.295 --    26 C    1.251    23 C    1.242     1 Zn   0.454
    28   6 C    3.933 --    26 C    1.268    37 C    1.266    29 C    1.163
    29   6 C    3.957 --    30 C    2.622    28 C    1.163
    30   6 C    3.932 --    29 C    2.622    31 C    1.143
    31   6 C    3.987 --    36 C    1.349    32 C    1.349    30 C    1.143
    32   6 C    3.973 --    33 C    1.458    31 C    1.349    53 H    0.974
                            35 C    0.103
    33   6 C    3.973 --    32 C    1.458    34 N    1.406    54 H    0.972
                            36 C    0.103
    34   7 N    2.993 --    35 C    1.406    33 C    1.406
    35   6 C    3.973 --    36 C    1.458    34 N    1.406    55 H    0.972
                            32 C    0.103
    36   6 C    3.973 --    35 C    1.458    31 C    1.349    56 H    0.974
                            33 C    0.103
    37   6 C    3.910 --    28 C    1.266    41 N    1.263    38 C    1.178
    38   6 C    3.962 --    39 C    1.655    37 C    1.178    57 H    0.974
    39   6 C    3.961 --    38 C    1.655    40 C    1.172    58 H    0.976
    40   6 C    3.912 --     2 C    1.360    41 N    1.223    39 C    1.172
    41   7 N    3.295 --    37 C    1.263    40 C    1.223     1 Zn   0.458
    42   1 H    1.001 --     2 C    0.971
    43   1 H    0.998 --     4 C    0.976
    44   1 H    1.003 --     5 C    0.974
    45   1 H    1.002 --    12 C    0.974
    46   1 H    1.013 --    13 C    0.972
    47   1 H    1.013 --    15 C    0.972
    48   1 H    1.002 --    16 C    0.974
    49   1 H    1.003 --    18 C    0.974
    50   1 H    1.002 --    19 C    0.974
    51   1 H    1.002 --    24 C    0.974
    52   1 H    1.003 --    25 C    0.974
    53   1 H    1.002 --    32 C    0.974
    54   1 H    1.013 --    33 C    0.972
    55   1 H    1.013 --    35 C    0.972
    56   1 H    1.002 --    36 C    0.974
    57   1 H    1.003 --    38 C    0.974
    58   1 H    0.998 --    39 C    0.976
    59  30 Zn   1.992 --    65 N    0.458    99 N    0.458    85 N    0.454
                            78 N    0.454
    60   6 C    3.931 --    98 C    1.360    61 C    1.360   100 H    0.971
    61   6 C    3.912 --    60 C    1.360    65 N    1.223    62 C    1.173
    62   6 C    3.960 --    63 C    1.654    61 C    1.173   101 H    0.976
    63   6 C    3.962 --    62 C    1.654    64 C    1.179   102 H    0.974
    64   6 C    3.910 --    66 C    1.265    65 N    1.263    63 C    1.179
    65   7 N    3.294 --    64 C    1.263    61 C    1.223    59 Zn   0.458
    66   6 C    3.932 --    75 C    1.269    64 C    1.265    67 C    1.163
    67   6 C    3.957 --    68 C    2.622    66 C    1.163
    68   6 C    3.932 --    67 C    2.622    69 C    1.143
    69   6 C    3.987 --    70 C    1.349    74 C    1.349    68 C    1.143
    70   6 C    3.973 --    71 C    1.457    69 C    1.349   103 H    0.974
                            73 C    0.103
    71   6 C    3.973 --    70 C    1.457    72 N    1.407   104 H    0.972
                            74 C    0.103
    72   7 N    2.993 --    71 C    1.407    73 C    1.406
    73   6 C    3.973 --    74 C    1.458    72 N    1.406   105 H    0.972
                            70 C    0.103
    74   6 C    3.973 --    73 C    1.458    69 C    1.349   106 H    0.974
                            71 C    0.103
    75   6 C    3.904 --    66 C    1.269    78 N    1.249    76 C    1.186
    76   6 C    3.961 --    77 C    1.643    75 C    1.186   107 H    0.974
    77   6 C    3.962 --    76 C    1.643    79 C    1.186   108 H    0.974
    78   7 N    3.295 --    75 C    1.249    79 C    1.245    59 Zn   0.454
    79   6 C    3.903 --    80 C    1.272    78 N    1.245    77 C    1.186
    80   6 C    3.935 --    79 C    1.272    81 C    1.272   120 C    1.154
    81   6 C    3.903 --    80 C    1.272    85 N    1.245    82 C    1.186
    82   6 C    3.962 --    83 C    1.643    81 C    1.186   109 H    0.974
    83   6 C    3.961 --    82 C    1.643    84 C    1.186   110 H    0.974
    84   6 C    3.904 --    86 C    1.269    85 N    1.249    83 C    1.186
    85   7 N    3.295 --    84 C    1.249    81 C    1.245    59 Zn   0.454
    86   6 C    3.932 --    84 C    1.269    95 C    1.265    87 C    1.163
    87   6 C    3.957 --    88 C    2.622    86 C    1.163
    88   6 C    3.932 --    87 C    2.622    89 C    1.143
    89   6 C    3.987 --    90 C    1.350    94 C    1.349    88 C    1.143
    90   6 C    3.973 --    91 C    1.458    89 C    1.350   111 H    0.974
                            93 C    0.103
    91   6 C    3.973 --    90 C    1.458    92 N    1.407   112 H    0.972
                            94 C    0.103
    92   7 N    2.993 --    91 C    1.407    93 C    1.406
    93   6 C    3.973 --    94 C    1.458    92 N    1.406   113 H    0.972
                            90 C    0.103
    94   6 C    3.973 --    93 C    1.458    89 C    1.349   114 H    0.974
                            91 C    0.103
    95   6 C    3.910 --    86 C    1.265    99 N    1.263    96 C    1.179
    96   6 C    3.962 --    97 C    1.654    95 C    1.179   115 H    0.974
    97   6 C    3.960 --    96 C    1.654    98 C    1.172   116 H    0.976
    98   6 C    3.912 --    60 C    1.360    99 N    1.223    97 C    1.172
    99   7 N    3.294 --    95 C    1.263    98 C    1.223    59 Zn   0.458
   100   1 H    1.001 --    60 C    0.971
   101   1 H    0.998 --    62 C    0.976
   102   1 H    1.003 --    63 C    0.974
   103   1 H    1.002 --    70 C    0.974
   104   1 H    1.013 --    71 C    0.972
   105   1 H    1.013 --    73 C    0.972
   106   1 H    1.002 --    74 C    0.974
   107   1 H    1.003 --    76 C    0.974
   108   1 H    1.002 --    77 C    0.974
   109   1 H    1.002 --    82 C    0.974
   110   1 H    1.003 --    83 C    0.974
   111   1 H    1.002 --    90 C    0.974
   112   1 H    1.013 --    91 C    0.972
   113   1 H    1.013 --    93 C    0.972
   114   1 H    1.002 --    94 C    0.974
   115   1 H    1.003 --    96 C    0.974
   116   1 H    0.998 --    97 C    0.976
   117   6 C    3.927 --   118 C    2.604    22 C    1.141
   118   6 C    3.928 --   117 C    2.604   122 C    1.141
   119   6 C    3.930 --   120 C    2.594   142 C    1.154
   120   6 C    3.929 --   119 C    2.594    80 C    1.154
   121  30 Zn   1.991 --   147 N    0.456   127 N    0.455   140 N    0.455
                           161 N    0.455
   122   6 C    3.929 --   160 C    1.278   123 C    1.277   118 C    1.141
   123   6 C    3.906 --   122 C    1.277   127 N    1.242   124 C    1.186
   124   6 C    3.962 --   125 C    1.643   123 C    1.186   162 H    0.974
   125   6 C    3.963 --   124 C    1.643   126 C    1.186   163 H    0.974
   126   6 C    3.904 --   128 C    1.267   127 N    1.250   125 C    1.186
   127   7 N    3.292 --   126 C    1.250   123 C    1.242   121 Zn   0.455
   128   6 C    3.929 --   137 C    1.268   126 C    1.267   129 C    1.162
   129   6 C    3.957 --   130 C    2.622   128 C    1.162
   130   6 C    3.931 --   129 C    2.622   131 C    1.143
   131   6 C    3.987 --   136 C    1.349   132 C    1.349   130 C    1.143
   132   6 C    3.973 --   133 C    1.458   131 C    1.349   164 H    0.974
                           135 C    0.103
   133   6 C    3.973 --   132 C    1.458   134 N    1.407   165 H    0.972
                           136 C    0.103
   134   7 N    2.993 --   133 C    1.407   135 C    1.406
   135   6 C    3.973 --   136 C    1.458   134 N    1.406   166 H    0.972
                           132 C    0.103
   136   6 C    3.973 --   135 C    1.458   131 C    1.349   167 H    0.974
                           133 C    0.103
   137   6 C    3.903 --   128 C    1.268   140 N    1.248   138 C    1.187
   138   6 C    3.962 --   139 C    1.642   137 C    1.187   168 H    0.974
   139   6 C    3.962 --   138 C    1.642   141 C    1.187   169 H    0.974
   140   7 N    3.293 --   137 C    1.248   141 C    1.245   121 Zn   0.455
   141   6 C    3.903 --   142 C    1.272   140 N    1.245   139 C    1.187
   142   6 C    3.931 --   141 C    1.272   143 C    1.271   119 C    1.154
   143   6 C    3.903 --   142 C    1.271   147 N    1.245   144 C    1.187
   144   6 C    3.962 --   145 C    1.642   143 C    1.187   170 H    0.974
   145   6 C    3.962 --   144 C    1.642   146 C    1.187   171 H    0.974
   146   6 C    3.903 --   148 C    1.269   147 N    1.248   145 C    1.187
   147   7 N    3.293 --   146 C    1.248   143 C    1.245   121 Zn   0.456
   148   6 C    3.929 --   146 C    1.269   157 C    1.267   149 C    1.162
   149   6 C    3.957 --   150 C    2.622   148 C    1.162
   150   6 C    3.931 --   149 C    2.622   151 C    1.143
   151   6 C    3.987 --   156 C    1.350   152 C    1.349   150 C    1.143
   152   6 C    3.973 --   153 C    1.458   151 C    1.349   172 H    0.974
                           155 C    0.103
   153   6 C    3.973 --   152 C    1.458   154 N    1.406   173 H    0.972
                           156 C    0.103
   154   7 N    2.993 --   155 C    1.407   153 C    1.406
   155   6 C    3.973 --   156 C    1.458   154 N    1.407   174 H    0.972
                           152 C    0.103
   156   6 C    3.973 --   155 C    1.458   151 C    1.350   175 H    0.974
                           153 C    0.103
   157   6 C    3.904 --   148 C    1.267   161 N    1.251   158 C    1.186
   158   6 C    3.963 --   159 C    1.643   157 C    1.186   176 H    0.974
   159   6 C    3.962 --   158 C    1.643   160 C    1.186   177 H    0.974
   160   6 C    3.906 --   122 C    1.278   161 N    1.242   159 C    1.186
   161   7 N    3.292 --   157 C    1.251   160 C    1.242   121 Zn   0.455
   162   1 H    1.002 --   124 C    0.974
   163   1 H    1.003 --   125 C    0.974
   164   1 H    1.002 --   132 C    0.974
   165   1 H    1.013 --   133 C    0.972
   166   1 H    1.013 --   135 C    0.972
   167   1 H    1.002 --   136 C    0.974
   168   1 H    1.003 --   138 C    0.974
   169   1 H    1.002 --   139 C    0.974
   170   1 H    1.002 --   144 C    0.974
   171   1 H    1.003 --   145 C    0.974
   172   1 H    1.002 --   152 C    0.974
   173   1 H    1.013 --   153 C    0.972
   174   1 H    1.013 --   155 C    0.972
   175   1 H    1.002 --   156 C    0.974
   176   1 H    1.003 --   158 C    0.974
   177   1 H    1.002 --   159 C    0.974
 ---------------------------------------------------------------------------

           -------------------------------------------------
          | TOTAL ENERGY             -310.350381605202 Eh   |
          | GRADIENT NORM               0.000645471867 Eh/α |
          | HOMO-LUMO GAP               1.134277403623 eV   |
           -------------------------------------------------

 * finished run on 2022/07/30 at 10:29:04.164
