   * xtb version 6.5.1 (b24c23e) compiled by 'conda@728c89f4b128' on 2022-07-12
          program call               : xtb Ni_Py_C8_3.xyz --gfn 1 --opt -T 48

   ID    Z sym.   atoms
    1   28 Ni     1, 55, 125
    2    6 C      2-6, 8-11, 13-17, 19-24, 26-29, 31-36, 56-60, 62-65, 67-71,
                  73-78, 80-83, 85-90, 109-124, 126-130, 132-135, 137-141,
                  143-148, 150-153, 155-160
    3    7 N      7, 12, 18, 25, 30, 37, 61, 66, 72, 79, 84, 91, 131, 136,
                  142, 149, 154, 161
    4    1 H      38-54, 92-108, 162-177

          :  Hamiltonian                  GFN1-xTB          :
 * total energy  :  -319.4165175 Eh     change        0.3681862E-08 Eh
 * total energy  :  -319.7908246 Eh     change       -0.3743070E+00 Eh
 * total energy  :  -319.9150633 Eh     change       -0.1242387E+00 Eh
 * total energy  :  -319.9658242 Eh     change       -0.5076087E-01 Eh
 * total energy  :  -319.9961878 Eh     change       -0.3036365E-01 Eh
 * total energy  :  -320.0258765 Eh     change       -0.2968870E-01 Eh
 * total energy  :  -320.0636144 Eh     change       -0.3773783E-01 Eh
 * total energy  :  -320.1061878 Eh     change       -0.4257347E-01 Eh
 * total energy  :  -320.1520105 Eh     change       -0.4582265E-01 Eh
 * total energy  :  -320.1895614 Eh     change       -0.3755088E-01 Eh
 * total energy  :  -320.4198267 Eh     change       -0.1186346E-04 Eh
 * total energy  :  -320.4198404 Eh     change       -0.1371641E-04 Eh
 * total energy  :  -320.4198520 Eh     change       -0.1157855E-04 Eh
 * total energy  :  -320.4198620 Eh     change       -0.9999006E-05 Eh
 * total energy  :  -320.4198719 Eh     change       -0.9829597E-05 Eh
 * total energy  :  -320.4198833 Eh     change       -0.1147567E-04 Eh
 * total energy  :  -320.4198952 Eh     change       -0.1182573E-04 Eh
 * total energy  :  -320.4199027 Eh     change       -0.7568829E-05 Eh
 * total energy  :  -320.4199046 Eh     change       -0.1894890E-05 Eh
   *** GEOMETRY OPTIMIZATION CONVERGED AFTER 94 ITERATIONS ***

 final structure:
================
177
 xtb: 6.5.1 (b24c23e)
Ni          19.62466125734987       -0.01695386280587        0.00418449167546
C           16.22927788653776       -0.03781902895849        0.06328455131858
C           16.88408990974108       -1.25050601847843        0.10932160681703
C           16.20579179524383       -2.50821521507874        0.18743696597713
C           17.16330229053543       -3.46073807145426        0.26906267516749
C           18.42667450666756       -2.78326037616638        0.23765000871156
N           18.24500745215724       -1.42706492309625        0.13077918355034
C           19.64858870550023       -3.42613108259098        0.38393253514065
C           19.65796768790808       -4.90064964784200        0.53865882324842
C           20.08322500162069       -5.50281889772813        1.72169683631471
C           20.07122906334388       -6.88562542972175        1.81714029565790
N           19.67408004844075       -7.67660137352300        0.82569866211588
C           19.26858608188248       -7.10988982597508       -0.30601008293778
C           19.24017430309842       -5.73706216563950       -0.49528283240937
C           20.85984444538679       -2.74892514385115        0.39864426580618
C           22.12830545077127       -3.39695749369446        0.54250874168003
C           23.07358328939136       -2.43229384418099        0.44492859681862
N           21.02816156031723       -1.39493936969791        0.21293248021099
C           22.38190758035794       -1.20134036567452        0.22925293787591
C           23.04066036357072        0.00970296589100        0.00150359102344
C           22.36136418913182        1.20741994896752       -0.23626414349922
C           23.03067130947710        2.43861513303997       -0.51231359872683
C           22.06903712352612        3.38402511470626       -0.63662141784389
C           20.81466610450534        2.72769355565334       -0.42393730951617
N           21.00516299036050        1.38145189397648       -0.20663892976446
C           19.59337218408445        3.38711223880590       -0.42225687353674
C           19.58125473947486        4.85779038007995       -0.60365459875964
C           18.96016932829825        5.44762396111642       -1.70361736040956
C           18.97632521861248        6.82802677090089       -1.82807679693608
N           19.55571420845163        7.62871888971836       -0.93948511377000
C           20.14794073570780        7.07426793166254        0.11328961635918
C           20.18920776889852        5.70472439461920        0.32208764879044
C           18.38291033036686        2.72905570635718       -0.24903513202473
C           17.11422235113229        3.39483095762346       -0.19537912198446
C           16.17260000715780        2.43272524313618       -0.05798733845478
C           16.86691209390044        1.18197163526870       -0.01978087013637
N           18.22278651605893        1.37272949403897       -0.11504753302078
H           15.14591710664629       -0.04401059690405        0.09218041292558
H           15.13379814984738       -2.62501234771832        0.18681167910166
H           17.03917691457292       -4.52765155662735        0.35819694896696
H           20.40534087354813       -4.89679041163537        2.56005727614276
H           20.39448372228907       -7.37839102906805        2.72941387603253
H           18.95210731345326       -7.78260855138121       -1.09775637843666
H           18.91108848400791       -5.31887414561713       -1.43907067779372
H           22.26794624620153       -4.45563429525859        0.68718526923292
H           24.14566279211034       -2.53089323411228        0.49922713990246
H           24.09946976753053        2.54809302465487       -0.60009040887974
H           22.18748782532185        4.43202297226102       -0.85788270441480
H           18.48427957729324        4.83330004171808       -2.45863871420358
H           18.50328244928840        7.31083732705083       -2.67818782848183
H           20.61031221988697        7.75460496246743        0.82245306890796
H           20.67450232029424        5.29715545265558        1.20089851659838
H           16.97643864230254        4.46238540800466       -0.25038019515871
H           15.10194781588736        2.53945334141201        0.01373598423747
Ni          56.76272899640168        0.03634572892844        0.00260602698388
C           60.15889514337318        0.06484383295689        0.06148813861862
C           59.50812659970914        1.24253830237007       -0.23986382125859
C           60.19116726849141        2.46928980667812       -0.51641914472840
C           59.23703901628011        3.40493474488189       -0.72840583831739
C           57.97120767858890        2.74696218581071       -0.58460895654391
N           58.14784703815547        1.41861282089799       -0.28797849969547
C           56.74986975882069        3.40199304717788       -0.66749698748012
C           56.74490882943881        4.85531616192060       -0.96075594990562
C           56.29093355677598        5.78132182820438       -0.02284427120764
C           56.30846128844467        7.12988161643673       -0.34275718155831
N           56.73722018054882        7.59094641230511       -1.51321234253093
C           57.16999582466086        6.71410337427939       -2.41330291830665
C           57.19559281586537        5.34717939514705       -2.18470094156053
C           55.53484039172255        2.75873317137690       -0.47862318543253
C           54.26755652187811        3.41833825443736       -0.57053443035904
C           53.31918460279950        2.47218195157440       -0.37325278949984
N           55.36281708612753        1.41461390391707       -0.23361802687895
C           54.00814766479017        1.23675731308812       -0.17541518680035
C           53.34563492654475        0.01935507103435        0.00204024357023
C           54.02058026215913       -1.19336368490834        0.16437349347779
C           53.34580249543692       -2.44500126317032        0.29840745635952
C           54.30450587668095       -3.38746545486373        0.46114955500499
C           55.56262254707128       -2.70477761075503        0.43958838992193
N           55.37669285969875       -1.35623893137124        0.23220226842923
C           56.78358106758996       -3.34035703505165        0.61670119712969
C           56.79229785630178       -4.79799382510677        0.88425721024338
C           57.38802865393098       -5.69401739270779       -0.00215833853387
C           57.37095930527930       -7.04810362199578        0.29352861256062
N           56.81363105396814       -7.54218881007635        1.39427503745150
C           56.24530797104876       -6.69424197689408        2.24541588883797
C           56.20727996785483       -5.32484904071945        2.03490618373529
C           57.99738286014760       -2.66799615579747        0.56461493589393
C           59.26561172559209       -3.29600770048140        0.79466697028705
C           60.20999936225392       -2.33922847130469        0.64081784684715
C           59.51793648062691       -1.12727632312819        0.32448851104831
N           58.16103264927854       -1.33200351175247        0.29688704806226
H           61.24219775875005        0.07638965235407        0.09107464870731
H           61.26360275205447        2.58057612865712       -0.53414396336891
H           59.36475260707330        4.45208246844060       -0.94936662694093
H           55.94235086834603        5.45128993577048        0.94847217830859
H           55.96345582164851        7.87097754392103        0.37229164887220
H           57.51169323139514        7.12154263365004       -3.36030030594959
H           57.54779993461303        4.66802067529303       -2.95189905675132
H           54.13110879079223        4.46824865385614       -0.77129316734636
H           52.24688231286670        2.58247919027363       -0.37046652010224
H           52.27573348912209       -2.57052459163318        0.26381833002571
H           54.18156457291281       -4.45152699116194        0.57904368049928
H           57.84534959703007       -5.33701301752015       -0.91721315543028
H           57.82477523182181       -7.76626763696260       -0.38311605542262
H           55.80055947644036       -7.12800009592808        3.13626453231163
H           55.74226796919933       -4.66976496889478        2.76191712752691
H           59.40116970502481       -4.33469744357909        1.04843183584318
H           61.28111935558452       -2.42528219635640        0.73087966124705
C           24.44563418099315        0.02154033503980       -0.00007538112648
C           25.66960664276450        0.03247033473532        0.00309137676812
C           27.01271603961158        0.04173973220584        0.00192333181989
C           28.24292362061766        0.04653136297814        0.00136741987934
C           29.58114960955209        0.05205014102813        0.00183984705382
C           30.81146298253991        0.05195595644052       -0.00000203004496
C           32.15434069051350        0.04992742407515       -0.00093066858248
C           33.37855455370667        0.04408346477558       -0.00084474525549
C           43.00835697260935       -0.00415339807988        0.00926766389819
C           44.23262382991172       -0.00448551890246        0.01595726560529
C           45.57524520228495       -0.00526313016879        0.02048687123104
C           46.80562927300753       -0.00632153820269        0.02161921176553
C           48.14362354929403       -0.00613224592489        0.01987372642531
C           49.37396099101741       -0.00369602575231        0.01960964308335
C           50.71684487741652        0.00384778443439        0.01663465391805
C           51.94088578232446        0.01242102186367        0.00645143533958
Ni          38.19354061666477        0.00046294212481       -0.01763315547583
C           34.78227900205037        0.03234723661572       -0.00520803873581
C           35.45279052380632       -0.71375711617217        0.96907551846291
C           34.78534220201919       -1.43719583461104        2.00347065701345
C           35.73597997871455       -2.15133242625425        2.65407342139932
C           36.98058843398535       -1.86661833632288        2.00789571011026
N           36.80048665320987       -0.94329619566823        1.00334533127841
C           38.17887159348814       -2.49939294221271        2.31279874888711
C           38.17123124614874       -3.58263617131146        3.32216866338624
C           37.41238269612351       -4.73803304296004        3.13920565744959
C           37.43802120796120       -5.72396019207968        4.11297845815224
N           38.15269338842166       -5.62142465609044        5.22884942428650
C           38.87675119319524       -4.52207007181560        5.41220036663511
C           38.92074616870306       -3.48493179772176        4.49393261243369
C           39.38392495938073       -2.15331692924518        1.71541369856678
C           40.62602074077673       -2.81616513131522        1.97143075646230
C           41.58603109175531       -2.11054940494039        1.32529488173374
N           39.57535534558270       -1.08320333636879        0.87099808962907
C           40.92632622639386       -1.02862494570409        0.66729597166372
C           41.60490444829897       -0.00437331801946       -0.00083523583715
C           40.93572761701888        1.01584583817066       -0.68420934460416
C           41.60498617819210        2.08680179860359       -1.35055897204119
C           40.65477532666208        2.77968078893449       -2.02435501200245
C           39.40840073184836        2.12385554017043       -1.77125275351074
N           39.58742439137959        1.06832282981611       -0.90650535894345
C           38.20900157091417        2.46971287719919       -2.38026649943633
C           38.21833836010357        3.53479307788964       -3.40888001886962
C           38.96717275513608        3.40453397380652       -4.57786214950280
C           38.94261133886444        4.42722732124426       -5.51295211236628
N           38.23868771302588        5.54246170869314       -5.34811331291581
C           37.52501506022778        5.67604540642350       -4.23489612768924
C           37.48040741802078        4.70651432500263       -3.24549563071415
C           37.00191181127204        1.86181875130473       -2.06072079942512
C           35.75760432267009        2.16413355452077       -2.69953428653355
C           34.79745590891030        1.48450838258672       -2.02639490304213
C           35.45912208546354        0.76014058578566       -0.98894509874764
N           36.81110883557559        0.95856231166995       -1.03968480971081
H           33.72483735543418       -1.39686265130515        2.19276756594860
H           35.61527211187103       -2.81102417033705        3.49767471663410
H           36.82309419463174       -4.86949157328325        2.23956379469295
H           36.85946182485090       -6.63494074361583        3.99101568696684
H           39.44719419828407       -4.46659330577696        6.33469540440934
H           39.51623317022113       -2.60147041965700        4.69089937698709
H           40.73915986700229       -3.70627518047309        2.56836262430003
H           42.64800951567167       -2.29241361714461        1.29016024699267
H           42.66646835420556        2.26897856497854       -1.30388971152118
H           40.77659590402182        3.65804120237407       -2.63680759311821
H           39.54773982741196        2.50788596208426       -4.75920307829485
H           39.51317599705749        4.34683804045597       -6.43354336672354
H           36.96323776495622        6.59935523116929       -4.12817074086700
H           36.89323725116319        4.86326927683224       -2.34852890418103
H           35.64326148380488        2.81255255607029       -3.55270949335937
H           33.73416648036645        1.46714823085254       -2.20304421958896

          :  Hamiltonian                  GFN1-xTB          :
         :: total energy            -320.419904622061 Eh    ::
         :: gradient norm              0.000594476080 Eh/a0 ::
         :: HOMO-LUMO gap              1.080669311377 eV    ::
         :: SCC energy              -325.728142493262 Eh    ::
         :: repulsion energy           5.468353955144 Eh    ::

    * Orbital Energies and Occupations

         #    Occupation            Energy/Eh            Energy/eV
      -------------------------------------------------------------
         1        2.0000           -0.7896931             -21.4886
       ...           ...                  ...                  ...
       285        2.0000           -0.4050389             -11.0217
       286        2.0000           -0.4050370             -11.0216
       287        2.0000           -0.4043473             -11.0029
       288        2.0000           -0.4043430             -11.0027
       289        2.0000           -0.4042979             -11.0015
       290        2.0000           -0.4041693             -10.9980
       291        2.0000           -0.4033103             -10.9746
       292        2.0000           -0.4032968             -10.9743
       293        2.0000           -0.4032440             -10.9728
       294        2.0000           -0.4032268             -10.9724
       295        2.0000           -0.3994900             -10.8707
       296        2.0000           -0.3953700             -10.7586
       297        2.0000           -0.3896128             -10.6019 (HOMO)
       298                         -0.3498989              -9.5212 (LUMO)
       299                         -0.3424664              -9.3190
       300                         -0.3384344              -9.2093
       301                         -0.3383821              -9.2078
       302                         -0.3373735              -9.1804
       303                         -0.3373339              -9.1793
       304                         -0.3361717              -9.1477
       305                         -0.3360013              -9.1431
       306                         -0.3356288              -9.1329
       307                         -0.3174978              -8.6396
       308                         -0.3090130              -8.4087
       ...                                ...                  ...
       623                          1.6009114              43.5630
      -------------------------------------------------------------
                  HL-Gap            0.0397139 Eh            1.0807 eV

Wiberg/Mayer (AO) data.
largest (>0.10) Wiberg bond orders for each atom

     #   Z sym  total        # sym  WBO       # sym  WBO       # sym  WBO
 ---------------------------------------------------------------------------
     1  28 Ni   3.007 --     7 N    0.664    37 N    0.663    25 N    0.661
                            18 N    0.660
     2   6 C    3.935 --    36 C    1.364     3 C    1.364    38 H    0.970
     3   6 C    3.923 --     2 C    1.364     7 N    1.214     4 C    1.174
     4   6 C    3.960 --     5 C    1.651     3 C    1.174    39 H    0.975
     5   6 C    3.963 --     4 C    1.651     6 C    1.176    40 H    0.972
     6   6 C    3.920 --     8 C    1.323     7 N    1.222     5 C    1.176
     7   7 N    3.403 --     6 C    1.222     3 C    1.214     1 Ni   0.664
     8   6 C    3.939 --    15 C    1.330     6 C    1.323     9 C    1.023
     9   6 C    3.986 --    10 C    1.395    14 C    1.394     8 C    1.023
                            12 N    0.107
    10   6 C    3.988 --    11 C    1.441     9 C    1.395    41 H    0.973
                            13 C    0.109
    11   6 C    3.972 --    10 C    1.441    12 N    1.416    42 H    0.972
                            14 C    0.109
    12   7 N    3.031 --    11 C    1.416    13 C    1.416     9 C    0.107
    13   6 C    3.972 --    14 C    1.441    12 N    1.416    43 H    0.972
                            10 C    0.109
    14   6 C    3.988 --    13 C    1.441     9 C    1.394    44 H    0.973
                            11 C    0.109
    15   6 C    3.915 --     8 C    1.330    18 N    1.206    16 C    1.183
    16   6 C    3.959 --    17 C    1.638    15 C    1.183    45 H    0.972
    17   6 C    3.961 --    16 C    1.638    19 C    1.190    46 H    0.973
    18   7 N    3.406 --    19 C    1.240    15 C    1.206     1 Ni   0.660
    19   6 C    3.903 --    20 C    1.263    18 N    1.240    17 C    1.190
    20   6 C    3.945 --    19 C    1.263    21 C    1.263   109 C    1.184
    21   6 C    3.903 --    20 C    1.263    25 N    1.239    22 C    1.190
    22   6 C    3.961 --    23 C    1.637    21 C    1.190    47 H    0.973
    23   6 C    3.959 --    22 C    1.637    24 C    1.183    48 H    0.972
    24   6 C    3.915 --    26 C    1.329    25 N    1.206    23 C    1.183
    25   7 N    3.406 --    21 C    1.239    24 C    1.206     1 Ni   0.661
    26   6 C    3.939 --    24 C    1.329    33 C    1.322    27 C    1.026
    27   6 C    3.986 --    28 C    1.394    32 C    1.393    26 C    1.026
                            30 N    0.107
    28   6 C    3.987 --    29 C    1.441    27 C    1.394    49 H    0.973
                            31 C    0.109
    29   6 C    3.972 --    28 C    1.441    30 N    1.416    50 H    0.972
                            32 C    0.109
    30   7 N    3.031 --    29 C    1.416    31 C    1.416    27 C    0.107
    31   6 C    3.972 --    32 C    1.442    30 N    1.416    51 H    0.972
                            28 C    0.109
    32   6 C    3.988 --    31 C    1.442    27 C    1.393    52 H    0.973
                            29 C    0.109
    33   6 C    3.920 --    26 C    1.322    37 N    1.222    34 C    1.176
    34   6 C    3.963 --    35 C    1.650    33 C    1.176    53 H    0.972
    35   6 C    3.960 --    34 C    1.650    36 C    1.174    54 H    0.975
    36   6 C    3.923 --     2 C    1.364    37 N    1.213    35 C    1.174
    37   7 N    3.402 --    33 C    1.222    36 C    1.213     1 Ni   0.663
    38   1 H    1.000 --     2 C    0.970
    39   1 H    0.997 --     4 C    0.975
    40   1 H    1.004 --     5 C    0.972
    41   1 H    1.003 --    10 C    0.973
    42   1 H    1.013 --    11 C    0.972
    43   1 H    1.013 --    13 C    0.972
    44   1 H    1.003 --    14 C    0.973
    45   1 H    1.004 --    16 C    0.972
    46   1 H    1.002 --    17 C    0.973
    47   1 H    1.001 --    22 C    0.973
    48   1 H    1.004 --    23 C    0.972
    49   1 H    1.003 --    28 C    0.973
    50   1 H    1.013 --    29 C    0.972
    51   1 H    1.013 --    31 C    0.972
    52   1 H    1.004 --    32 C    0.973
    53   1 H    1.004 --    34 C    0.972
    54   1 H    0.997 --    35 C    0.975
    55  28 Ni   3.005 --    61 N    0.663    91 N    0.663    79 N    0.660
                            72 N    0.660
    56   6 C    3.935 --    90 C    1.364    57 C    1.364    92 H    0.970
    57   6 C    3.923 --    56 C    1.364    61 N    1.214    58 C    1.174
    58   6 C    3.960 --    59 C    1.650    57 C    1.174    93 H    0.975
    59   6 C    3.963 --    58 C    1.650    60 C    1.176    94 H    0.972
    60   6 C    3.920 --    62 C    1.323    61 N    1.222    59 C    1.176
    61   7 N    3.402 --    60 C    1.222    57 C    1.214    55 Ni   0.663
    62   6 C    3.939 --    69 C    1.330    60 C    1.323    63 C    1.023
    63   6 C    3.986 --    68 C    1.395    64 C    1.394    62 C    1.023
                            66 N    0.107
    64   6 C    3.988 --    65 C    1.441    63 C    1.394    95 H    0.973
                            67 C    0.109
    65   6 C    3.972 --    64 C    1.441    66 N    1.416    96 H    0.972
                            68 C    0.109
    66   7 N    3.031 --    67 C    1.416    65 C    1.416    63 C    0.107
    67   6 C    3.972 --    68 C    1.441    66 N    1.416    97 H    0.972
                            64 C    0.109
    68   6 C    3.988 --    67 C    1.441    63 C    1.395    98 H    0.973
                            65 C    0.109
    69   6 C    3.915 --    62 C    1.330    72 N    1.206    70 C    1.183
    70   6 C    3.959 --    71 C    1.637    69 C    1.183    99 H    0.972
    71   6 C    3.961 --    70 C    1.637    73 C    1.190   100 H    0.973
    72   7 N    3.406 --    73 C    1.240    69 C    1.206    55 Ni   0.660
    73   6 C    3.902 --    74 C    1.263    72 N    1.240    71 C    1.190
    74   6 C    3.944 --    73 C    1.263    75 C    1.262   124 C    1.185
    75   6 C    3.902 --    74 C    1.262    79 N    1.240    76 C    1.191
    76   6 C    3.961 --    77 C    1.637    75 C    1.191   101 H    0.973
    77   6 C    3.959 --    76 C    1.637    78 C    1.183   102 H    0.972
    78   6 C    3.915 --    80 C    1.329    79 N    1.206    77 C    1.183
    79   7 N    3.406 --    75 C    1.240    78 C    1.206    55 Ni   0.660
    80   6 C    3.939 --    78 C    1.329    87 C    1.322    81 C    1.025
    81   6 C    3.986 --    82 C    1.394    86 C    1.393    80 C    1.025
                            84 N    0.107
    82   6 C    3.987 --    83 C    1.441    81 C    1.394   103 H    0.973
                            85 C    0.109
    83   6 C    3.972 --    82 C    1.441    84 N    1.416   104 H    0.972
                            86 C    0.109
    84   7 N    3.031 --    83 C    1.416    85 C    1.416    81 C    0.107
    85   6 C    3.972 --    86 C    1.442    84 N    1.416   105 H    0.972
                            82 C    0.109
    86   6 C    3.988 --    85 C    1.442    81 C    1.393   106 H    0.973
                            83 C    0.109
    87   6 C    3.920 --    80 C    1.322    91 N    1.222    88 C    1.176
    88   6 C    3.963 --    89 C    1.650    87 C    1.176   107 H    0.972
    89   6 C    3.960 --    88 C    1.650    90 C    1.174   108 H    0.975
    90   6 C    3.923 --    56 C    1.364    91 N    1.213    89 C    1.174
    91   7 N    3.402 --    87 C    1.222    90 C    1.213    55 Ni   0.663
    92   1 H    1.000 --    56 C    0.970
    93   1 H    0.997 --    58 C    0.975
    94   1 H    1.004 --    59 C    0.972
    95   1 H    1.003 --    64 C    0.973
    96   1 H    1.013 --    65 C    0.972
    97   1 H    1.013 --    67 C    0.972
    98   1 H    1.003 --    68 C    0.973
    99   1 H    1.004 --    70 C    0.972
   100   1 H    1.002 --    71 C    0.973
   101   1 H    1.002 --    76 C    0.973
   102   1 H    1.004 --    77 C    0.972
   103   1 H    1.003 --    82 C    0.973
   104   1 H    1.013 --    83 C    0.972
   105   1 H    1.013 --    85 C    0.972
   106   1 H    1.004 --    86 C    0.973
   107   1 H    1.004 --    88 C    0.972
   108   1 H    0.997 --    89 C    0.975
   109   6 C    3.877 --   110 C    2.446    20 C    1.184   112 C    0.187
   110   6 C    3.938 --   109 C    2.446   111 C    1.340
   111   6 C    3.893 --   112 C    2.341   110 C    1.340   114 C    0.183
   112   6 C    3.927 --   111 C    2.341   113 C    1.366   109 C    0.187
   113   6 C    3.926 --   114 C    2.340   112 C    1.366   116 C    0.187
   114   6 C    3.894 --   113 C    2.340   115 C    1.341   111 C    0.183
   115   6 C    3.935 --   116 C    2.443   114 C    1.341
   116   6 C    3.878 --   115 C    2.443   126 C    1.188   113 C    0.187
   117   6 C    3.878 --   118 C    2.442   144 C    1.189   120 C    0.187
   118   6 C    3.935 --   117 C    2.442   119 C    1.343
   119   6 C    3.894 --   120 C    2.339   118 C    1.343   122 C    0.183
   120   6 C    3.926 --   119 C    2.339   121 C    1.367   117 C    0.187
   121   6 C    3.927 --   122 C    2.340   120 C    1.367   124 C    0.187
   122   6 C    3.893 --   121 C    2.340   123 C    1.341   119 C    0.183
   123   6 C    3.938 --   124 C    2.445   122 C    1.341
   124   6 C    3.877 --   123 C    2.445    74 C    1.185   121 C    0.187
   125  28 Ni   3.009 --   161 N    0.661   149 N    0.661   142 N    0.661
                           131 N    0.661
   126   6 C    3.935 --   127 C    1.260   160 C    1.260   116 C    1.188
   127   6 C    3.902 --   126 C    1.260   131 N    1.238   128 C    1.193
   128   6 C    3.959 --   129 C    1.633   127 C    1.193   162 H    0.973
   129   6 C    3.960 --   128 C    1.633   130 C    1.186   163 H    0.973
   130   6 C    3.913 --   132 C    1.324   131 N    1.205   129 C    1.186
   131   7 N    3.399 --   127 C    1.238   130 C    1.205   125 Ni   0.661
   132   6 C    3.935 --   139 C    1.325   130 C    1.324   133 C    1.029
   133   6 C    3.986 --   134 C    1.392   138 C    1.392   132 C    1.029
                           136 N    0.106
   134   6 C    3.987 --   135 C    1.442   133 C    1.392   164 H    0.973
                           137 C    0.109
   135   6 C    3.972 --   134 C    1.442   136 N    1.416   165 H    0.972
                           138 C    0.109
   136   7 N    3.030 --   135 C    1.416   137 C    1.416   133 C    0.106
   137   6 C    3.972 --   138 C    1.442   136 N    1.416   166 H    0.972
                           134 C    0.109
   138   6 C    3.987 --   137 C    1.442   133 C    1.392   167 H    0.973
                           135 C    0.109
   139   6 C    3.913 --   132 C    1.325   142 N    1.204   140 C    1.186
   140   6 C    3.959 --   141 C    1.633   139 C    1.186   168 H    0.973
   141   6 C    3.959 --   140 C    1.633   143 C    1.193   169 H    0.973
   142   7 N    3.399 --   143 C    1.239   139 C    1.204   125 Ni   0.661
   143   6 C    3.902 --   144 C    1.259   142 N    1.239   141 C    1.193
   144   6 C    3.935 --   145 C    1.260   143 C    1.259   117 C    1.189
   145   6 C    3.902 --   144 C    1.260   149 N    1.238   146 C    1.193
   146   6 C    3.959 --   147 C    1.633   145 C    1.193   170 H    0.973
   147   6 C    3.959 --   146 C    1.633   148 C    1.186   171 H    0.973
   148   6 C    3.913 --   150 C    1.324   149 N    1.205   147 C    1.186
   149   7 N    3.399 --   145 C    1.238   148 C    1.205   125 Ni   0.661
   150   6 C    3.935 --   157 C    1.325   148 C    1.324   151 C    1.029
   151   6 C    3.986 --   156 C    1.392   152 C    1.392   150 C    1.029
                           154 N    0.106
   152   6 C    3.987 --   153 C    1.442   151 C    1.392   172 H    0.973
                           155 C    0.109
   153   6 C    3.972 --   152 C    1.442   154 N    1.416   173 H    0.972
                           156 C    0.109
   154   7 N    3.030 --   155 C    1.416   153 C    1.416   151 C    0.106
   155   6 C    3.972 --   156 C    1.442   154 N    1.416   174 H    0.972
                           152 C    0.109
   156   6 C    3.987 --   155 C    1.442   151 C    1.392   175 H    0.973
                           153 C    0.109
   157   6 C    3.913 --   150 C    1.325   161 N    1.204   158 C    1.186
   158   6 C    3.959 --   159 C    1.633   157 C    1.186   176 H    0.973
   159   6 C    3.959 --   158 C    1.633   160 C    1.193   177 H    0.973
   160   6 C    3.903 --   126 C    1.260   161 N    1.239   159 C    1.193
   161   7 N    3.399 --   160 C    1.239   157 C    1.204   125 Ni   0.661
   162   1 H    1.001 --   128 C    0.973
   163   1 H    1.004 --   129 C    0.973
   164   1 H    1.004 --   134 C    0.973
   165   1 H    1.013 --   135 C    0.972
   166   1 H    1.013 --   137 C    0.972
   167   1 H    1.004 --   138 C    0.973
   168   1 H    1.004 --   140 C    0.973
   169   1 H    1.001 --   141 C    0.973
   170   1 H    1.001 --   146 C    0.973
   171   1 H    1.004 --   147 C    0.973
   172   1 H    1.004 --   152 C    0.973
   173   1 H    1.013 --   153 C    0.972
   174   1 H    1.013 --   155 C    0.972
   175   1 H    1.004 --   156 C    0.973
   176   1 H    1.004 --   158 C    0.973
   177   1 H    1.001 --   159 C    0.973
 ---------------------------------------------------------------------------

           -------------------------------------------------
          | TOTAL ENERGY             -320.419904622061 Eh   |
          | GRADIENT NORM               0.000594476080 Eh/α |
          | HOMO-LUMO GAP               1.080669311377 eV   |
           -------------------------------------------------

 * finished run on 2022/07/30 at 02:44:49.027
