   * xtb version 6.5.1 (b24c23e) compiled by 'conda@728c89f4b128' on 2022-07-12
          program call               : xtb Cu_DHP_C6_3.xyz --gfn 1 --opt -T 48

   ID    Z sym.   atoms
    1   29 Cu     1, 59, 129
    2    6 C      2-6, 8-11, 13-17, 19-24, 26-29, 31-36, 60-64, 66-69, 71-75,
                  77-82, 84-87, 89-94, 117-128, 130-134, 136-139, 141-145,
                  147-152, 154-157, 159-164
    3    7 N      7, 12, 18, 25, 30, 37, 65, 70, 76, 83, 88, 95, 135, 140,
                  146, 153, 158, 165
    4    1 H      38-58, 96-116, 166-185
########################################################################
[WARNING] Please study the warnings concerning your input carefully
-1- prog_main_parseArguments: Unknown option '-T' provided
########################################################################

          :  Hamiltonian                  GFN1-xTB          :
 * total energy  :  -318.8654116 Eh     change       -0.1299935E-07 Eh
 * total energy  :  -319.0814943 Eh     change       -0.2160827E+00 Eh
 * total energy  :  -319.2375445 Eh     change       -0.1560502E+00 Eh
 * total energy  :  -319.3173196 Eh     change       -0.7977505E-01 Eh
 * total energy  :  -319.3726680 Eh     change       -0.5534846E-01 Eh
 * total energy  :  -319.4189387 Eh     change       -0.4627068E-01 Eh
 * total energy  :  -319.4597122 Eh     change       -0.4077351E-01 Eh
 * total energy  :  -319.4888340 Eh     change       -0.2912176E-01 Eh
 * total energy  :  -319.5085488 Eh     change       -0.1971486E-01 Eh
 * total energy  :  -319.5237893 Eh     change       -0.1524043E-01 Eh
 * total energy  :  -319.6098293 Eh     change       -0.9130801E-05 Eh
 * total energy  :  -319.6098384 Eh     change       -0.9116070E-05 Eh
 * total energy  :  -319.6098476 Eh     change       -0.9208571E-05 Eh
 * total energy  :  -319.6098572 Eh     change       -0.9616263E-05 Eh
 * total energy  :  -319.6098683 Eh     change       -0.1105312E-04 Eh
 * total energy  :  -319.6098800 Eh     change       -0.1178960E-04 Eh
 * total energy  :  -319.6098900 Eh     change       -0.9971214E-05 Eh
 * total energy  :  -319.6098974 Eh     change       -0.7354077E-05 Eh
 * total energy  :  -319.6098999 Eh     change       -0.2565957E-05 Eh
   *** GEOMETRY OPTIMIZATION CONVERGED AFTER 94 ITERATIONS ***

 final structure:
================
185
 xtb: 6.5.1 (b24c23e)
Cu          25.25935575911066        0.33660086996175        0.20671486401436
C           21.85718288810728        0.21162975744904        0.11874888617765
C           22.52731647424845       -1.00235637209266        0.09066327159240
C           21.88834281093303       -2.28672188069476        0.06972759787325
C           22.87425053226976       -3.21789247859787        0.04761162489137
C           24.12563500068084       -2.51022191730608        0.04310692884713
N           23.88313998089883       -1.16663534334582        0.07724065631790
C           25.38768440067145       -3.10870443922080        0.02623580393272
C           25.44875977469233       -4.58917902467187       -0.05995296692674
C           24.96192501315116       -5.25386751838306       -1.11824014939248
C           25.00029403018332       -6.75669993905862       -1.21869964747796
N           25.93793580270413       -7.32977557626846       -0.24916955336969
C           26.25477793286261       -6.65292737541454        0.89994689080318
C           26.07231023324371       -5.32700757219662        1.02954223792089
C           26.60015301782395       -2.41850522046965        0.08641389696219
C           27.89616221459983       -3.03170916328148        0.01984479002466
C           28.81381309405818       -2.03483091612797        0.09799941689966
N           26.74917936834093       -1.06089904442698        0.19382957723981
C           28.08619119953514       -0.80602068494673        0.20485062737896
C           28.68430898343139        0.46211101974637        0.30521933896505
C           27.98989303813311        1.68279020181828        0.36508890807532
C           28.61870777649602        2.96190580222555        0.50387564695049
C           27.62805451751774        3.88943637796255        0.51874208453487
C           26.38613132427866        3.18273970238884        0.38341488993243
N           26.63952206337573        1.83918403181336        0.29696965315560
C           25.12525625003940        3.78289381365478        0.36952580756816
C           25.07462009954170        5.26462595334139        0.43744985573302
C           24.48181704145440        5.90501504917583        1.45593768709520
C           24.40514869338881        7.40782845571964        1.53225125798984
N           25.35761264730352        8.03501716151579        0.61188004870076
C           25.78648520920510        7.36967748859327       -0.50746323978181
C           25.70513890327725        6.03284636350612       -0.62687564744919
C           23.91275003352892        3.09344286440612        0.29317081798452
C           22.61462021407444        3.70690543162109        0.21993539427434
C           21.70207117288400        2.70552477975882        0.15622790280090
C           22.43386620790345        1.47169401386547        0.17652220005321
N           23.77147528809953        1.73551193430299        0.25734549421494
H           20.77300609411436        0.17163409647246        0.09097141954355
H           20.82083979653034       -2.44204657117155        0.08158001969816
H           22.77073408925552       -4.29106072275772        0.04695233667442
H           24.49973454426236       -4.73905277547795       -1.95252039123421
H           25.32376155988299       -7.06045018538262       -2.22359330039950
H           23.98866707868440       -7.17579706156126       -1.06129352529657
H           25.88328868080423       -8.33523423256843       -0.17414946058346
H           26.74036019213306       -7.25406024080132        1.66210383314534
H           26.37505038180199       -4.80098470080247        1.92377708069693
H           28.07608069402142       -4.08962229330546       -0.08317683512332
H           29.88908891745056       -2.11369475710878        0.07824742630141
H           29.68241168564634        3.11912917419843        0.58537839175212
H           27.72430562541392        4.95818432044865        0.62201011742623
H           24.01161948600128        5.36830928227842        2.27172094224601
H           24.64273883358149        7.74770667591919        2.54937237821308
H           23.37761792471289        7.74959135017193        1.30580206384374
H           25.23627273661327        9.03307660786635        0.51800221625228
H           26.27197345497274        7.99510961218646       -1.24987027072455
H           26.09495704499190        5.51959192538793       -1.49443619579358
H           22.43237542152048        4.76944713349816        0.20700834271427
H           20.62802103253185        2.78185617913420        0.08976321191342
Cu          57.31477110604067        0.25042257146173        0.19006881855648
C           60.71902439135555        0.30982434337704        0.12458794125802
C           60.07822134730436        1.52126977403186        0.33806088601632
C           60.74711158946929        2.76801860842782        0.57595808811258
C           59.78336919786621        3.70902019226522        0.73533778244225
C           58.51602558099633        3.04767554105952        0.58301209124761
N           58.72686776753745        1.71823538319350        0.35249892955830
C           57.26807767139425        3.66918786714629        0.67063180221104
C           57.23999440995733        5.13819769228781        0.87956261882691
C           57.76247692924883        5.98913705724118       -0.01583910963992
C           57.75777877524713        7.48201127780647        0.18785948808233
N           56.80667499912881        7.87197333620693        1.23232207858457
C           56.45292375283894        6.98739324609325        2.21824766800986
C           56.60822727730493        5.65856446066501        2.08400543776595
C           56.03992630789820        3.01061317424171        0.58128466876031
C           54.75934684053029        3.65782972315357        0.61522211285117
C           53.81831573345585        2.68671658437091        0.50049199283186
N           55.85866629054072        1.66080931190283        0.43322794956795
C           54.51620751798725        1.44111056858773        0.38833025365708
C           53.88763255382194        0.18918490504565        0.26788338705143
C           54.55228035899626       -1.03871473605053        0.10865624460501
C           53.89379698352582       -2.30695447016388        0.01417029547295
C           54.86236246015302       -3.24356298973987       -0.14956092673999
C           56.12044195327446       -2.55243905808332       -0.16089845226486
N           55.89850850213857       -1.21079594802253        0.00407474095522
C           57.36716876544912       -3.16706894050853       -0.29619708401336
C           57.38560642602969       -4.63677171089490       -0.50241654016520
C           57.96891955708939       -5.46445440851618        0.37714592570891
C           58.01551692094284       -6.95712980017461        0.17785736531166
N           57.05666722367165       -7.38700479587719       -0.84363237520200
C           56.63529860446146       -6.51836668773044       -1.81656149782698
C           56.73729302520030       -5.18393150924453       -1.68577837111740
C           58.59518794334047       -2.50236189586637       -0.25260070506597
C           59.87829370320726       -3.11996776815400       -0.45079839570671
C           60.81428387052534       -2.14620763519435       -0.32720389333970
C           60.11216117821121       -0.92280729338194       -0.06526874671224
N           58.76864579729664       -1.16616677663123       -0.03005284931438
H           61.80395394827878        0.32816964233154        0.10437128831646
H           61.81775524575102        2.89161891124420        0.62359711967852
H           59.91190029245822        4.75790716084226        0.94917576123262
H           58.23090334152405        5.64076410044291       -0.92899234097547
H           57.46721424081846        7.98979041020839       -0.74179178628429
H           58.77334915331657        7.83488577045027        0.44860322946762
H           56.87899018114935        8.84070980711879        1.50798335054612
H           55.96180510655793        7.43554291368142        3.07614094276043
H           56.27642071536878        4.97201064969414        2.84990122972366
H           54.60490925350774        4.72089104876691        0.70563239144162
H           52.74561959180379        2.79533655922938        0.48513938869186
H           52.82668078116646       -2.45163846736303        0.07148456501963
H           54.74137827603965       -4.31048736157268       -0.24585110119365
H           58.45316419550515       -5.09533908569602        1.27377974541227
H           57.76584859356952       -7.47202310703244        1.11560534440949
H           59.03747117880431       -7.27249452854240       -0.10489722573004
H           57.16182689376770       -8.35199040172582       -1.12160688845033
H           56.13877504536342       -6.98737397769398       -2.66009025522146
H           56.35357756581369       -4.51263965658846       -2.44085562409567
H           60.03522448779790       -4.16416230204951       -0.66853000001465
H           61.88609845468523       -2.23293642174490       -0.41395055421833
C           33.88305994045542        0.63627925545075        0.46006075530996
C           32.65622390707693        0.60012864877339        0.42440872341609
C           31.31189897238398        0.55631045650675        0.38308757955308
C           30.08978327866248        0.51384340498479        0.34711990700501
C           35.22768350424024        0.66560197256521        0.49959308881123
C           36.45051713851116        0.68722580787691        0.53617953950734
C           49.91455338851014        0.22017316528392        0.41667396848119
C           48.68897845665404        0.27530870883841        0.46673548677654
C           47.34574388031166        0.34196345009450        0.51350674165740
C           46.12498153257345        0.41492485088968        0.55219045009144
C           51.25898623602190        0.18986743059428        0.36297559708358
C           52.48117899306658        0.17190006812489        0.31240389015009
Cu          41.28991605506806        0.63929120992279        0.60992756776155
C           37.85640312159881        0.69212737167716        0.57053659118993
C           38.52672199093235        1.46762629038741       -0.39247037710413
C           37.87331473941623        2.31159376746618       -1.34674655136647
C           38.84730753185345        2.88559316117758       -2.09839578994479
C           40.10222938236161        2.38236857601441       -1.61729570537806
N           39.87404774478914        1.52976739923093       -0.56951268963929
C           41.35281272913171        2.71229162197557       -2.14277649910766
C           41.38928132054653        3.61255612582442       -3.32204882200167
C           40.82703067428958        3.26725663950652       -4.49001686812700
C           40.89829630660793        4.14467412362966       -5.71204455266835
N           41.27350950970879        5.51612935417799       -5.35814308348127
C           41.98600823799822        5.77356308988363       -4.21594502632717
C           42.05313425849443        4.90174815243623       -3.19432639140733
C           42.57809567606941        2.25468392324596       -1.65291626057919
C           43.85268757668659        2.52375909447428       -2.25461190297937
C           44.79020877182864        1.89604322448457       -1.49955964938248
N           42.75788011702486        1.46444614414359       -0.54929911284780
C           44.09487658655730        1.23882093173979       -0.43408459325496
C           44.72099790632272        0.49439311387650        0.58128574964161
C           44.05357586989020       -0.16971297872897        1.62592991265557
C           44.71183021121433       -0.84433303859576        2.70341273240959
C           43.73978886267770       -1.35074996922696        3.50473152521340
C           42.48033293875490       -1.00264314278752        2.91135015841440
N           42.70501469032674       -0.27176211679322        1.77469205403792
C           41.22865302537900       -1.35971718625229        3.41753561058003
C           41.19194836697974       -2.21099601472534        4.63260182795213
C           41.71857030862105       -3.44443737350414        4.64746878226062
C           41.69976633311542       -4.31815807150477        5.87464207420971
N           40.73732441512050       -3.82438499306733        6.86336024808794
C           40.37768436110526       -2.50182959190892        6.88718937283115
C           40.54250892410056       -1.69059880731818        5.82756837752427
C           40.00130804850811       -0.98595451865435        2.86535043410379
C           38.72118996045111       -1.43099140851390        3.33729152231963
C           37.78258031202918       -0.86868625055887        2.53406504025316
C           38.48220128124290       -0.07727682981203        1.56708911725419
N           39.82284442890258       -0.16668966958836        1.78268377568563
H           36.80624724902184        2.45040500562809       -1.41707804675817
H           38.73118718148707        3.59503020170340       -2.90164477446963
H           40.35360781473186        2.30266823791377       -4.63181013138931
H           41.62037623065196        3.72893468140649       -6.43989985443204
H           39.91979765815898        4.17817169504838       -6.21019736255034
H           41.47915932665205        6.10190633292960       -6.15449684975011
H           42.41943842205588        6.76739207535016       -4.16610403429877
H           42.55537890725796        5.15395137216146       -2.27119514260961
H           44.00508413280647        3.10676706575397       -3.14870927626453
H           45.85830156337307        1.87090312005122       -1.64577659318514
H           45.78100563306659       -0.90551346691994        2.83000145519910
H           43.86164423093021       -1.90092541831354        4.42366621226086
H           42.19916154976588       -3.87058863862434        3.77452787444016
H           42.71014650752527       -4.36997678077642        6.32193398081960
H           41.41227982890027       -5.34330485990027        5.60433880944564
H           40.80021952790172       -4.28576043401808        7.75932882806062
H           39.87432163998397       -2.18408145434568        7.79476004319354
H           40.20564320001037       -0.66384856269153        5.84582065569592
H           38.56557652775374       -2.09806072024563        4.16971501454425
H           36.71073594012996       -0.97648430682875        2.58234500866812

          :  Hamiltonian                  GFN1-xTB          :
         :: total energy            -319.609899931873 Eh    ::
         :: gradient norm              0.000416486588 Eh/a0 ::
         :: HOMO-LUMO gap              0.000780279984 eV    ::
         :: SCC energy              -324.623399296101 Eh    ::
         :: repulsion energy           5.175666083661 Eh    ::

    * Orbital Energies and Occupations

         #    Occupation            Energy/Eh            Energy/eV
      -------------------------------------------------------------
         1        2.0000           -0.7791916             -21.2029
       ...           ...                  ...                  ...
       285        2.0000           -0.3876181             -10.5476
       286        2.0000           -0.3874192             -10.5422
       287        2.0000           -0.3803715             -10.3504
       288        2.0000           -0.3782934             -10.2939
       289        2.0000           -0.3737726             -10.1709
       290        2.0000           -0.3691558             -10.0452
       291        2.0000           -0.3690681             -10.0429
       292        2.0000           -0.3686111             -10.0304
       293        2.0000           -0.3680635             -10.0155
       294        2.0000           -0.3679854             -10.0134
       295        2.0000           -0.3668805              -9.9833
       296        1.0236           -0.3480060              -9.4697
       297        0.9949           -0.3479447              -9.4681 (HOMO)
       298        0.9815           -0.3479160              -9.4673 (LUMO)
       299                         -0.3307941              -9.0014
       300                         -0.3250587              -8.8453
       301                         -0.3223118              -8.7706
       302                         -0.3192265              -8.6866
       303                         -0.3191325              -8.6840
       304                         -0.3186514              -8.6709
       305                         -0.2963299              -8.0635
       306                         -0.2891233              -7.8674
       307                         -0.2884910              -7.8502
       308                         -0.2695283              -7.3342
       ...                                ...                  ...
       631                          1.5876585              43.2024
      -------------------------------------------------------------
                  HL-Gap            0.0000287 Eh            0.0008 eV

Wiberg/Mayer (AO) data.
largest (>0.10) Wiberg bond orders for each atom

     #   Z sym  total        # sym  WBO       # sym  WBO       # sym  WBO
 ---------------------------------------------------------------------------
     1  29 Cu   2.192 --     7 N    0.506    37 N    0.506    25 N    0.504
                            18 N    0.504
     2   6 C    3.928 --     3 C    1.361    36 C    1.361    38 H    0.971
     3   6 C    3.920 --     2 C    1.361     7 N    1.230     4 C    1.172
     4   6 C    3.955 --     5 C    1.653     3 C    1.172    39 H    0.976
     5   6 C    3.958 --     4 C    1.653     6 C    1.174    40 H    0.974
     6   6 C    3.913 --     8 C    1.320     7 N    1.238     5 C    1.174
     7   7 N    3.244 --     6 C    1.238     3 C    1.230     1 Cu   0.506
     8   6 C    3.936 --    15 C    1.326     6 C    1.320     9 C    1.025
     9   6 C    3.988 --    10 C    1.769    14 C    1.098     8 C    1.025
    10   6 C    3.972 --     9 C    1.769    11 C    1.013    41 H    0.972
    11   6 C    3.961 --    10 C    1.013    42 H    0.976    43 H    0.967
                            12 N    0.949
    12   7 N    3.248 --    13 C    1.161    11 C    0.949    44 H    0.928
                            14 C    0.127
    13   6 C    3.958 --    14 C    1.692    12 N    1.161    45 H    0.971
    14   6 C    3.968 --    13 C    1.692     9 C    1.098    46 H    0.974
                            12 N    0.127
    15   6 C    3.907 --     8 C    1.326    18 N    1.222    16 C    1.180
    16   6 C    3.955 --    17 C    1.642    15 C    1.180    47 H    0.972
    17   6 C    3.957 --    16 C    1.642    19 C    1.187    48 H    0.974
    18   7 N    3.248 --    19 C    1.255    15 C    1.222     1 Cu   0.504
    19   6 C    3.898 --    20 C    1.261    18 N    1.255    17 C    1.187
    20   6 C    3.939 --    21 C    1.261    19 C    1.261   120 C    1.183
    21   6 C    3.898 --    20 C    1.261    25 N    1.255    22 C    1.187
    22   6 C    3.957 --    23 C    1.642    21 C    1.187    49 H    0.974
    23   6 C    3.955 --    22 C    1.642    24 C    1.180    50 H    0.972
    24   6 C    3.907 --    26 C    1.325    25 N    1.222    23 C    1.180
    25   7 N    3.248 --    21 C    1.255    24 C    1.222     1 Cu   0.504
    26   6 C    3.936 --    24 C    1.325    33 C    1.320    27 C    1.025
    27   6 C    3.988 --    28 C    1.769    32 C    1.097    26 C    1.025
    28   6 C    3.972 --    27 C    1.769    29 C    1.013    51 H    0.972
    29   6 C    3.961 --    28 C    1.013    52 H    0.976    53 H    0.967
                            30 N    0.949
    30   7 N    3.247 --    31 C    1.160    29 C    0.949    54 H    0.928
                            32 C    0.127
    31   6 C    3.958 --    32 C    1.692    30 N    1.160    55 H    0.971
    32   6 C    3.968 --    31 C    1.692    27 C    1.097    56 H    0.974
                            30 N    0.127
    33   6 C    3.913 --    26 C    1.320    37 N    1.238    34 C    1.174
    34   6 C    3.958 --    35 C    1.654    33 C    1.174    57 H    0.974
    35   6 C    3.955 --    34 C    1.654    36 C    1.172    58 H    0.976
    36   6 C    3.920 --     2 C    1.361    37 N    1.230    35 C    1.172
    37   7 N    3.244 --    33 C    1.238    36 C    1.230     1 Cu   0.506
    38   1 H    1.002 --     2 C    0.971
    39   1 H    0.998 --     4 C    0.976
    40   1 H    1.007 --     5 C    0.974
    41   1 H    1.003 --    10 C    0.972
    42   1 H    1.019 --    11 C    0.976
    43   1 H    1.008 --    11 C    0.967
    44   1 H    0.964 --    12 N    0.928
    45   1 H    1.001 --    13 C    0.971
    46   1 H    1.003 --    14 C    0.974
    47   1 H    1.006 --    16 C    0.972
    48   1 H    1.002 --    17 C    0.974
    49   1 H    1.002 --    22 C    0.974
    50   1 H    1.006 --    23 C    0.972
    51   1 H    1.003 --    28 C    0.972
    52   1 H    1.019 --    29 C    0.976
    53   1 H    1.008 --    29 C    0.967
    54   1 H    0.964 --    30 N    0.928
    55   1 H    1.001 --    31 C    0.971
    56   1 H    1.003 --    32 C    0.974
    57   1 H    1.007 --    34 C    0.974
    58   1 H    0.998 --    35 C    0.976
    59  29 Cu   2.190 --    95 N    0.506    65 N    0.505    76 N    0.504
                            83 N    0.503
    60   6 C    3.928 --    94 C    1.361    61 C    1.360    96 H    0.971
    61   6 C    3.920 --    60 C    1.360    65 N    1.230    62 C    1.172
    62   6 C    3.955 --    63 C    1.653    61 C    1.172    97 H    0.976
    63   6 C    3.958 --    62 C    1.653    64 C    1.174    98 H    0.974
    64   6 C    3.913 --    66 C    1.319    65 N    1.238    63 C    1.174
    65   7 N    3.243 --    64 C    1.238    61 C    1.230    59 Cu   0.505
    66   6 C    3.936 --    73 C    1.325    64 C    1.319    67 C    1.025
    67   6 C    3.988 --    68 C    1.768    72 C    1.097    66 C    1.025
    68   6 C    3.972 --    67 C    1.768    69 C    1.013    99 H    0.972
    69   6 C    3.961 --    68 C    1.013   100 H    0.976   101 H    0.966
                            70 N    0.949
    70   7 N    3.247 --    71 C    1.160    69 C    0.949   102 H    0.928
                            72 C    0.127
    71   6 C    3.958 --    72 C    1.692    70 N    1.160   103 H    0.971
    72   6 C    3.968 --    71 C    1.692    67 C    1.097   104 H    0.974
                            70 N    0.127
    73   6 C    3.907 --    66 C    1.325    76 N    1.222    74 C    1.180
    74   6 C    3.955 --    75 C    1.642    73 C    1.180   105 H    0.972
    75   6 C    3.957 --    74 C    1.642    77 C    1.187   106 H    0.974
    76   7 N    3.248 --    77 C    1.255    73 C    1.222    59 Cu   0.504
    77   6 C    3.898 --    78 C    1.260    76 N    1.255    75 C    1.187
    78   6 C    3.939 --    79 C    1.263    77 C    1.260   128 C    1.182
    79   6 C    3.899 --    78 C    1.263    83 N    1.255    80 C    1.186
    80   6 C    3.957 --    81 C    1.643    79 C    1.186   107 H    0.974
    81   6 C    3.955 --    80 C    1.643    82 C    1.180   108 H    0.973
    82   6 C    3.907 --    84 C    1.325    83 N    1.223    81 C    1.180
    83   7 N    3.248 --    79 C    1.255    82 C    1.223    59 Cu   0.503
    84   6 C    3.936 --    82 C    1.325    91 C    1.320    85 C    1.025
    85   6 C    3.988 --    86 C    1.768    90 C    1.098    84 C    1.025
    86   6 C    3.972 --    85 C    1.768    87 C    1.013   109 H    0.972
    87   6 C    3.961 --    86 C    1.013   110 H    0.976   111 H    0.967
                            88 N    0.949
    88   7 N    3.248 --    89 C    1.161    87 C    0.949   112 H    0.928
                            90 C    0.127
    89   6 C    3.958 --    90 C    1.691    88 N    1.161   113 H    0.971
    90   6 C    3.968 --    89 C    1.691    85 C    1.098   114 H    0.974
                            88 N    0.127
    91   6 C    3.913 --    84 C    1.320    95 N    1.238    92 C    1.173
    92   6 C    3.958 --    93 C    1.654    91 C    1.173   115 H    0.974
    93   6 C    3.955 --    92 C    1.654    94 C    1.172   116 H    0.976
    94   6 C    3.920 --    60 C    1.361    95 N    1.230    93 C    1.172
    95   7 N    3.244 --    91 C    1.238    94 C    1.230    59 Cu   0.506
    96   1 H    1.002 --    60 C    0.971
    97   1 H    0.998 --    62 C    0.976
    98   1 H    1.007 --    63 C    0.974
    99   1 H    1.003 --    68 C    0.972
   100   1 H    1.019 --    69 C    0.976
   101   1 H    1.008 --    69 C    0.966
   102   1 H    0.964 --    70 N    0.928
   103   1 H    1.001 --    71 C    0.971
   104   1 H    1.003 --    72 C    0.974
   105   1 H    1.006 --    74 C    0.972
   106   1 H    1.002 --    75 C    0.974
   107   1 H    1.002 --    80 C    0.974
   108   1 H    1.006 --    81 C    0.973
   109   1 H    1.003 --    86 C    0.972
   110   1 H    1.019 --    87 C    0.976
   111   1 H    1.008 --    87 C    0.967
   112   1 H    0.964 --    88 N    0.928
   113   1 H    1.001 --    89 C    0.971
   114   1 H    1.003 --    90 C    0.974
   115   1 H    1.007 --    92 C    0.974
   116   1 H    0.998 --    93 C    0.976
   117   6 C    3.925 --   118 C    2.375   121 C    1.329   120 C    0.190
   118   6 C    3.924 --   117 C    2.375   119 C    1.328   122 C    0.190
   119   6 C    3.935 --   120 C    2.457   118 C    1.328
   120   6 C    3.889 --   119 C    2.457    20 C    1.183   117 C    0.190
   121   6 C    3.932 --   122 C    2.454   117 C    1.329
   122   6 C    3.890 --   121 C    2.454   130 C    1.186   118 C    0.190
   123   6 C    3.923 --   124 C    2.376   127 C    1.328   126 C    0.190
   124   6 C    3.925 --   123 C    2.376   125 C    1.328   128 C    0.190
   125   6 C    3.932 --   126 C    2.455   124 C    1.328
   126   6 C    3.889 --   125 C    2.455   148 C    1.185   123 C    0.190
   127   6 C    3.935 --   128 C    2.458   123 C    1.328
   128   6 C    3.889 --   127 C    2.458    78 C    1.182   124 C    0.190
   129  29 Cu   2.167 --   165 N    0.500   146 N    0.500   135 N    0.499
                           153 N    0.498
   130   6 C    3.928 --   164 C    1.260   131 C    1.257   122 C    1.186
   131   6 C    3.901 --   135 N    1.259   130 C    1.257   132 C    1.188
   132   6 C    3.956 --   133 C    1.640   131 C    1.188   166 H    0.974
   133   6 C    3.956 --   132 C    1.640   134 C    1.181   167 H    0.973
   134   6 C    3.907 --   136 C    1.325   135 N    1.221   133 C    1.181
   135   7 N    3.241 --   131 C    1.259   134 C    1.221   129 Cu   0.499
   136   6 C    3.932 --   134 C    1.325   143 C    1.321   137 C    1.025
   137   6 C    3.988 --   138 C    1.766   142 C    1.099   136 C    1.025
   138   6 C    3.972 --   137 C    1.766   139 C    1.013   168 H    0.972
   139   6 C    3.961 --   138 C    1.013   170 H    0.975   169 H    0.967
                           140 N    0.949
   140   7 N    3.250 --   141 C    1.162   139 C    0.949   171 H    0.928
                           142 C    0.127
   141   6 C    3.958 --   142 C    1.691   140 N    1.162   172 H    0.971
   142   6 C    3.967 --   141 C    1.691   137 C    1.099   173 H    0.973
                           140 N    0.127
   143   6 C    3.905 --   136 C    1.321   146 N    1.224   144 C    1.182
   144   6 C    3.956 --   145 C    1.640   143 C    1.182   174 H    0.973
   145   6 C    3.955 --   144 C    1.640   147 C    1.188   175 H    0.974
   146   7 N    3.242 --   147 C    1.257   143 C    1.224   129 Cu   0.500
   147   6 C    3.899 --   148 C    1.259   146 N    1.257   145 C    1.188
   148   6 C    3.928 --   147 C    1.259   149 C    1.258   126 C    1.185
   149   6 C    3.901 --   153 N    1.258   148 C    1.258   150 C    1.189
   150   6 C    3.956 --   151 C    1.639   149 C    1.189   176 H    0.974
   151   6 C    3.956 --   150 C    1.639   152 C    1.182   177 H    0.974
   152   6 C    3.907 --   154 C    1.323   153 N    1.222   151 C    1.182
   153   7 N    3.241 --   149 C    1.258   152 C    1.222   129 Cu   0.498
   154   6 C    3.932 --   152 C    1.323   161 C    1.322   155 C    1.026
   155   6 C    3.988 --   156 C    1.767   160 C    1.097   154 C    1.026
   156   6 C    3.972 --   155 C    1.767   157 C    1.013   178 H    0.972
   157   6 C    3.961 --   156 C    1.013   180 H    0.976   179 H    0.966
                           158 N    0.949
   158   7 N    3.248 --   159 C    1.161   157 C    0.949   181 H    0.928
                           160 C    0.127
   159   6 C    3.958 --   160 C    1.692   158 N    1.161   182 H    0.971
   160   6 C    3.968 --   159 C    1.692   155 C    1.097   183 H    0.974
                           158 N    0.127
   161   6 C    3.905 --   154 C    1.322   165 N    1.223   162 C    1.181
   162   6 C    3.956 --   163 C    1.641   161 C    1.181   184 H    0.973
   163   6 C    3.955 --   162 C    1.641   164 C    1.187   185 H    0.974
   164   6 C    3.899 --   130 C    1.260   165 N    1.257   163 C    1.187
   165   7 N    3.242 --   164 C    1.257   161 C    1.223   129 Cu   0.500
   166   1 H    1.002 --   132 C    0.974
   167   1 H    1.007 --   133 C    0.973
   168   1 H    1.003 --   138 C    0.972
   169   1 H    1.009 --   139 C    0.967
   170   1 H    1.018 --   139 C    0.975
   171   1 H    0.964 --   140 N    0.928
   172   1 H    1.002 --   141 C    0.971
   173   1 H    1.003 --   142 C    0.973
   174   1 H    1.005 --   144 C    0.973
   175   1 H    1.002 --   145 C    0.974
   176   1 H    1.002 --   150 C    0.974
   177   1 H    1.007 --   151 C    0.974
   178   1 H    1.003 --   156 C    0.972
   179   1 H    1.008 --   157 C    0.966
   180   1 H    1.019 --   157 C    0.976
   181   1 H    0.964 --   158 N    0.928
   182   1 H    1.001 --   159 C    0.971
   183   1 H    1.003 --   160 C    0.974
   184   1 H    1.006 --   162 C    0.973
   185   1 H    1.002 --   163 C    0.974
 ---------------------------------------------------------------------------

           -------------------------------------------------
          | TOTAL ENERGY             -319.609899931873 Eh   |
          | GRADIENT NORM               0.000416486588 Eh/α |
          | HOMO-LUMO GAP               0.000780279984 eV   |
           -------------------------------------------------

 * finished run on 2022/07/30 at 06:05:08.658
