   * xtb version 6.5.1 (b24c23e) compiled by 'conda@728c89f4b128' on 2022-07-12
          program call               : xtb Cu_Ph3Me_C2_2.xyz --gfn 1 --opt -T 48

   ID    Z sym.   atoms
    1   29 Cu     1, 75
    2    6 C      2-6, 8-20, 22-27, 29-42, 76-80, 82-94, 96-101, 103-116,
                  149, 150
    3    7 N      7, 21, 28, 43, 81, 95, 102, 117
    4    1 H      44-74, 118-148
########################################################################
[WARNING] Please study the warnings concerning your input carefully
-1- prog_main_parseArguments: Unknown option '-T' provided
########################################################################

          :  Hamiltonian                  GFN1-xTB          :
 * total energy  :  -232.7169872 Eh     change       -0.3313488E-08 Eh
 * total energy  :  -232.8744638 Eh     change       -0.1574766E+00 Eh
 * total energy  :  -232.9347931 Eh     change       -0.6032930E-01 Eh
 * total energy  :  -232.9497600 Eh     change       -0.1496690E-01 Eh
 * total energy  :  -232.9553165 Eh     change       -0.5556497E-02 Eh
 * total energy  :  -232.9586287 Eh     change       -0.3312242E-02 Eh
 * total energy  :  -232.9605608 Eh     change       -0.1932124E-02 Eh
 * total energy  :  -232.9617692 Eh     change       -0.1208364E-02 Eh
 * total energy  :  -232.9625725 Eh     change       -0.8033158E-03 Eh
 * total energy  :  -232.9631038 Eh     change       -0.5312574E-03 Eh
 * total energy  :  -232.9649661 Eh     change       -0.7440269E-05 Eh
 * total energy  :  -232.9649729 Eh     change       -0.6830329E-05 Eh
 * total energy  :  -232.9649800 Eh     change       -0.7145462E-05 Eh
 * total energy  :  -232.9649880 Eh     change       -0.7933311E-05 Eh
 * total energy  :  -232.9649963 Eh     change       -0.8350671E-05 Eh
 * total energy  :  -232.9650039 Eh     change       -0.7540351E-05 Eh
 * total energy  :  -232.9650103 Eh     change       -0.6470544E-05 Eh
 * total energy  :  -232.9650159 Eh     change       -0.5542706E-05 Eh
 * total energy  :  -232.9650179 Eh     change       -0.2028760E-05 Eh
   *** GEOMETRY OPTIMIZATION CONVERGED AFTER 44 ITERATIONS ***

 final structure:
================
150
 xtb: 6.5.1 (b24c23e)
Cu          17.03881480477174        0.07945473854045        0.02639882906832
C           13.62045163510441        0.15357327461472       -0.02426375641538
C           14.26573993182288        1.28222177756378        0.45979795443719
C           13.60542067018787        2.46028913525216        0.94762582943020
C           14.57552713171918        3.33365617892185        1.31641505475173
C           15.83720555345961        2.69710256368363        1.05296184801935
N           15.61832033391911        1.45205455226066        0.53827303756796
C           17.08561365826905        3.27706490402478        1.27301902958698
C           17.10706846612160        4.66275810055187        1.82695718134390
C           17.02326199688853        5.76221614608965        0.96803410576292
C           16.92024352465085        5.54806926381058       -0.51871060802165
C           17.03523643396639        7.04696708000791        1.49862671248199
C           17.12770879938203        7.25245092294702        2.87129558493440
C           17.15604928681200        8.64829199765419        3.43332618767007
C           17.21365888127725        6.15114374370802        3.71676490932537
C           17.20410487053011        4.85781899134532        3.20776823473930
C           17.29445761488727        3.67101743579115        4.12983900857821
C           18.31390145190992        2.66932239578874        1.01790158848450
C           19.58728136303423        3.30000704559787        1.21336681047322
C           20.53441875737342        2.39266305191892        0.86520255358425
N           18.50660202810887        1.39472221100075        0.55395876976796
C           19.85173009865500        1.20001173458450        0.46249315497036
C           20.48881512769921        0.01084400509148        0.06060724279587
C           19.81236264636172       -1.15525851900595       -0.34453831067201
C           20.45442346565709       -2.37893276207778       -0.71981816737405
C           19.47882295430612       -3.25102471701309       -1.07926655460351
C           18.22839004156344       -2.56633662284715       -0.92077204603792
N           18.46266529098512       -1.29646835671261       -0.46294560012279
C           16.98292088703111       -3.12317511211705       -1.20738528929397
C           16.96342990592229       -4.51087962161210       -1.75625369455786
C           17.11215453615893       -4.71554805573657       -3.13176514715763
C           17.29064187696077       -3.53722152846417       -4.05189235275419
C           17.09324090048154       -6.00973874942393       -3.63606230133471
C           16.92955858785039       -7.10420488388281       -2.79145124739564
C           16.90495842172891       -8.49689910840068       -3.36148361506922
C           16.78176225848824       -6.88930402937770       -1.42619419767640
C           16.79692028858218       -5.60200650330828       -0.89976785731702
C           16.63787255682444       -5.37859867988538        0.58068172438224
C           15.75490516460469       -2.48844408188735       -1.02794211281712
C           14.47522774365915       -3.06929159787232       -1.33029704984798
C           13.53365419207362       -2.15249503083226       -0.99430929380197
C           14.22984517118234       -1.00338234666290       -0.48763072196074
N           15.57531165343259       -1.23315853519080       -0.52297040102143
H           12.53576074821706        0.17774618145357       -0.04129252152638
H           12.53537601358431        2.58791557166587        0.99699854508538
H           14.46099019409978        4.32247410631890        1.73134825495633
H           16.00170208535597        5.00976239596807       -0.76062100156004
H           17.76089067113479        4.94988638844391       -0.87499872803573
H           16.91666249346385        6.49941681927460       -1.04991967236094
H           16.96896888419393        7.90024197368979        0.83145272451489
H           16.72557723865396        8.67250296856617        4.43477563351481
H           18.18767230852688        9.00208117885269        3.49873158664118
H           16.60181926814380        9.33598677962141        2.79408264445308
H           17.28626384376579        6.30192907971700        4.78895446184575
H           18.19881902156738        3.09673621512905        3.91940205053121
H           17.31776334918310        3.98831193896963        5.17197551677890
H           16.43820459132347        3.01010996192215        3.98298413628910
H           19.72836318353500        4.30919685284753        1.56579514279412
H           21.60407172241657        2.51606540700544        0.87440784648000
H           21.51791664360143       -2.54668391306962       -0.70120078060270
H           19.58625149410466       -4.26963606692515       -1.41603263205613
H           16.46193708736773       -2.83627307004905       -3.93620900066528
H           17.33556175101124       -3.85872233473286       -5.09203447773616
H           18.21322713993186       -3.00550430327901       -3.81087613430921
H           17.20846901275951       -6.16926085244948       -4.70326637005659
H           17.76740708989029       -8.65949387587126       -4.00989001561387
H           16.91709845409236       -9.24458682990851       -2.56856409132618
H           16.00292086759251       -8.64207352111854       -3.95967639673296
H           16.65394238768251       -7.73574330108341       -0.75930453884812
H           15.73032165092364       -4.80580099054359        0.78135967495454
H           17.48389212301912       -4.81069081986114        0.97202950061537
H           16.57569029429890       -6.32720440648604        1.11317077892912
H           14.33018945110611       -4.05314177013795       -1.74752366167062
H           12.46109770685231       -2.23263662225628       -1.07760734541402
Cu          27.98069249368524       -0.07557920030918       -0.03603727144321
C           31.39905682228789       -0.09394922532038       -0.12391370619784
C           30.75378015159374       -1.24350987096353       -0.55599241704374
C           31.41411114788825       -2.43129932960824       -1.01963067505720
C           30.44401419349823       -3.31686555194003       -1.35810875504490
C           29.18232826029112       -2.67516606332933       -1.10748618193765
N           29.40120214935607       -1.42041041920786       -0.61693151698720
C           27.93392420667676       -3.24603025205175       -1.35019743359127
C           27.91248704732259       -4.62944091797028       -1.90981153375262
C           27.99627120081175       -4.82816153128121       -3.29077864983267
C           28.09924058210159       -3.64433812922544       -4.21535476878916
C           27.98432500495936       -6.12257117729443       -3.79735309622763
C           27.89190265097591       -7.22116617892162       -2.94909512421242
C           27.86359745351007       -8.61750359099389       -3.50989303057268
C           27.80597006307339       -7.01179666589887       -1.57655608299421
C           27.81549590557539       -5.72615139261753       -1.04846233941043
C           27.72515803729633       -5.50812100519264        0.43854072066289
C           26.70562719365053       -2.63087899751656       -1.11354277870948
C           25.43225206662306       -3.22131418701854       -1.40912410986141
C           24.48510632246506       -2.32555136862972       -1.03218099479691
N           26.51291312846511       -1.38994259570297       -0.56589505126103
C           25.16778288528883       -1.18614788833901       -0.49704508667963
C           24.53069176780607       -0.04984137773523        0.03628686953285
C           25.20713398436747        1.07210191263900        0.55125338816198
C           24.56506307134026        2.21489550697857        1.12764104634190
C           25.54065622343650        3.09304586855355        1.47204554555688
C           26.79109284394447        2.48928409435156        1.11234853901859
N           26.55682690613421        1.25601049689570        0.56352101056917
C           28.03655760970923        3.08953679057337        1.29103321132074
C           28.05603257608164        4.47086717740437        1.85575243503327
C           27.90726028169578        5.57087481403032        1.00493496263833
C           27.72874724853014        5.35767646173146       -0.47480306219122
C           27.92614934046427        6.85386733829887        1.53707876854654
C           28.08985454514866        7.05883761560470        2.90426690345158
C           28.11442303185918        8.45841787784187        3.45717819067425
C           28.23770132977546        5.95854637008413        3.74060045632660
C           28.22256819683721        4.66520722117389        3.22919664827287
C           28.38167021082850        3.47902430355986        4.14275811561497
C           29.26457928750194        2.50732333505345        0.98103654806926
C           30.54424926579236        3.13580620491039        1.16497370674233
C           31.48583094932927        2.24167853700866        0.77264120011971
C           30.78965527378601        1.06168678916377        0.34272762358221
N           29.44418734387328        1.25194153747706        0.47631085440605
H           32.48374597007312       -0.09956722975414       -0.15300770462039
H           32.48415711982436       -2.55754723011065       -1.07240141266454
H           30.55856125787930       -4.31765768052404       -1.74326203446610
H           29.01777921923580       -3.08840504412959       -4.01726739719395
H           27.25858755230953       -2.96604169493037       -4.05829451109708
H           28.10279471185586       -3.96306351667984       -5.25730461656767
H           28.05057666375233       -6.27639756190784       -4.86951851280796
H           28.29408622306571       -9.32827923583717       -2.80401013111645
H           26.83198232127235       -8.91810369198438       -3.70763148297990
H           28.41783063936855       -8.67117214771542       -4.44726844762742
H           27.73340195649733       -7.86289526178225       -0.90725561184919
H           26.82078365144461       -4.94805870816946        0.68428361392097
H           27.70188635577200       -6.45856465011072        0.97087783499035
H           28.58139894574245       -4.92951749020846        0.79011397975701
H           25.29117855263891       -4.19353064285018       -1.85349672007871
H           23.41545446667190       -2.42098457545511       -1.11096523950633
H           23.50157002023310        2.32303149779631        1.25723675362115
H           25.43321990731125        4.06120045719155        1.93427474120908
H           28.55744704158432        4.77180667202685       -0.87664400415947
H           27.68381052969870        6.30979677532176       -1.00274614810652
H           26.80616117574576        4.80713509658844       -0.66900568844193
H           27.81088863525529        7.70784482443876        0.87746762370544
H           27.25196451849038        9.02464526291707        3.10187918024910
H           28.10227907638599        8.44894835846922        4.54698026723991
H           29.01645153359994        8.97734547121782        3.12605788815098
H           28.36553260192420        6.10759312728771        4.80783208392638
H           29.28923319313157        2.92680319687586        3.89096672306068
H           27.53566956686194        2.79826714736617        4.03196914570877
H           28.44386436094824        3.79483969747770        5.18374632376790
H           30.68927718415565        4.13458740520603        1.54507707077913
H           32.55838483963533        2.35720012445819        0.76799275576390
C           21.90077658559504       -0.01359459391233        0.06147093904099
C           23.11873063063428       -0.03282104445000        0.05387050360730

          :  Hamiltonian                  GFN1-xTB          :
         :: total energy            -232.965017894510 Eh    ::
         :: gradient norm              0.000179385055 Eh/a0 ::
         :: HOMO-LUMO gap              0.002522812605 eV    ::
         :: SCC energy              -236.535199362109 Eh    ::
         :: repulsion energy           3.707848515536 Eh    ::

    * Orbital Energies and Occupations

         #    Occupation            Energy/Eh            Energy/eV
      -------------------------------------------------------------
         1        2.0000           -0.7609998             -20.7079
       ...           ...                  ...                  ...
       206        2.0000           -0.4091557             -11.1337
       207        2.0000           -0.4091221             -11.1328
       208        2.0000           -0.4059943             -11.0477
       209        2.0000           -0.4059843             -11.0474
       210        2.0000           -0.4056877             -11.0393
       211        2.0000           -0.4056847             -11.0392
       212        2.0000           -0.4056564             -11.0385
       213        2.0000           -0.4055377             -11.0352
       214        2.0000           -0.3927094             -10.6862
       215        2.0000           -0.3926965             -10.6858
       216        2.0000           -0.3921891             -10.6720
       217        2.0000           -0.3771163             -10.2619
       218        1.0244           -0.3526791              -9.5969 (HOMO)
       219        0.9756           -0.3525864              -9.5944 (LUMO)
       220                         -0.3354173              -9.1272
       221                         -0.3231350              -8.7930
       222                         -0.3231275              -8.7927
       223                         -0.3182170              -8.6591
       224                         -0.2913292              -7.9275
       225                         -0.2818323              -7.6690
       226                         -0.2540220              -6.9123
       227                         -0.2540133              -6.9121
       228                         -0.2539254              -6.9097
       229                         -0.2539203              -6.9095
       ...                                ...                  ...
       486                          1.3340665              36.3018
      -------------------------------------------------------------
                  HL-Gap            0.0000927 Eh            0.0025 eV

Wiberg/Mayer (AO) data.
largest (>0.10) Wiberg bond orders for each atom

     #   Z sym  total        # sym  WBO       # sym  WBO       # sym  WBO
 ---------------------------------------------------------------------------
     1  29 Cu   2.190 --     7 N    0.506    43 N    0.506    28 N    0.504
                            21 N    0.504
     2   6 C    3.928 --     3 C    1.361    42 C    1.361    44 H    0.972
     3   6 C    3.919 --     2 C    1.361     7 N    1.231     4 C    1.170
     4   6 C    3.955 --     5 C    1.656     3 C    1.170    45 H    0.976
     5   6 C    3.958 --     4 C    1.656     6 C    1.171    46 H    0.974
     6   6 C    3.913 --     8 C    1.326     7 N    1.235     5 C    1.171
     7   7 N    3.243 --     6 C    1.235     3 C    1.231     1 Cu   0.506
     8   6 C    3.934 --    18 C    1.331     6 C    1.326     9 C    1.004
     9   6 C    3.987 --    10 C    1.381    16 C    1.381     8 C    1.004
                            13 C    0.104
    10   6 C    3.985 --    12 C    1.420     9 C    1.381    11 C    1.020
                            15 C    0.103
    11   6 C    3.996 --    10 C    1.020    49 H    0.986    48 H    0.975
                            47 H    0.973
    12   6 C    3.993 --    10 C    1.420    13 C    1.414    50 H    0.970
                            16 C    0.103
    13   6 C    3.988 --    12 C    1.414    15 C    1.414    14 C    1.020
                             9 C    0.104
    14   6 C    3.996 --    13 C    1.020    53 H    0.983    51 H    0.983
                            52 H    0.971
    15   6 C    3.993 --    16 C    1.421    13 C    1.414    54 H    0.970
                            10 C    0.103
    16   6 C    3.985 --    15 C    1.421     9 C    1.381    17 C    1.020
                            12 C    0.103
    17   6 C    3.996 --    16 C    1.020    56 H    0.986    57 H    0.975
                            55 H    0.973
    18   6 C    3.909 --     8 C    1.331    21 N    1.219    19 C    1.179
    19   6 C    3.955 --    20 C    1.641    18 C    1.179    58 H    0.974
    20   6 C    3.957 --    19 C    1.641    22 C    1.188    59 H    0.965
    21   7 N    3.247 --    22 C    1.256    18 C    1.219     1 Cu   0.504
    22   6 C    3.903 --    23 C    1.263    21 N    1.256    20 C    1.188
    23   6 C    3.940 --    22 C    1.263    24 C    1.262   149 C    1.178
    24   6 C    3.903 --    23 C    1.262    28 N    1.256    25 C    1.188
    25   6 C    3.957 --    26 C    1.641    24 C    1.188    60 H    0.965
    26   6 C    3.955 --    25 C    1.641    27 C    1.179    61 H    0.974
    27   6 C    3.909 --    29 C    1.331    28 N    1.219    26 C    1.179
    28   7 N    3.247 --    24 C    1.256    27 C    1.219     1 Cu   0.504
    29   6 C    3.934 --    27 C    1.331    39 C    1.326    30 C    1.004
    30   6 C    3.987 --    37 C    1.385    31 C    1.377    29 C    1.004
                            34 C    0.104
    31   6 C    3.985 --    33 C    1.425    30 C    1.377    32 C    1.020
                            36 C    0.102
    32   6 C    3.996 --    31 C    1.020    63 H    0.986    62 H    0.975
                            64 H    0.973
    33   6 C    3.993 --    31 C    1.425    34 C    1.409    65 H    0.971
                            37 C    0.103
    34   6 C    3.988 --    36 C    1.419    33 C    1.409    35 C    1.020
                            30 C    0.104
    35   6 C    3.996 --    34 C    1.020    67 H    0.986    66 H    0.978
                            68 H    0.974
    36   6 C    3.993 --    34 C    1.419    37 C    1.416    69 H    0.970
                            31 C    0.102
    37   6 C    3.985 --    36 C    1.416    30 C    1.385    38 C    1.020
                            33 C    0.103
    38   6 C    3.996 --    37 C    1.020    72 H    0.986    71 H    0.975
                            70 H    0.973
    39   6 C    3.913 --    29 C    1.326    43 N    1.235    40 C    1.171
    40   6 C    3.958 --    41 C    1.656    39 C    1.171    73 H    0.974
    41   6 C    3.955 --    40 C    1.656    42 C    1.170    74 H    0.976
    42   6 C    3.919 --     2 C    1.361    43 N    1.231    41 C    1.170
    43   7 N    3.243 --    39 C    1.235    42 C    1.231     1 Cu   0.506
    44   1 H    1.002 --     2 C    0.972
    45   1 H    0.998 --     4 C    0.976
    46   1 H    1.002 --     5 C    0.974
    47   1 H    1.008 --    11 C    0.973
    48   1 H    1.007 --    11 C    0.975
    49   1 H    1.004 --    11 C    0.986
    50   1 H    1.000 --    12 C    0.970
    51   1 H    1.004 --    14 C    0.983
    52   1 H    1.006 --    14 C    0.971
    53   1 H    1.004 --    14 C    0.983
    54   1 H    1.000 --    15 C    0.970
    55   1 H    1.008 --    17 C    0.973
    56   1 H    1.004 --    17 C    0.986
    57   1 H    1.007 --    17 C    0.975
    58   1 H    1.002 --    19 C    0.974
    59   1 H    1.008 --    20 C    0.965
    60   1 H    1.008 --    25 C    0.965
    61   1 H    1.002 --    26 C    0.974
    62   1 H    1.007 --    32 C    0.975
    63   1 H    1.004 --    32 C    0.986
    64   1 H    1.009 --    32 C    0.973
    65   1 H    0.999 --    33 C    0.971
    66   1 H    1.005 --    35 C    0.978
    67   1 H    1.004 --    35 C    0.986
    68   1 H    1.006 --    35 C    0.974
    69   1 H    1.000 --    36 C    0.970
    70   1 H    1.009 --    38 C    0.973
    71   1 H    1.007 --    38 C    0.975
    72   1 H    1.004 --    38 C    0.986
    73   1 H    1.002 --    40 C    0.974
    74   1 H    0.998 --    41 C    0.976
    75  29 Cu   2.190 --    81 N    0.506   117 N    0.506   102 N    0.504
                            95 N    0.504
    76   6 C    3.928 --    77 C    1.361   116 C    1.361   118 H    0.972
    77   6 C    3.919 --    76 C    1.361    81 N    1.231    78 C    1.170
    78   6 C    3.955 --    79 C    1.656    77 C    1.170   119 H    0.976
    79   6 C    3.958 --    78 C    1.656    80 C    1.171   120 H    0.974
    80   6 C    3.913 --    82 C    1.326    81 N    1.235    79 C    1.171
    81   7 N    3.243 --    80 C    1.235    77 C    1.231    75 Cu   0.506
    82   6 C    3.934 --    92 C    1.331    80 C    1.326    83 C    1.004
    83   6 C    3.987 --    84 C    1.381    90 C    1.381    82 C    1.004
                            87 C    0.104
    84   6 C    3.985 --    86 C    1.420    83 C    1.381    85 C    1.020
                            89 C    0.103
    85   6 C    3.996 --    84 C    1.020   123 H    0.986   122 H    0.975
                           121 H    0.973
    86   6 C    3.993 --    84 C    1.420    87 C    1.414   124 H    0.970
                            90 C    0.103
    87   6 C    3.988 --    86 C    1.414    89 C    1.414    88 C    1.020
                            83 C    0.104
    88   6 C    3.996 --    87 C    1.020   127 H    0.983   125 H    0.983
                           126 H    0.971
    89   6 C    3.993 --    90 C    1.421    87 C    1.414   128 H    0.970
                            84 C    0.103
    90   6 C    3.985 --    89 C    1.421    83 C    1.381    91 C    1.020
                            86 C    0.103
    91   6 C    3.996 --    90 C    1.020   130 H    0.986   131 H    0.975
                           129 H    0.973
    92   6 C    3.909 --    82 C    1.331    95 N    1.219    93 C    1.179
    93   6 C    3.955 --    94 C    1.641    92 C    1.179   132 H    0.974
    94   6 C    3.957 --    93 C    1.641    96 C    1.188   133 H    0.965
    95   7 N    3.247 --    96 C    1.256    92 C    1.219    75 Cu   0.504
    96   6 C    3.903 --    97 C    1.263    95 N    1.256    94 C    1.188
    97   6 C    3.940 --    96 C    1.263    98 C    1.262   150 C    1.178
    98   6 C    3.903 --    97 C    1.262   102 N    1.256    99 C    1.188
    99   6 C    3.957 --   100 C    1.641    98 C    1.188   134 H    0.965
   100   6 C    3.955 --    99 C    1.641   101 C    1.179   135 H    0.974
   101   6 C    3.909 --   103 C    1.331   102 N    1.219   100 C    1.179
   102   7 N    3.247 --    98 C    1.256   101 C    1.219    75 Cu   0.504
   103   6 C    3.934 --   101 C    1.331   113 C    1.326   104 C    1.004
   104   6 C    3.987 --   111 C    1.385   105 C    1.377   103 C    1.004
                           108 C    0.104
   105   6 C    3.985 --   107 C    1.425   104 C    1.377   106 C    1.020
                           110 C    0.102
   106   6 C    3.996 --   105 C    1.020   137 H    0.986   136 H    0.975
                           138 H    0.973
   107   6 C    3.993 --   105 C    1.425   108 C    1.409   139 H    0.971
                           111 C    0.103
   108   6 C    3.988 --   110 C    1.419   107 C    1.409   109 C    1.020
                           104 C    0.104
   109   6 C    3.996 --   108 C    1.020   141 H    0.986   140 H    0.978
                           142 H    0.974
   110   6 C    3.993 --   108 C    1.419   111 C    1.416   143 H    0.970
                           105 C    0.102
   111   6 C    3.985 --   110 C    1.416   104 C    1.385   112 C    1.020
                           107 C    0.103
   112   6 C    3.996 --   111 C    1.020   146 H    0.986   145 H    0.975
                           144 H    0.973
   113   6 C    3.913 --   103 C    1.326   117 N    1.235   114 C    1.171
   114   6 C    3.958 --   115 C    1.656   113 C    1.171   147 H    0.974
   115   6 C    3.955 --   114 C    1.656   116 C    1.170   148 H    0.976
   116   6 C    3.919 --    76 C    1.361   117 N    1.231   115 C    1.170
   117   7 N    3.243 --   113 C    1.235   116 C    1.231    75 Cu   0.506
   118   1 H    1.002 --    76 C    0.972
   119   1 H    0.998 --    78 C    0.976
   120   1 H    1.002 --    79 C    0.974
   121   1 H    1.008 --    85 C    0.973
   122   1 H    1.007 --    85 C    0.975
   123   1 H    1.004 --    85 C    0.986
   124   1 H    1.000 --    86 C    0.970
   125   1 H    1.004 --    88 C    0.983
   126   1 H    1.006 --    88 C    0.971
   127   1 H    1.004 --    88 C    0.983
   128   1 H    1.000 --    89 C    0.970
   129   1 H    1.008 --    91 C    0.973
   130   1 H    1.004 --    91 C    0.986
   131   1 H    1.007 --    91 C    0.975
   132   1 H    1.002 --    93 C    0.974
   133   1 H    1.008 --    94 C    0.965
   134   1 H    1.008 --    99 C    0.965
   135   1 H    1.002 --   100 C    0.974
   136   1 H    1.007 --   106 C    0.975
   137   1 H    1.004 --   106 C    0.986
   138   1 H    1.009 --   106 C    0.973
   139   1 H    0.999 --   107 C    0.971
   140   1 H    1.005 --   109 C    0.978
   141   1 H    1.004 --   109 C    0.986
   142   1 H    1.006 --   109 C    0.974
   143   1 H    1.000 --   110 C    0.970
   144   1 H    1.009 --   112 C    0.973
   145   1 H    1.007 --   112 C    0.975
   146   1 H    1.004 --   112 C    0.986
   147   1 H    1.002 --   114 C    0.974
   148   1 H    0.998 --   115 C    0.976
   149   6 C    3.936 --   150 C    2.582    23 C    1.178
   150   6 C    3.936 --   149 C    2.582    97 C    1.178
 ---------------------------------------------------------------------------

           -------------------------------------------------
          | TOTAL ENERGY             -232.965017894510 Eh   |
          | GRADIENT NORM               0.000179385055 Eh/α |
          | HOMO-LUMO GAP               0.002522812605 eV   |
           -------------------------------------------------

 * finished run on 2022/07/30 at 07:50:31.677
