   * xtb version 6.5.1 (b24c23e) compiled by 'conda@728c89f4b128' on 2022-07-12
          program call               : xtb Zn_C2Py_C8_3.xyz --gfn 1 --opt -T 48

   ID    Z sym.   atoms
    1   30 Zn     1, 59, 133
    2    6 C      2-6, 8-13, 15-19, 21-26, 28-33, 35-40, 60-64, 66-71, 73-77,
                  79-84, 86-91, 93-98, 117-132, 134-138, 140-145, 147-151,
                  153-158, 160-165, 167-172
    3    7 N      7, 14, 20, 27, 34, 41, 65, 72, 78, 85, 92, 99, 139, 146,
                  152, 159, 166, 173
    4    1 H      42-58, 100-116, 174-189

          :  Hamiltonian                  GFN1-xTB          :
 * total energy  :  -334.4098954 Eh     change       -0.3284867E-08 Eh
 * total energy  :  -334.8117057 Eh     change       -0.4018103E+00 Eh
 * total energy  :  -334.9844454 Eh     change       -0.1727397E+00 Eh
 * total energy  :  -335.0919625 Eh     change       -0.1075171E+00 Eh
 * total energy  :  -335.1847719 Eh     change       -0.9280939E-01 Eh
 * total energy  :  -335.2499567 Eh     change       -0.6518480E-01 Eh
 * total energy  :  -335.2893431 Eh     change       -0.3938648E-01 Eh
 * total energy  :  -335.3191653 Eh     change       -0.2982211E-01 Eh
 * total energy  :  -335.3398189 Eh     change       -0.2065368E-01 Eh
 * total energy  :  -335.3529409 Eh     change       -0.1312199E-01 Eh
 * total energy  :  -335.3909173 Eh     change       -0.5942757E-05 Eh
 * total energy  :  -335.3909066 Eh     change        0.1069069E-04 Eh
 * total energy  :  -335.3909236 Eh     change       -0.1695757E-04 Eh
 * total energy  :  -335.3908936 Eh     change        0.3000661E-04 Eh
 * total energy  :  -335.3909323 Eh     change       -0.3872484E-04 Eh
 * total energy  :  -335.3909262 Eh     change        0.6070093E-05 Eh
 * total energy  :  -335.3909068 Eh     change        0.1940398E-04 Eh
 * total energy  :  -335.3909421 Eh     change       -0.3524620E-04 Eh
 * total energy  :  -335.3909458 Eh     change       -0.3765545E-05 Eh
   *** GEOMETRY OPTIMIZATION CONVERGED AFTER 102 ITERATIONS ***

 final structure:
================
189
 xtb: 6.5.1 (b24c23e)
Zn          27.14126499700158       -0.14448541733215       -0.11506114691541
C           23.72122829969078       -0.10002459144932       -0.09279378762125
C           24.35723417687058        0.77187610601021        0.78232784914541
C           23.69464162361008        1.67511899208514        1.68100348345025
C           24.66342949335391        2.34510873538678        2.35567247500555
C           25.92536346099683        1.85658315534458        1.87466606508801
N           25.71070954837436        0.90767585795068        0.92607601569201
C           27.18644037837350        2.29657868591647        2.31943498403670
C           27.20179672563636        3.29964036746250        3.31394098572558
C           27.20705318863510        4.16370338790030        4.16621579213427
C           27.20975966817219        5.17143022805103        5.15724065017749
C           28.40673927159293        5.69511147751307        5.66007155290737
C           28.35246534510968        6.68193213797370        6.62808053042383
N           27.21081816340640        7.16492025018103        7.11211356978906
C           26.06853826061655        6.67207557517156        6.63957632992771
C           26.01330464438275        5.68498254015208        5.67204709306474
C           28.42933268496581        1.82649744805204        1.85888384374875
C           29.70444667677456        2.28625931618034        2.32625709799085
C           30.65156529444698        1.59330295241222        1.64186335774921
N           28.61651570371945        0.86902524604811        0.90517903622464
C           29.96048662095132        0.70670082999872        0.75242052105141
C           30.58566869302363       -0.18890851918873       -0.13795342341500
C           29.92578671725026       -1.06742419731805       -1.02049665419603
C           30.58187460615711       -1.97213598620968       -1.91819894039483
C           29.60820353062794       -2.64210164179440       -2.58803768258756
C           28.35173314660791       -2.14985490696229       -2.10365232028827
N           28.57619883873519       -1.19557348539390       -1.15479528625741
C           27.09115141374862       -2.59084406604814       -2.54433784549356
C           27.06712887828688       -3.60095888063063       -3.53150700411482
C           27.03814344672574       -4.47364265919056       -4.37446889993675
C           26.99962038874741       -5.49370660977063       -5.35203913314558
C           28.17485145929303       -6.04356749988589       -5.87768132716913
C           28.08013357922612       -7.04274557693674       -6.82977068069583
N           26.91894321542647       -7.51405389787792       -7.27745919460843
C           25.79711214642981       -6.99624022448972       -6.78314076428902
C           25.78236463763881       -5.99484272547660       -5.82894157745921
C           25.84791081677353       -2.11704946815572       -2.08434831888446
C           24.56754326617444       -2.57382314187180       -2.54744696962013
C           23.62541616187557       -1.87655572817617       -1.86274070857890
C           24.32297005876244       -0.98880175213119       -0.97515343135725
N           25.67045561399728       -1.16015976711962       -1.13607617603565
H           22.63562688549593       -0.08591807986791       -0.08582891985023
H           22.62465131836469        1.77498932231850        1.77499190113426
H           24.54511189066737        3.10371794359920        3.11324556663805
H           29.35911434911539        5.33097197994869        5.29401697098286
H           29.26582970224534        7.10609542625104        7.03531818659047
H           25.15561004582934        7.08819745772947        7.05603078850460
H           25.06053575748460        5.31247880632210        5.31541465963391
H           29.84823221317413        3.04237994931656        3.08170923338752
H           31.72393345735677        1.67006609135136        1.72582765097264
H           31.65064910355036       -2.07586363435051       -2.01745058884710
H           29.72240983924389       -3.40252876900460       -3.34421293576905
H           29.14195323558115       -5.68985273229341       -5.54121603875543
H           28.97591444441233       -7.48725313020363       -7.25401187248001
H           24.86731976130517       -7.40350254945207       -7.16998949265956
H           24.84507720995980       -5.60215289571871       -5.45344325605806
H           24.41969742062649       -3.33123315921357       -3.30102044690107
H           22.55206021738566       -1.94855101478499       -1.94275528180146
Zn          64.40883020913343       -0.20673660762189       -0.12987751460464
C           67.82858356118547       -0.24587310792468       -0.15983857605189
C           67.19366587310525       -1.44470708480203       -0.46034477973594
C           67.85719670764767       -2.67812987437625       -0.77812464725003
C           66.88909925264913       -3.60152988489097       -1.00786635509822
C           65.62677603213683       -2.93976684305675       -0.83196716987547
N           65.84038638415593       -1.63913464876624       -0.50169138809702
C           64.36615997017442       -3.54826542379822       -0.98037604177878
C           64.34974965855169       -4.91545721049473       -1.33519734522216
C           64.33890848130027       -6.08893862678540       -1.64472583865397
C           64.32832461062694       -7.45473459193962       -2.00823299885473
C           63.12677338710059       -8.14951442723172       -2.19125842806416
C           63.17237050405326       -9.48492724044081       -2.54946928014902
N           64.30977082477726      -10.15147018472047       -2.73113648509541
C           65.45630444793638       -9.49826663772645       -2.55871724519361
C           65.52021529990422       -8.16352213792322       -2.20100682138070
C           63.12313160180582       -2.91314244632952       -0.80949055398524
C           61.84846224000108       -3.55112037679348       -0.96338973666531
C           60.90092511962361       -2.60889362702711       -0.71876538626557
N           62.93530644226734       -1.60361008764502       -0.47577556604062
C           61.59137995596920       -1.39010334993243       -0.41433730232173
C           60.96475899289506       -0.16623179100755       -0.10435073430162
C           61.62297462872835        1.04215867959242        0.19860736496792
C           60.96585086216295        2.27603314204430        0.51536751591335
C           61.93888711153164        3.19548082237440        0.74674087955425
C           63.19594777626506        2.52829159509405        0.57196782255799
N           62.97245433553119        1.22405417872855        0.23997258199435
C           64.45630464814380        3.13413025232156        0.72157504280070
C           64.47919444649281        4.50137608345271        1.07586306983178
C           64.50585665535205        5.67506150429795        1.38370715342973
C           64.54043946856974        7.04115040437957        1.74462824954489
C           63.36292270378968        7.77085617198769        1.94666927561476
C           63.45344459077133        9.10497810605005        2.30123296135272
N           64.61263533600146        9.73848501596020        2.46204017786875
C           65.73661381622063        9.05195486636838        2.27140786100617
C           65.75556488148844        7.71536212000454        1.91547752983442
C           65.69990344422108        2.49679105208143        0.55098841413420
C           66.97990418552538        3.12976127777265        0.70398902510649
C           67.92262851336125        2.18479640144375        0.45712806822970
C           67.22589720875264        0.96670858398827        0.15168584970069
N           65.87824926162239        1.19169940838880        0.21726305147668
H           68.91419065156458       -0.25788768695471       -0.16954803065273
H           68.92726661600796       -2.80881665329881       -0.81748787788881
H           67.00794088439059       -4.64028683104587       -1.27296741730600
H           62.17763840851796       -7.64560327403145       -2.05398169582577
H           62.25534765193472      -10.04786883212028       -2.69834238940406
H           66.36554543152880      -10.07179765238385       -2.71479727851639
H           66.47617778668226       -7.67055678967524       -2.07135075414358
H           61.70498871041075       -4.58749617819924       -1.22494749976114
H           59.82870584325190       -2.72157200152177       -0.74081580113520
H           59.89687524977261        2.41295454389647        0.55412416260127
H           61.82393524778220        4.23443204908407        1.01221216339755
H           62.39733119293525        7.29458182105304        1.82663545142641
H           62.55582129873800        9.69458024433630        2.46444319465440
H           66.66466660644322        9.59905248385537        2.41079356170316
H           66.69446021482700        7.19461705848858        1.77053540926498
H           67.12711593135188        4.16552273615304        0.96652846970792
H           68.99591744267745        2.29125920937279        0.47711955225107
C           31.99163033354727       -0.21038115788182       -0.14590765398147
C           33.21577280828017       -0.23502053686541       -0.15617383783490
C           34.55880568191559       -0.26262259705119       -0.16959198312673
C           35.78878006328947       -0.29751078104565       -0.18046041797277
C           37.12672575714691       -0.33253921599248       -0.20231687679804
C           38.35648084573444       -0.36788734636144       -0.22855175011605
C           39.69880842292512       -0.41069292454570       -0.25292359207642
C           40.92263064507229       -0.44670319189470       -0.27607929945519
C           50.62914090322846       -0.37588121958960       -0.24180263293397
C           51.85229540877235       -0.32774888317169       -0.20740854240472
C           53.19407420378955       -0.27848636870624       -0.17740140470849
C           54.42359047803348       -0.23600553560968       -0.15044329302766
C           55.76134163431946       -0.20014003930783       -0.12995194158527
C           56.99149552263699       -0.17319616416218       -0.11666207450376
C           58.33449996922093       -0.15944362705114       -0.10584846536792
C           59.55889903327000       -0.15513426532254       -0.09796560602489
Zn          45.77692079083725       -0.50106959095173       -0.32305342886669
C           42.32775411442626       -0.47656284643339       -0.29973880330520
C           42.96956064735364        0.23063462981177       -1.33622311797275
C           42.29514267767272        0.94529872810796       -2.37924366601019
C           43.25509042041521        1.46846553402850       -3.18618866516680
C           44.52053773958234        1.08263602188598       -2.63510708504437
N           44.31632541577432        0.33222202396234       -1.51457073569214
C           45.77273959821657        1.43769908021334       -3.16805880376103
C           45.77435629561483        2.19035056198991       -4.36381679319639
C           45.78394145403502        2.81312398190029       -5.40542436010537
C           45.80041116264914        3.52775308068876       -6.62486769671393
C           47.00613278823550        3.92443072304407       -7.21556378145430
C           46.97060229709692        4.61242509414612       -8.41518486750156
N           45.83903963753878        4.92013607751117       -9.04422858138061
C           44.68861242300486        4.54756555063820       -8.48871808033239
C           44.61469902107120        3.85706977771842       -7.29221890662228
C           47.02602459764227        1.10804633250236       -2.62097593025064
C           48.28943378280245        1.51942001050233       -3.15822892613570
C           49.25106001560330        1.01083697363442       -2.34404909200018
N           47.23317402891860        0.35802381896848       -1.50084234936039
C           48.57986698910067        0.27965496175250       -1.31059983048453
C           49.22496068287421       -0.42517750300390       -0.27474171603261
C           48.58366368791688       -1.18685861324193        0.72253926106509
C           49.25854309698988       -1.93498605974650        1.74135281498756
C           48.29946927198649       -2.54296479154285        2.48755467679916
C           47.03400557968887       -2.16228816946330        1.93281996920372
N           47.23742981214593       -1.34049486577296        0.86348288885697
C           45.78227605270147       -2.56975100796306        2.42857829599843
C           45.78756479317428       -3.45937232343081        3.52623246679438
C           45.79989954781231       -4.24448557741047        4.45160951270559
C           45.81926604886765       -5.16879626235370        5.52084467460361
C           44.63378709930063       -5.65904533416440        6.08116356512169
C           44.70985727761072       -6.57070574847273        7.11894221713837
N           45.86221596789425       -7.01084810753774        7.61810285005339
C           46.99367823091707       -6.54878275555359        7.09164013907267
C           47.02712553439844       -5.63597269341493        6.05274367628013
C           44.52837494079198       -2.17537543686467        1.92824762353392
C           43.26484874128675       -2.56783175982786        2.47903202945281
C           42.30235442321217       -1.97376219705916        1.72599651811626
C           42.97327187427757       -1.22234361380694        0.70686363899854
N           44.32053168682030       -1.35957419144525        0.85505627034038
H           41.22448993084722        1.02830425817336       -2.47750859111858
H           43.12544246913291        2.06671206422291       -4.07406731375379
H           47.95067197589794        3.69310608127508       -6.73806525793735
H           47.89110500904288        4.93086427079759       -8.89612089128927
H           43.78457810469185        4.81473135496368       -9.02845816298181
H           43.65591027935496        3.57224130264003       -6.87603265578592
H           48.41691045171192        2.12312683471664       -4.04269684099323
H           50.32092494296513        1.11353896071539       -2.43169489327004
H           50.32890363752541       -1.98704622187449        1.86156471354759
H           48.42996715853784       -3.18912319931511        3.34104610448075
H           43.67343532493376       -5.32846154549138        5.70429323888271
H           43.80593521259406       -6.96835970876803        7.57143709641084
H           47.91571767159122       -6.92860109211770        7.52239330810888
H           47.97159679548493       -5.28677243829364        5.65312512466377
H           43.13817724231719       -3.21185957516334        3.33472806108329
H           41.23210353930765       -2.03751226775754        1.84156645333255

          :  Hamiltonian                  GFN1-xTB          :
         :: total energy            -335.390945818898 Eh    ::
         :: gradient norm              0.000793560103 Eh/a0 ::
         :: HOMO-LUMO gap              1.086138785965 eV    ::
         :: SCC energy              -341.446887955804 Eh    ::
         :: repulsion energy           6.212113102944 Eh    ::

    * Orbital Energies and Occupations

         #    Occupation            Energy/Eh            Energy/eV
      -------------------------------------------------------------
         1        2.0000           -0.7697156             -20.9450
       ...           ...                  ...                  ...
       297        2.0000           -0.4188439             -11.3973
       298        2.0000           -0.4188401             -11.3972
       299        2.0000           -0.4188371             -11.3971
       300        2.0000           -0.4185597             -11.3896
       301        2.0000           -0.4151412             -11.2966
       302        2.0000           -0.4147824             -11.2868
       303        2.0000           -0.4115569             -11.1990
       304        2.0000           -0.4026451             -10.9565
       305        2.0000           -0.4013254             -10.9206
       306        2.0000           -0.4013164             -10.9204
       307        2.0000           -0.3881556             -10.5623
       308        2.0000           -0.3873242             -10.5396
       309        2.0000           -0.3851663             -10.4809 (HOMO)
       310                         -0.3452515              -9.3948 (LUMO)
       311                         -0.3435218              -9.3477
       312                         -0.3425456              -9.3211
       313                         -0.3425372              -9.3209
       314                         -0.3399005              -9.2492
       315                         -0.3392248              -9.2308
       316                         -0.3224244              -8.7736
       317                         -0.3149507              -8.5702
       318                         -0.3148410              -8.5673
       319                         -0.2973158              -8.0904
       320                         -0.2957392              -8.0475
       ...                                ...                  ...
       656                          1.6009521              43.5641
      -------------------------------------------------------------
                  HL-Gap            0.0399149 Eh            1.0861 eV

Wiberg/Mayer (AO) data.
largest (>0.10) Wiberg bond orders for each atom

     #   Z sym  total        # sym  WBO       # sym  WBO       # sym  WBO
 ---------------------------------------------------------------------------
     1  30 Zn   1.991 --    41 N    0.457     7 N    0.457    20 N    0.454
                            27 N    0.454
     2   6 C    3.928 --     3 C    1.360    40 C    1.360    42 H    0.971
     3   6 C    3.912 --     2 C    1.360     7 N    1.223     4 C    1.173
     4   6 C    3.960 --     5 C    1.654     3 C    1.173    43 H    0.976
     5   6 C    3.962 --     4 C    1.654     6 C    1.179    44 H    0.974
     6   6 C    3.909 --     7 N    1.265     8 C    1.263     5 C    1.179
     7   7 N    3.293 --     6 C    1.265     3 C    1.223     1 Zn   0.457
     8   6 C    3.931 --    17 C    1.273     6 C    1.263     9 C    1.162
     9   6 C    3.957 --    10 C    2.622     8 C    1.162
    10   6 C    3.932 --     9 C    2.622    11 C    1.143
    11   6 C    3.987 --    12 C    1.350    16 C    1.349    10 C    1.143
    12   6 C    3.973 --    13 C    1.458    11 C    1.350    45 H    0.974
                            15 C    0.103
    13   6 C    3.973 --    12 C    1.458    14 N    1.407    46 H    0.972
                            16 C    0.103
    14   7 N    2.993 --    13 C    1.407    15 C    1.406
    15   6 C    3.973 --    16 C    1.458    14 N    1.406    47 H    0.972
                            12 C    0.103
    16   6 C    3.973 --    15 C    1.458    11 C    1.349    48 H    0.974
                            13 C    0.103
    17   6 C    3.902 --     8 C    1.273    20 N    1.244    18 C    1.187
    18   6 C    3.959 --    19 C    1.641    17 C    1.187    49 H    0.974
    19   6 C    3.961 --    18 C    1.641    21 C    1.188    50 H    0.974
    20   7 N    3.294 --    21 C    1.252    17 C    1.244     1 Zn   0.454
    21   6 C    3.892 --    22 C    1.257    20 N    1.252    19 C    1.188
    22   6 C    3.937 --    21 C    1.257    23 C    1.257   117 C    1.188
    23   6 C    3.892 --    22 C    1.257    27 N    1.252    24 C    1.188
    24   6 C    3.961 --    25 C    1.641    23 C    1.188    51 H    0.974
    25   6 C    3.959 --    24 C    1.641    26 C    1.187    52 H    0.974
    26   6 C    3.902 --    28 C    1.273    27 N    1.244    25 C    1.187
    27   7 N    3.294 --    23 C    1.252    26 C    1.244     1 Zn   0.454
    28   6 C    3.931 --    26 C    1.273    37 C    1.263    29 C    1.162
    29   6 C    3.957 --    30 C    2.622    28 C    1.162
    30   6 C    3.932 --    29 C    2.622    31 C    1.143
    31   6 C    3.987 --    32 C    1.350    36 C    1.349    30 C    1.143
    32   6 C    3.973 --    33 C    1.458    31 C    1.350    53 H    0.974
                            35 C    0.103
    33   6 C    3.973 --    32 C    1.458    34 N    1.407    54 H    0.972
                            36 C    0.103
    34   7 N    2.993 --    33 C    1.407    35 C    1.406
    35   6 C    3.973 --    36 C    1.458    34 N    1.406    55 H    0.972
                            32 C    0.103
    36   6 C    3.973 --    35 C    1.458    31 C    1.349    56 H    0.974
                            33 C    0.103
    37   6 C    3.909 --    41 N    1.265    28 C    1.263    38 C    1.179
    38   6 C    3.962 --    39 C    1.654    37 C    1.179    57 H    0.974
    39   6 C    3.960 --    38 C    1.654    40 C    1.173    58 H    0.976
    40   6 C    3.912 --     2 C    1.360    41 N    1.223    39 C    1.173
    41   7 N    3.293 --    37 C    1.265    40 C    1.223     1 Zn   0.457
    42   1 H    1.001 --     2 C    0.971
    43   1 H    0.998 --     4 C    0.976
    44   1 H    1.003 --     5 C    0.974
    45   1 H    1.002 --    12 C    0.974
    46   1 H    1.013 --    13 C    0.972
    47   1 H    1.013 --    15 C    0.972
    48   1 H    1.002 --    16 C    0.974
    49   1 H    1.003 --    18 C    0.974
    50   1 H    1.002 --    19 C    0.974
    51   1 H    1.002 --    24 C    0.974
    52   1 H    1.003 --    25 C    0.974
    53   1 H    1.002 --    32 C    0.974
    54   1 H    1.013 --    33 C    0.972
    55   1 H    1.013 --    35 C    0.972
    56   1 H    1.002 --    36 C    0.974
    57   1 H    1.003 --    38 C    0.974
    58   1 H    0.998 --    39 C    0.976
    59  30 Zn   1.990 --    99 N    0.457    65 N    0.457    78 N    0.454
                            85 N    0.454
    60   6 C    3.928 --    98 C    1.360    61 C    1.360   100 H    0.971
    61   6 C    3.912 --    60 C    1.360    65 N    1.223    62 C    1.173
    62   6 C    3.960 --    63 C    1.654    61 C    1.173   101 H    0.976
    63   6 C    3.962 --    62 C    1.654    64 C    1.179   102 H    0.974
    64   6 C    3.909 --    65 N    1.265    66 C    1.263    63 C    1.179
    65   7 N    3.293 --    64 C    1.265    61 C    1.223    59 Zn   0.457
    66   6 C    3.931 --    75 C    1.273    64 C    1.263    67 C    1.162
    67   6 C    3.957 --    68 C    2.622    66 C    1.162
    68   6 C    3.932 --    67 C    2.622    69 C    1.143
    69   6 C    3.987 --    70 C    1.350    74 C    1.349    68 C    1.143
    70   6 C    3.973 --    71 C    1.458    69 C    1.350   103 H    0.974
                            73 C    0.103
    71   6 C    3.973 --    70 C    1.458    72 N    1.406   104 H    0.972
                            74 C    0.103
    72   7 N    2.993 --    71 C    1.406    73 C    1.406
    73   6 C    3.973 --    74 C    1.458    72 N    1.406   105 H    0.972
                            70 C    0.103
    74   6 C    3.973 --    73 C    1.458    69 C    1.349   106 H    0.974
                            71 C    0.103
    75   6 C    3.902 --    66 C    1.273    78 N    1.243    76 C    1.187
    76   6 C    3.959 --    77 C    1.641    75 C    1.187   107 H    0.974
    77   6 C    3.961 --    76 C    1.641    79 C    1.188   108 H    0.974
    78   7 N    3.295 --    79 C    1.252    75 C    1.243    59 Zn   0.454
    79   6 C    3.892 --    80 C    1.256    78 N    1.252    77 C    1.188
    80   6 C    3.936 --    81 C    1.257    79 C    1.256   132 C    1.189
    81   6 C    3.892 --    80 C    1.257    85 N    1.252    82 C    1.188
    82   6 C    3.961 --    83 C    1.641    81 C    1.188   109 H    0.974
    83   6 C    3.959 --    82 C    1.641    84 C    1.187   110 H    0.974
    84   6 C    3.902 --    86 C    1.273    85 N    1.244    83 C    1.187
    85   7 N    3.294 --    81 C    1.252    84 C    1.244    59 Zn   0.454
    86   6 C    3.931 --    84 C    1.273    95 C    1.263    87 C    1.162
    87   6 C    3.957 --    88 C    2.622    86 C    1.162
    88   6 C    3.932 --    87 C    2.622    89 C    1.143
    89   6 C    3.987 --    90 C    1.350    94 C    1.349    88 C    1.143
    90   6 C    3.973 --    91 C    1.458    89 C    1.350   111 H    0.974
                            93 C    0.103
    91   6 C    3.973 --    90 C    1.458    92 N    1.407   112 H    0.972
                            94 C    0.103
    92   7 N    2.993 --    91 C    1.407    93 C    1.406
    93   6 C    3.973 --    94 C    1.458    92 N    1.406   113 H    0.972
                            90 C    0.103
    94   6 C    3.973 --    93 C    1.458    89 C    1.349   114 H    0.974
                            91 C    0.103
    95   6 C    3.909 --    99 N    1.265    86 C    1.263    96 C    1.179
    96   6 C    3.962 --    97 C    1.654    95 C    1.179   115 H    0.974
    97   6 C    3.960 --    96 C    1.654    98 C    1.173   116 H    0.976
    98   6 C    3.912 --    60 C    1.360    99 N    1.223    97 C    1.173
    99   7 N    3.293 --    95 C    1.265    98 C    1.223    59 Zn   0.457
   100   1 H    1.001 --    60 C    0.971
   101   1 H    0.998 --    62 C    0.976
   102   1 H    1.003 --    63 C    0.974
   103   1 H    1.002 --    70 C    0.974
   104   1 H    1.013 --    71 C    0.972
   105   1 H    1.013 --    73 C    0.972
   106   1 H    1.002 --    74 C    0.974
   107   1 H    1.003 --    76 C    0.974
   108   1 H    1.002 --    77 C    0.974
   109   1 H    1.002 --    82 C    0.974
   110   1 H    1.003 --    83 C    0.974
   111   1 H    1.002 --    90 C    0.974
   112   1 H    1.013 --    91 C    0.972
   113   1 H    1.013 --    93 C    0.972
   114   1 H    1.002 --    94 C    0.974
   115   1 H    1.003 --    96 C    0.974
   116   1 H    0.998 --    97 C    0.976
   117   6 C    3.876 --   118 C    2.443    22 C    1.188   120 C    0.186
   118   6 C    3.935 --   117 C    2.443   119 C    1.341
   119   6 C    3.892 --   120 C    2.340   118 C    1.341   122 C    0.182
   120   6 C    3.924 --   119 C    2.340   121 C    1.366   117 C    0.186
   121   6 C    3.923 --   122 C    2.339   120 C    1.366   124 C    0.186
   122   6 C    3.892 --   121 C    2.339   123 C    1.341   119 C    0.182
   123   6 C    3.932 --   124 C    2.441   122 C    1.341
   124   6 C    3.877 --   123 C    2.441   134 C    1.190   121 C    0.186
   125   6 C    3.877 --   126 C    2.440   154 C    1.191   128 C    0.186
   126   6 C    3.933 --   125 C    2.440   127 C    1.342
   127   6 C    3.892 --   128 C    2.338   126 C    1.342   130 C    0.182
   128   6 C    3.924 --   127 C    2.338   129 C    1.366   125 C    0.186
   129   6 C    3.924 --   130 C    2.339   128 C    1.366   132 C    0.186
   130   6 C    3.892 --   129 C    2.339   131 C    1.341   127 C    0.182
   131   6 C    3.935 --   132 C    2.442   130 C    1.341
   132   6 C    3.876 --   131 C    2.442    80 C    1.189   129 C    0.186
   133  30 Zn   1.988 --   173 N    0.454   159 N    0.454   152 N    0.454
                           139 N    0.454
   134   6 C    3.928 --   172 C    1.255   135 C    1.255   124 C    1.190
   135   6 C    3.892 --   134 C    1.255   139 N    1.252   136 C    1.190
   136   6 C    3.960 --   137 C    1.638   135 C    1.190   174 H    0.974
   137   6 C    3.960 --   136 C    1.638   138 C    1.189   175 H    0.974
   138   6 C    3.900 --   140 C    1.269   139 N    1.244   137 C    1.189
   139   7 N    3.291 --   135 C    1.252   138 C    1.244   133 Zn   0.454
   140   6 C    3.928 --   138 C    1.269   149 C    1.268   141 C    1.161
   141   6 C    3.957 --   142 C    2.623   140 C    1.161
   142   6 C    3.931 --   141 C    2.623   143 C    1.142
   143   6 C    3.987 --   148 C    1.350   144 C    1.350   142 C    1.142
   144   6 C    3.973 --   145 C    1.457   143 C    1.350   176 H    0.974
                           147 C    0.104
   145   6 C    3.973 --   144 C    1.457   146 N    1.407   177 H    0.972
                           148 C    0.103
   146   7 N    2.993 --   147 C    1.407   145 C    1.407
   147   6 C    3.973 --   148 C    1.457   146 N    1.407   178 H    0.972
                           144 C    0.104
   148   6 C    3.973 --   147 C    1.457   143 C    1.350   179 H    0.974
                           145 C    0.103
   149   6 C    3.900 --   140 C    1.268   152 N    1.244   150 C    1.189
   150   6 C    3.960 --   151 C    1.638   149 C    1.189   180 H    0.974
   151   6 C    3.960 --   150 C    1.638   153 C    1.190   181 H    0.974
   152   7 N    3.291 --   153 C    1.252   149 C    1.244   133 Zn   0.454
   153   6 C    3.892 --   154 C    1.255   152 N    1.252   151 C    1.190
   154   6 C    3.928 --   153 C    1.255   155 C    1.255   125 C    1.191
   155   6 C    3.892 --   154 C    1.255   159 N    1.252   156 C    1.190
   156   6 C    3.960 --   157 C    1.638   155 C    1.190   182 H    0.974
   157   6 C    3.960 --   156 C    1.638   158 C    1.189   183 H    0.974
   158   6 C    3.900 --   160 C    1.268   159 N    1.244   157 C    1.189
   159   7 N    3.291 --   155 C    1.252   158 C    1.244   133 Zn   0.454
   160   6 C    3.928 --   169 C    1.269   158 C    1.268   161 C    1.161
   161   6 C    3.957 --   162 C    2.623   160 C    1.161
   162   6 C    3.931 --   161 C    2.623   163 C    1.142
   163   6 C    3.987 --   164 C    1.350   168 C    1.349   162 C    1.142
   164   6 C    3.973 --   165 C    1.457   163 C    1.350   184 H    0.974
                           167 C    0.103
   165   6 C    3.973 --   164 C    1.457   166 N    1.407   185 H    0.972
                           168 C    0.104
   166   7 N    2.993 --   165 C    1.407   167 C    1.407
   167   6 C    3.973 --   168 C    1.458   166 N    1.407   186 H    0.972
                           164 C    0.103
   168   6 C    3.973 --   167 C    1.458   163 C    1.349   187 H    0.974
                           165 C    0.104
   169   6 C    3.900 --   160 C    1.269   173 N    1.244   170 C    1.189
   170   6 C    3.960 --   171 C    1.638   169 C    1.189   188 H    0.974
   171   6 C    3.960 --   170 C    1.638   172 C    1.190   189 H    0.974
   172   6 C    3.892 --   134 C    1.255   173 N    1.252   171 C    1.190
   173   7 N    3.291 --   172 C    1.252   169 C    1.244   133 Zn   0.454
   174   1 H    1.002 --   136 C    0.974
   175   1 H    1.003 --   137 C    0.974
   176   1 H    1.002 --   144 C    0.974
   177   1 H    1.013 --   145 C    0.972
   178   1 H    1.013 --   147 C    0.972
   179   1 H    1.002 --   148 C    0.974
   180   1 H    1.003 --   150 C    0.974
   181   1 H    1.002 --   151 C    0.974
   182   1 H    1.002 --   156 C    0.974
   183   1 H    1.003 --   157 C    0.974
   184   1 H    1.002 --   164 C    0.974
   185   1 H    1.013 --   165 C    0.972
   186   1 H    1.013 --   167 C    0.972
   187   1 H    1.002 --   168 C    0.974
   188   1 H    1.003 --   170 C    0.974
   189   1 H    1.002 --   171 C    0.974
 ---------------------------------------------------------------------------

           -------------------------------------------------
          | TOTAL ENERGY             -335.390945818898 Eh   |
          | GRADIENT NORM               0.000793560103 Eh/α |
          | HOMO-LUMO GAP               1.086138785965 eV   |
           -------------------------------------------------

 * finished run on 2022/07/30 at 11:09:55.783
