   * xtb version 6.5.1 (b24c23e) compiled by 'conda@728c89f4b128' on 2022-07-12
          program call               : xtb H_C8_4.xyz --gfn 1 --opt -T 48

   ID    Z sym.   atoms
    1    6 C      1-5, 7-10, 12-17, 19-23, 38-42, 44-47, 49-54, 56-60,
                  75-103, 105-108, 110-115, 117-121, 135-139, 141-144,
                  146-151, 153-157
    2    7 N      6, 11, 18, 24, 43, 48, 55, 61, 104, 109, 116, 122, 140,
                  145, 152, 158
    3    1 H      25-37, 62-74, 123-134, 159-170

          :  Hamiltonian                  GFN1-xTB          :
 * total energy  :  -295.1487356 Eh     change       -0.6654432E-08 Eh
 * total energy  :  -296.1409700 Eh     change       -0.9922344E+00 Eh
 * total energy  :  -296.4252704 Eh     change       -0.2843004E+00 Eh
 * total energy  :  -296.5544496 Eh     change       -0.1291792E+00 Eh
 * total energy  :  -296.6031414 Eh     change       -0.4869180E-01 Eh
 * total energy  :  -296.6263531 Eh     change       -0.2321176E-01 Eh
 * total energy  :  -296.6396189 Eh     change       -0.1326578E-01 Eh
 * total energy  :  -296.6479694 Eh     change       -0.8350429E-02 Eh
 * total energy  :  -296.6554155 Eh     change       -0.7446169E-02 Eh
 * total energy  :  -296.6636303 Eh     change       -0.8214784E-02 Eh
 * total energy  :  -297.1076169 Eh     change       -0.2154521E-04 Eh
 * total energy  :  -297.1076356 Eh     change       -0.1875530E-04 Eh
 * total energy  :  -297.1076523 Eh     change       -0.1667876E-04 Eh
 * total energy  :  -297.1076671 Eh     change       -0.1484152E-04 Eh
 * total energy  :  -297.1076806 Eh     change       -0.1348290E-04 Eh
 * total energy  :  -297.1076927 Eh     change       -0.1203965E-04 Eh
 * total energy  :  -297.1076981 Eh     change       -0.5483694E-05 Eh
 * total energy  :  -297.1077047 Eh     change       -0.6588220E-05 Eh
 * total energy  :  -297.1077090 Eh     change       -0.4224544E-05 Eh
   *** GEOMETRY OPTIMIZATION CONVERGED AFTER 96 ITERATIONS ***

 final structure:
================
170
 xtb: 6.5.1 (b24c23e)
C           12.64233566068759       -0.06034267921238       -0.00116563833079
C           13.26586246848933       -1.30009185546135       -0.06385998984253
C           12.65221822887800       -2.58408168468594       -0.12755756088070
C           13.64471346114748       -3.52224955654218       -0.17525734958591
C           14.89575755621490       -2.84131109170786       -0.14231363788228
N           14.61599324795370       -1.50718237374978       -0.07541538504230
C           16.16450192175991       -3.40868152250904       -0.17171547331629
C           17.38551250738589       -2.75060283571439       -0.14022571412879
C           18.66197542736720       -3.44242614181709       -0.17605004405334
C           19.61448682618573       -2.48814266287903       -0.12970022164471
N           17.58300876183712       -1.40562211130369       -0.07355422551056
C           18.91626081395256       -1.21672626514991       -0.06593536710477
C           19.57488935808275        0.02977488684756       -0.00500789655062
C           18.92474371327565        1.27721603743056        0.05767689763501
C           19.53238740161590        2.56028783089239        0.12109187313766
C           18.53574418687212        3.49559687621658        0.16960707003912
C           17.28911889210157        2.80998672826558        0.13718795021098
N           17.57689031435676        1.47334344873268        0.06953362707367
C           16.02199954648776        3.37868437379427        0.16779593206074
C           14.79956137648419        2.71880258903693        0.13616571365644
C           13.51655146606652        3.40401599132426        0.17212385174646
C           12.57040571720064        2.44478263471733        0.12480894075553
C           13.27620785508773        1.17495093734532        0.06015405005391
N           14.61513926805588        1.37965547421132        0.06895097336179
H           11.55750767937617       -0.06628623475850       -0.00038285540748
H           11.58701670194486       -2.75252138227853       -0.13509885961480
H           13.53412718178056       -4.59372683975413       -0.22874328024128
H           15.30950125881744       -0.76767230062763       -0.03903409321726
H           16.19426896704372       -4.49232415114544       -0.22562136900733
H           18.77923137442119       -4.51343401459255       -0.22944457937066
H           20.68680708626230       -2.60242166227168       -0.13669417302761
H           20.59672011443675        2.73265142006433        0.12803682233244
H           18.64248418150765        4.56730589436769        0.22326334400762
H           16.88592882004856        0.73107507473572        0.03350307243982
H           15.99397416970838        4.46225785016685        0.22245830656837
H           13.39303312856367        4.47446785552599        0.22617216869007
H           11.49681125214817        2.55140316553097        0.13132828364834
C           75.77468706908290        0.05210025213999        0.01026987448971
C           75.15243329321746        1.27371719459073       -0.21363299104260
C           75.76738586145908        2.53908296871638       -0.43711802383375
C           74.77589050251677        3.46322760420041       -0.61132604125868
C           73.52415381337259        2.79199305257607       -0.49940950292591
N           73.80254508886419        1.47745689299281       -0.26038863635000
C           72.25604873255169        3.35105186573109       -0.60824252137203
C           71.03430790303526        2.70293143124325       -0.49736722438039
C           69.75857759380847        3.38518002493615       -0.62518647523937
C           68.80504842957183        2.44549226785295       -0.45814940714708
N           70.83537456546908        1.37779675483749       -0.25905436266620
C           69.50190349583686        1.19231180802143       -0.23011627059399
C           68.84214785103045       -0.03588514570382       -0.01224023245061
C           69.49111442424780       -1.26618843840932        0.20656090036891
C           68.88213459478003       -2.53107965955891        0.42726501260784
C           69.87780434177567       -3.45375503956388        0.59382912871252
C           71.12511794306720       -2.77812969684200        0.48015022479935
N           70.83875241535461       -1.46013537346778        0.24591152119023
C           72.39159883205839       -3.33901523241395        0.58670163569868
C           73.61468636642401       -2.68826965692869        0.48018046529500
C           74.89694263634740       -3.36348844018769        0.60983775199949
C           75.84404684932120       -2.41743776370008        0.45003388022434
C           75.13958045812350       -1.16575058440606        0.22239116451972
N           73.80048462582722       -1.36794238612172        0.24767227428543
H           76.85948496925856        0.05830414783811        0.01772246551928
H           76.83273418413349        2.70532923446182       -0.45909796895951
H           74.88757743240843        4.51902878468744       -0.80096281641036
H           73.10833055009110        0.74856169527423       -0.13416891629204
H           72.22747548386772        4.41878661045935       -0.80110327867503
H           69.64246396044290        4.44048273070080       -0.81631319636620
H           67.73285583341921        2.55862755020488       -0.48225331924276
H           67.81763188586878       -2.70061344496456        0.45280537967210
H           69.76995973730398       -4.51045975603877        0.77977870518714
H           71.53037850842669       -0.72837019673507        0.11996771909553
H           72.41844853425461       -4.40740466089286        0.77572609863441
H           75.01933532961347       -4.41882279732713        0.79779806690868
H           76.91749832180273       -2.52221809087472        0.47731538300062
C           20.97895167326564        0.04053933171032       -0.00647689548373
C           22.20414424149574        0.04920813406429       -0.00881055797638
C           23.54674611662112        0.05467808895593       -0.01342936671423
C           24.77814322337705        0.05743667746829       -0.01236229483752
C           26.11598811453117        0.06183532877169       -0.01824059151424
C           27.34749848505692        0.06229584708906       -0.01817479109734
C           28.68989820459371        0.05884034014247       -0.01908321245128
C           29.91542974876237        0.05307913504078       -0.01925310111087
C           39.73958533237403       -0.00023374231851        0.01869820043088
C           40.96529087878221       -0.00336896466132        0.01644619872949
C           42.30773280884500       -0.00435990285094        0.01328701521814
C           43.53950300548152       -0.00457952072128        0.00872087029667
C           44.87730750561950       -0.00548316248459        0.00404285693082
C           46.10904687802018       -0.00608513133282       -0.00040956305293
C           47.45151460385848       -0.00657827588638       -0.00315364461779
C           48.67733887744122       -0.00909117197560       -0.00453022057324
C           58.50160683269217       -0.05631488164646        0.00210486699373
C           59.72712313954837       -0.06005995466746        0.00254838979918
C           61.06953658971018       -0.06342507401467       -0.00082410801190
C           62.30101419447836       -0.06649298476458       -0.00515226985291
C           63.63887528507176       -0.06362372599057       -0.00540316076769
C           64.87024529199408       -0.05662834155849       -0.00459740170804
C           66.21286035362748       -0.05242901811022       -0.01077608178537
C           67.43805434752721       -0.04626709229750       -0.01176423473731
C           31.31842343167772        0.05051857781506       -0.01434487426167
C           31.96733524199917        1.30103409323638       -0.02561299747279
C           31.36540836059104        2.58679124931620       -0.04309846582226
C           32.36777403406062        3.51867612473188       -0.04846971422505
C           33.61007314377812        2.82653375538471       -0.03447200160565
N           33.31629758226627        1.49063546250160       -0.02136855163082
C           34.87958203956998        3.39527352739154       -0.03342661394788
C           36.10884357639388        2.75393941280157       -0.02008204895116
C           37.37462602405091        3.46636487780781       -0.02081707875352
C           38.34226232955796        2.52611501730248       -0.00742063082176
N           36.32776805615280        1.41080443260743       -0.00590941128087
C           37.66407330294613        1.24318035626867        0.00172257781908
C           38.33653210025889        0.00254337645874        0.01642702856243
C           37.68706849828479       -1.24787031097048        0.02876968196172
C           38.28874876710595       -2.53381322648171        0.04664231517635
C           37.28629498682499       -3.46551603586144        0.05318156740117
C           36.04402338332825       -2.77327321279987        0.03912117720941
N           36.33809828902508       -1.43728757247014        0.02512243858138
C           34.77477645871305       -3.34225902125424        0.03837224673723
C           33.54528626950987       -2.70108811876059        0.02425999306261
C           32.27938576736938       -3.41328135454785        0.02468596279767
C           31.31195738086539       -2.47280601299690        0.00988167506959
C           31.99049360626977       -1.19009567869039        0.00066800338415
N           33.32685554452082       -1.35806979080266        0.00920186186656
H           30.30197488170992        2.76453669652107       -0.05057101385625
H           32.26595189640697        4.59213244145120       -0.06098393523014
H           33.99914136544481        0.73996303497707       -0.00955020125558
H           34.90010383718790        4.48073525232392       -0.04461213582737
H           37.47530441971177        4.54034973128328       -0.03039440201522
H           39.41271451033526        2.65704417688183       -0.00338777236825
H           39.35213046710391       -2.71171630717900        0.05378385108714
H           37.38780469047785       -4.53898727480360        0.06644616651387
H           35.65532594966529       -0.68654634629877        0.01292186121945
H           34.75435771439747       -4.42771163259261        0.05025512066631
H           32.17832184748833       -4.48721870557846        0.03503289915409
H           30.24146019741239       -2.60341209041600        0.00528424218358
C           50.08039149730843       -0.01063993130461       -0.00485034045995
C           50.72887774870553        1.24018512577635       -0.02432247106188
C           50.12634757580356        2.52569515392111       -0.04490747948584
C           51.12819235972641        3.45796112103167       -0.05956266020090
C           52.37095966800383        2.76652895678123       -0.04815304481196
N           52.07775269311342        1.43044830299955       -0.02686335218141
C           53.63985482493731        3.33622739036330       -0.05715864835559
C           54.86984252592185        2.69591065705189       -0.04643267965822
C           56.13524120373377        3.40893195932431       -0.05813407215081
C           57.10339618355910        2.46923057849689       -0.04227233313473
N           55.08929447592833        1.35319039330228       -0.02399128240260
C           56.42583142296663        1.18617133767741       -0.02091198544546
C           57.09857186729406       -0.05388907082327        0.00107514006074
C           56.45036958420586       -1.30468301639734        0.02286350225908
C           57.05328309858463       -2.58989469141170        0.04575900291423
C           56.05162752283434       -3.52243382905271        0.06033238569636
C           54.80880225078968       -2.83125486516931        0.04682818873734
N           55.10154907799129       -1.49525684356688        0.02461476859235
C           53.53969783679287       -3.40083368548131        0.05422347521228
C           52.31001265417304       -2.76032120963507        0.04169032451415
C           51.04469104374428       -3.47349290664580        0.05153319593970
C           50.07643230790452       -2.53394145852238        0.03519102572601
C           50.75379950865361       -1.25068783460040        0.01529429389996
N           52.09020859993197       -1.41743170570117        0.01956700902508
H           49.06283474023958        2.70298024531672       -0.04803373434443
H           51.02592864026865        4.53130708627224       -0.07671902928339
H           52.76103077064468        0.68016659270145       -0.01470294408325
H           53.65954213815385        4.42161526507309       -0.07489703608634
H           56.23547758472340        4.48284913641166       -0.07604197902651
H           58.17380521570832        2.60058924732503       -0.04425881294925
H           58.11685620821093       -2.76684967180116        0.05005775119449
H           56.15425628468766       -4.59572459727362        0.07873633986822
H           54.41824113611075       -0.74504246451145        0.01078984322982
H           53.51991927208726       -4.48621367354171        0.07218194896936
H           50.94475207019285       -4.54744945036946        0.06874165452751
H           49.00605240906981       -2.66550569696838        0.03589468088916

          :  Hamiltonian                  GFN1-xTB          :
         :: total energy            -297.107708955558 Eh    ::
         :: gradient norm              0.000931861345 Eh/a0 ::
         :: HOMO-LUMO gap              0.822075404290 eV    ::
         :: SCC energy              -302.546300283777 Eh    ::
         :: repulsion energy           5.570849273774 Eh    ::

    * Orbital Energies and Occupations

         #    Occupation            Energy/Eh            Energy/eV
      -------------------------------------------------------------
         1        2.0000           -0.8067212             -21.9520
       ...           ...                  ...                  ...
       261        2.0000           -0.4146530             -11.2833
       262        2.0000           -0.4111904             -11.1891
       263        2.0000           -0.4093820             -11.1399
       264        2.0000           -0.4088766             -11.1261
       265        2.0000           -0.4088271             -11.1248
       266        2.0000           -0.4018996             -10.9362
       267        2.0000           -0.4018680             -10.9354
       268        2.0000           -0.4002716             -10.8919
       269        2.0000           -0.4002533             -10.8914
       270        2.0000           -0.3913347             -10.6488
       271        2.0000           -0.3879038             -10.5554
       272        2.0000           -0.3829573             -10.4208
       273        2.0000           -0.3788574             -10.3092 (HOMO)
       274        0.0000           -0.3486467              -9.4872 (LUMO)
       275                         -0.3430404              -9.3346
       276                         -0.3367314              -9.1629
       277                         -0.3341855              -9.0937
       278                         -0.3331968              -9.0667
       279                         -0.3329440              -9.0599
       280                         -0.3320717              -9.0361
       281                         -0.3319641              -9.0332
       282                         -0.3131049              -8.5200
       283                         -0.3060444              -8.3279
       284                         -0.3026383              -8.2352
       ...                                ...                  ...
       580                          1.6012462              43.5721
      -------------------------------------------------------------
                  HL-Gap            0.0302107 Eh            0.8221 eV

Wiberg/Mayer (AO) data.
largest (>0.10) Wiberg bond orders for each atom

     #   Z sym  total        # sym  WBO       # sym  WBO       # sym  WBO
 ---------------------------------------------------------------------------
     1   6 C    3.930 --    23 C    1.364     2 C    1.349    25 H    0.972
     2   6 C    3.903 --     1 C    1.349     3 C    1.225     6 N    1.172
     3   6 C    3.954 --     4 C    1.602     2 C    1.225    26 H    0.977
     4   6 C    3.958 --     3 C    1.602     5 C    1.226    27 H    0.977
     5   6 C    3.897 --     7 C    1.342     4 C    1.226     6 N    1.175
     6   7 N    3.472 --     5 C    1.175     2 C    1.172    28 H    0.873
     7   6 C    3.945 --     8 C    1.380     5 C    1.342    29 H    0.971
     8   6 C    3.915 --     7 C    1.380    11 N    1.277     9 C    1.118
     9   6 C    3.965 --    10 C    1.717     8 C    1.118    30 H    0.976
    10   6 C    3.964 --     9 C    1.717    12 C    1.124    31 H    0.975
    11   7 N    3.026 --    12 C    1.354     8 C    1.277
    12   6 C    3.908 --    11 N    1.354    13 C    1.250    10 C    1.124
    13   6 C    3.942 --    14 C    1.252    12 C    1.250    75 C    1.196
    14   6 C    3.884 --    13 C    1.252    15 C    1.245    18 N    1.193
    15   6 C    3.959 --    16 C    1.590    14 C    1.245    32 H    0.975
    16   6 C    3.953 --    15 C    1.590    17 C    1.232    33 H    0.977
    17   6 C    3.899 --    19 C    1.351    16 C    1.232    18 N    1.161
    18   7 N    3.476 --    14 C    1.193    17 C    1.161    34 H    0.873
    19   6 C    3.929 --    20 C    1.363    17 C    1.351    35 H    0.971
    20   6 C    3.930 --    19 C    1.363    24 N    1.309    21 C    1.112
    21   6 C    3.967 --    22 C    1.730    20 C    1.112    36 H    0.976
    22   6 C    3.966 --    21 C    1.730    23 C    1.113    37 H    0.976
    23   6 C    3.929 --     1 C    1.364    24 N    1.307    22 C    1.113
    24   7 N    3.016 --    20 C    1.309    23 C    1.307
    25   1 H    1.001 --     1 C    0.972
    26   1 H    0.998 --     3 C    0.977
    27   1 H    0.998 --     4 C    0.977
    28   1 H    0.986 --     6 N    0.873
    29   1 H    1.002 --     7 C    0.971
    30   1 H    0.998 --     9 C    0.976
    31   1 H    1.002 --    10 C    0.975
    32   1 H    1.001 --    15 C    0.975
    33   1 H    0.998 --    16 C    0.977
    34   1 H    0.987 --    18 N    0.873
    35   1 H    1.002 --    19 C    0.971
    36   1 H    0.998 --    21 C    0.976
    37   1 H    0.998 --    22 C    0.976
    38   6 C    3.930 --    60 C    1.364    39 C    1.349    62 H    0.972
    39   6 C    3.903 --    38 C    1.349    40 C    1.225    43 N    1.172
    40   6 C    3.954 --    41 C    1.602    39 C    1.225    63 H    0.977
    41   6 C    3.958 --    40 C    1.602    42 C    1.226    64 H    0.977
    42   6 C    3.897 --    44 C    1.342    41 C    1.226    43 N    1.175
    43   7 N    3.472 --    42 C    1.175    39 C    1.172    65 H    0.873
    44   6 C    3.945 --    45 C    1.380    42 C    1.342    66 H    0.971
    45   6 C    3.915 --    44 C    1.380    48 N    1.277    46 C    1.118
    46   6 C    3.965 --    47 C    1.717    45 C    1.118    67 H    0.976
    47   6 C    3.964 --    46 C    1.717    49 C    1.124    68 H    0.975
    48   7 N    3.026 --    49 C    1.353    45 C    1.277
    49   6 C    3.908 --    48 N    1.353    50 C    1.250    47 C    1.124
    50   6 C    3.942 --    51 C    1.252    49 C    1.250    98 C    1.196
    51   6 C    3.884 --    50 C    1.252    52 C    1.245    55 N    1.193
    52   6 C    3.959 --    53 C    1.590    51 C    1.245    69 H    0.975
    53   6 C    3.953 --    52 C    1.590    54 C    1.232    70 H    0.977
    54   6 C    3.899 --    56 C    1.351    53 C    1.232    55 N    1.161
    55   7 N    3.476 --    51 C    1.193    54 C    1.161    71 H    0.873
    56   6 C    3.929 --    57 C    1.363    54 C    1.351    72 H    0.971
    57   6 C    3.930 --    56 C    1.363    61 N    1.309    58 C    1.112
    58   6 C    3.967 --    59 C    1.730    57 C    1.112    73 H    0.976
    59   6 C    3.966 --    58 C    1.730    60 C    1.113    74 H    0.976
    60   6 C    3.929 --    38 C    1.364    61 N    1.307    59 C    1.113
    61   7 N    3.016 --    57 C    1.309    60 C    1.307
    62   1 H    1.001 --    38 C    0.972
    63   1 H    0.998 --    40 C    0.977
    64   1 H    0.998 --    41 C    0.977
    65   1 H    0.986 --    43 N    0.873
    66   1 H    1.002 --    44 C    0.971
    67   1 H    0.998 --    46 C    0.976
    68   1 H    1.002 --    47 C    0.975
    69   1 H    1.001 --    52 C    0.975
    70   1 H    0.998 --    53 C    0.977
    71   1 H    0.987 --    55 N    0.873
    72   1 H    1.002 --    56 C    0.971
    73   1 H    0.998 --    58 C    0.976
    74   1 H    0.998 --    59 C    0.976
    75   6 C    3.877 --    76 C    2.435    13 C    1.196    78 C    0.186
    76   6 C    3.933 --    75 C    2.435    77 C    1.347
    77   6 C    3.891 --    78 C    2.332    76 C    1.347    80 C    0.182
    78   6 C    3.924 --    77 C    2.332    79 C    1.372    75 C    0.186
    79   6 C    3.922 --    80 C    2.330    78 C    1.372    82 C    0.186
    80   6 C    3.892 --    79 C    2.330    81 C    1.348    77 C    0.182
    81   6 C    3.929 --    82 C    2.432    80 C    1.348
    82   6 C    3.877 --    81 C    2.432    99 C    1.200    79 C    0.186
    83   6 C    3.876 --    84 C    2.431   111 C    1.201    86 C    0.185
    84   6 C    3.929 --    83 C    2.431    85 C    1.349
    85   6 C    3.891 --    86 C    2.329    84 C    1.349    88 C    0.181
    86   6 C    3.922 --    85 C    2.329    87 C    1.374    83 C    0.185
    87   6 C    3.922 --    88 C    2.329    86 C    1.374    90 C    0.185
    88   6 C    3.891 --    87 C    2.329    89 C    1.349    85 C    0.181
    89   6 C    3.929 --    90 C    2.431    88 C    1.349
    90   6 C    3.876 --    89 C    2.431   135 C    1.201    87 C    0.185
    91   6 C    3.877 --    92 C    2.432   147 C    1.200    94 C    0.185
    92   6 C    3.929 --    91 C    2.432    93 C    1.348
    93   6 C    3.892 --    94 C    2.331    92 C    1.348    96 C    0.182
    94   6 C    3.922 --    93 C    2.331    95 C    1.372    91 C    0.185
    95   6 C    3.924 --    96 C    2.332    94 C    1.372    98 C    0.186
    96   6 C    3.891 --    95 C    2.332    97 C    1.347    93 C    0.182
    97   6 C    3.933 --    98 C    2.435    96 C    1.347
    98   6 C    3.877 --    97 C    2.435    50 C    1.196    95 C    0.186
    99   6 C    3.928 --   121 C    1.249   100 C    1.247    82 C    1.200
   100   6 C    3.884 --   101 C    1.250    99 C    1.247   104 N    1.193
   101   6 C    3.956 --   102 C    1.583   100 C    1.250   123 H    0.975
   102   6 C    3.954 --   101 C    1.583   103 C    1.238   124 H    0.977
   103   6 C    3.894 --   105 C    1.338   102 C    1.238   104 N    1.164
   104   7 N    3.473 --   100 C    1.193   103 C    1.164   125 H    0.872
   105   6 C    3.932 --   106 C    1.382   103 C    1.338   126 H    0.970
   106   6 C    3.917 --   105 C    1.382   109 N    1.275   107 C    1.119
   107   6 C    3.965 --   108 C    1.717   106 C    1.119   127 H    0.976
   108   6 C    3.963 --   107 C    1.717   110 C    1.125   128 H    0.975
   109   7 N    3.014 --   110 C    1.354   106 C    1.275
   110   6 C    3.908 --   109 N    1.354   111 C    1.248   108 C    1.125
   111   6 C    3.928 --   110 C    1.248   112 C    1.247    83 C    1.201
   112   6 C    3.884 --   113 C    1.249   111 C    1.247   116 N    1.193
   113   6 C    3.956 --   114 C    1.583   112 C    1.249   129 H    0.975
   114   6 C    3.954 --   113 C    1.583   115 C    1.238   130 H    0.977
   115   6 C    3.894 --   117 C    1.339   114 C    1.238   116 N    1.163
   116   7 N    3.472 --   112 C    1.193   115 C    1.163   131 H    0.872
   117   6 C    3.932 --   118 C    1.381   115 C    1.339   132 H    0.970
   118   6 C    3.917 --   117 C    1.381   122 N    1.276   119 C    1.119
   119   6 C    3.965 --   120 C    1.716   118 C    1.119   133 H    0.976
   120   6 C    3.964 --   119 C    1.716   121 C    1.125   134 H    0.975
   121   6 C    3.908 --   122 N    1.353    99 C    1.249   120 C    1.125
   122   7 N    3.014 --   121 C    1.353   118 C    1.276
   123   1 H    1.001 --   101 C    0.975
   124   1 H    0.998 --   102 C    0.977
   125   1 H    0.986 --   104 N    0.872
   126   1 H    1.002 --   105 C    0.970
   127   1 H    0.998 --   107 C    0.976
   128   1 H    1.002 --   108 C    0.975
   129   1 H    1.001 --   113 C    0.975
   130   1 H    0.998 --   114 C    0.977
   131   1 H    0.986 --   116 N    0.872
   132   1 H    1.002 --   117 C    0.970
   133   1 H    0.998 --   119 C    0.976
   134   1 H    1.002 --   120 C    0.975
   135   6 C    3.928 --   157 C    1.248   136 C    1.247    90 C    1.201
   136   6 C    3.884 --   137 C    1.249   135 C    1.247   140 N    1.193
   137   6 C    3.956 --   138 C    1.583   136 C    1.249   159 H    0.975
   138   6 C    3.954 --   137 C    1.583   139 C    1.238   160 H    0.977
   139   6 C    3.894 --   141 C    1.339   138 C    1.238   140 N    1.163
   140   7 N    3.472 --   136 C    1.193   139 C    1.163   161 H    0.872
   141   6 C    3.932 --   142 C    1.381   139 C    1.339   162 H    0.970
   142   6 C    3.917 --   141 C    1.381   145 N    1.276   143 C    1.119
   143   6 C    3.965 --   144 C    1.716   142 C    1.119   163 H    0.976
   144   6 C    3.964 --   143 C    1.716   146 C    1.125   164 H    0.975
   145   7 N    3.014 --   146 C    1.353   142 C    1.276
   146   6 C    3.908 --   145 N    1.353   147 C    1.249   144 C    1.125
   147   6 C    3.928 --   146 C    1.249   148 C    1.247    91 C    1.200
   148   6 C    3.885 --   149 C    1.250   147 C    1.247   152 N    1.193
   149   6 C    3.956 --   150 C    1.583   148 C    1.250   165 H    0.975
   150   6 C    3.954 --   149 C    1.583   151 C    1.238   166 H    0.977
   151   6 C    3.894 --   153 C    1.338   150 C    1.238   152 N    1.164
   152   7 N    3.473 --   148 C    1.193   151 C    1.164   167 H    0.872
   153   6 C    3.932 --   154 C    1.382   151 C    1.338   168 H    0.970
   154   6 C    3.917 --   153 C    1.382   158 N    1.275   155 C    1.119
   155   6 C    3.965 --   156 C    1.717   154 C    1.119   169 H    0.976
   156   6 C    3.963 --   155 C    1.717   157 C    1.125   170 H    0.975
   157   6 C    3.908 --   158 N    1.354   135 C    1.248   156 C    1.125
   158   7 N    3.014 --   157 C    1.354   154 C    1.275
   159   1 H    1.001 --   137 C    0.975
   160   1 H    0.998 --   138 C    0.977
   161   1 H    0.986 --   140 N    0.872
   162   1 H    1.002 --   141 C    0.970
   163   1 H    0.998 --   143 C    0.976
   164   1 H    1.002 --   144 C    0.975
   165   1 H    1.001 --   149 C    0.975
   166   1 H    0.998 --   150 C    0.977
   167   1 H    0.986 --   152 N    0.872
   168   1 H    1.002 --   153 C    0.970
   169   1 H    0.998 --   155 C    0.976
   170   1 H    1.002 --   156 C    0.975
 ---------------------------------------------------------------------------

           -------------------------------------------------
          | TOTAL ENERGY             -297.107708955558 Eh   |
          | GRADIENT NORM               0.000931861345 Eh/α |
          | HOMO-LUMO GAP               0.822075404290 eV   |
           -------------------------------------------------

 * finished run on 2022/07/26 at 16:57:38.874
