   * xtb version 6.5.1 (b24c23e) compiled by 'conda@728c89f4b128' on 2022-07-12
          program call               : xtb Fe_Ph2OMe_C2_2.xyz --gfn 1 --opt -T 48

   ID    Z sym.   atoms
    1   26 Fe     1, 73
    2    6 C      2-6, 8-11, 13-21, 23-27, 29-33, 36, 37, 39-43, 45, 74-78,
                  80-83, 85-93, 95-99, 101-105, 108, 109, 111-115, 117, 145,
                  146
    3    7 N      7, 12, 34, 35, 79, 84, 106, 107
    4    8 O      22, 28, 38, 44, 94, 100, 110, 116
    5    1 H      46-72, 118-144
########################################################################
[WARNING] Please study the warnings concerning your input carefully
-1- prog_main_parseArguments: Unknown option '-T' provided
########################################################################

          :  Hamiltonian                  GFN1-xTB          :
 * total energy  :  -254.5271779 Eh     change       -0.5069126E-08 Eh
 * total energy  :  -254.6063798 Eh     change       -0.7920188E-01 Eh
 * total energy  :  -254.6533098 Eh     change       -0.4693001E-01 Eh
 * total energy  :  -254.6697689 Eh     change       -0.1645913E-01 Eh
 * total energy  :  -254.6793282 Eh     change       -0.9559241E-02 Eh
 * total energy  :  -254.6848806 Eh     change       -0.5552440E-02 Eh
 * total energy  :  -254.6882401 Eh     change       -0.3359465E-02 Eh
 * total energy  :  -254.6902399 Eh     change       -0.1999848E-02 Eh
 * total energy  :  -254.6914246 Eh     change       -0.1184679E-02 Eh
 * total energy  :  -254.6921317 Eh     change       -0.7070758E-03 Eh
 * total energy  :  -254.6936354 Eh     change       -0.9784173E-05 Eh
 * total energy  :  -254.6936686 Eh     change       -0.3317389E-04 Eh
 * total energy  :  -254.6936810 Eh     change       -0.1235085E-04 Eh
 * total energy  :  -254.6936928 Eh     change       -0.1180224E-04 Eh
 * total energy  :  -254.6937054 Eh     change       -0.1260177E-04 Eh
 * total energy  :  -254.6937172 Eh     change       -0.1182660E-04 Eh
 * total energy  :  -254.6937254 Eh     change       -0.8203924E-05 Eh
 * total energy  :  -254.6937304 Eh     change       -0.5022760E-05 Eh
 * total energy  :  -254.6937340 Eh     change       -0.3607332E-05 Eh
   *** GEOMETRY OPTIMIZATION CONVERGED AFTER 34 ITERATIONS ***

 final structure:
================
146
 xtb: 6.5.1 (b24c23e)
Fe          15.74686422434046        0.00365908912707        0.08771981080038
C           12.35156410875147        0.08131664587611        0.07007444869663
C           13.01010643155506        0.85060650394641        1.00773679996139
C           12.34252974301447        1.65438702772337        1.98778984324970
C           13.30731308585905        2.32293511781162        2.66287980107302
C           14.56129169363077        1.92659918185309        2.09214472054732
N           14.36741951046156        1.01237524484412        1.09241040980097
C           15.78401045259443        2.46620746747951        2.46473696726160
C           16.98891503699058        2.06919388952340        1.91042162353507
C           18.25400396942927        2.62905201124208        2.27947449583602
C           19.19937786766161        1.93332803784397        1.60339184097350
N           17.16104607853003        1.06021303576567        0.99255083561626
C           18.50999075422853        0.94958085030356        0.82757374573619
C           19.16390538843528       -0.01295605804826        0.04898180433879
C           18.47634572998509       -0.95533643352596       -0.72528899003149
C           19.13237855904260       -1.97242788862840       -1.48620908156513
C           18.16634172210695       -2.63301741993132       -2.16797323691988
C           16.92118336868873       -2.01768842255127       -1.81956637796984
C           15.70151175957528       -2.38422299233328       -2.36789617336196
C           15.68718738820479       -3.43316527532663       -3.42400981814401
C           16.23001269844927       -3.16754591071657       -4.68865381311130
O           16.73727185594420       -1.91997779227652       -4.86591321344410
C           17.32987797386881       -1.55380409122694       -6.09541701594614
C           16.21851050459448       -4.14755716509798       -5.68062286255168
C           15.67112086207226       -5.39075997083295       -5.40189186797780
C           15.13240727339319       -5.67773920712315       -4.15679386193940
C           15.13783880751933       -4.69616235450974       -3.16614648403016
O           14.64231117511996       -4.88399557912945       -1.91497067689649
C           14.09308819652420       -6.13130921988119       -1.54145405011274
C           14.49475714155878       -1.81935510136111       -1.97479147893309
C           13.22486068885249       -2.17128792980693       -2.54022664069795
C           12.28516635509971       -1.48151186465560       -1.85206727178997
C           12.98315615552356       -0.70306541209775       -0.87299916321972
N           14.33612864462364       -0.89259048082462       -0.98001761303194
N           17.12617598574292       -1.00683152448769       -0.91114667842535
C           15.80101449540233        3.52795291087340        3.51255068395667
C           15.93265750003359        3.18477573932578        4.86292539520485
O           16.03674154881421        1.85653524240280        5.12811316009001
C           16.18125447045374        1.40220001325833        6.45849136680076
C           15.95034932189465        4.17903573421534        5.84117896323264
C           15.83649510663154        5.50783630228537        5.46099614926488
C           15.70494798283745        5.86913569448030        4.12850776714638
C           15.68715586793958        4.87500417764701        3.15029816009318
O           15.56435790177613        5.12043751482427        1.81976640506459
C           15.45297296351398        6.44643850253147        1.34418557819053
H           11.26723221462735        0.09479954091714        0.07405109753273
H           11.27287261230214        1.69141169428505        2.12238380242853
H           13.19747791411755        3.02777739142567        3.47158884357799
H           18.38655784582405        3.44474927471825        2.97195543701515
H           20.26912491162302        2.06370942546730        1.61911773724689
H           20.19527652380257       -2.15084867124179       -1.48505332536266
H           18.27443438067311       -3.46461656666581       -2.84516850396130
H           16.60592220594210       -1.59412044733093       -6.91833126017318
H           17.67489117162746       -0.52570266695929       -5.97136378693263
H           18.18689273648805       -2.19492779009203       -6.33493547123481
H           16.63000368326467       -3.95070949322130       -6.66152663046288
H           15.66438921870157       -6.15363700584131       -6.17268039001195
H           14.71406203508982       -6.65711938808924       -3.96694808212807
H           13.78430105133910       -6.02725307874592       -0.49966308850373
H           13.21829729153781       -6.38475809178028       -2.15260878385928
H           14.83447038626247       -6.93582857736684       -1.61878700593738
H           13.08556461872244       -2.86429155436133       -3.35414083741061
H           11.21381442962585       -1.48780006441381       -1.97777120700847
H           16.24957913339204        0.31427400997210        6.40229256853255
H           15.31558973791035        1.67741938180251        7.07328173864647
H           17.09406665139345        1.79700823127088        6.92090565193973
H           16.05141473094576        3.92787112424820        6.88855623409895
H           15.85056208691555        6.28074126815111        6.22171463608537
H           15.61774900323848        6.91403650462536        3.86224854881293
H           16.33606147269334        7.04237406853077        1.60508975298315
H           15.37768620711038        6.37411357980303        0.25764691947376
H           14.55474768139376        6.93953928101024        1.73546341595347
Fe          26.60951953816434       -0.08631117118187       -0.01608224200439
C           30.00481934750859       -0.05782837398266       -0.09043714119209
C           29.34627603256741       -0.87670237878485       -0.98512224668887
C           30.01385144520535       -1.73263975087791       -1.91997002174290
C           29.04906750876962       -2.30591102102081       -2.67763882235538
C           27.79508970776062       -1.79725986051361       -2.20424990434828
N           27.98896321619797       -0.93753082181886       -1.15728298406579
C           26.57237121784222       -2.08941463117810       -2.79131741414874
C           25.36746765837231       -1.59711131042701       -2.31959189557331
C           24.10237863889154       -1.88288841019904       -2.92619923528224
C           23.15700500890370       -1.31249157586014       -2.14149050833309
N           25.19533691662423       -0.83187668344799       -1.19045724253785
C           23.84639251765586       -0.68428831133666       -1.05751054847562
C           23.19247898794297       -0.05032437286809        0.00586814633213
C           23.88003917980427        0.58222798375098        1.04867818796107
C           23.22400677461316        1.19095574432750        2.16354405513280
C           24.19004382783438        1.77197124254060        2.91427800806374
C           25.43520209513845        1.51450378393706        2.25569751298372
C           26.65487430639108        2.00520606880691        2.69640491207008
C           26.66919962433616        2.90160901116676        3.88473056435634
C           26.12637444186456        4.19116021117230        3.80144846922620
O           25.61911459762281        4.54384038997545        2.59171166525266
C           25.02650597632737        5.81289059658100        2.40390475047615
C           26.13787757788641        5.03385896785436        4.91243166266863
C           26.68526788894209        4.58135684144529        6.10343342099130
C           27.22398139404307        3.30811921769644        6.21063533023940
C           27.21854903082529        2.46695124851240        5.09829022223740
O           27.71407634128131        1.20178121535514        5.10648799466189
C           28.26330002528094        0.65486999494295        6.28809419917427
C           27.86162900648350        1.69632400267819        2.08142615833583
C           29.13152631874683        2.20603157221437        2.51010990117841
C           30.07122015449472        1.62282789909070        1.72957885562956
C           29.37322929028392        0.76426485987932        0.81995184878631
N           28.02025677667958        0.84328261162756        1.02275343680232
N           25.23020860703505        0.75888825418079        1.12605042481779
C           26.55536602392138       -2.97578020489298       -3.99113956938089
C           26.42372367681923       -4.36120992326613       -3.84326390377722
O           26.31964102676208       -4.81238576732730       -2.56616249385922
C           26.17512784419941       -6.19381161568983       -2.30541506925648
C           26.40603024374392       -5.18830821756589       -4.96640284927272
C           26.51988282702829       -4.62322381688953       -6.22772361731064
C           26.65142972104173       -3.25292493841684       -6.39607853551509
C           26.66922286497499       -2.42585175827380       -5.27307288473629
O           26.79202107985068       -1.07394848101100       -5.32701525496256
C           26.90340619900823       -0.41483210195832       -6.57201381692392
H           31.08915134976917       -0.05985276879669       -0.10434726169455
H           31.08350832457176       -1.86061290064844       -1.97573688361256
H           29.15890191492904       -3.00629452463221       -3.49021271897385
H           23.96982430725891       -2.45247354497255       -3.83199420029802
H           22.08725796077966       -1.30953609838713       -2.27278389387319
H           22.16110899383055        1.16446637814780        2.33999254601299
H           24.08195131058290        2.32417196953324        3.83363925403214
H           25.75046030188432        6.62173427293543        2.56070793268062
H           24.68149179405476        5.83613828203780        1.36860739712304
H           24.16949158074686        5.95890587825568        3.07255175249465
H           25.72638457665275        6.03277821091524        4.85691833628750
H           26.69200013022026        5.23596206176866        6.96806532588529
H           27.64232715232417        2.98107693456762        7.15311602937989
H           28.57208703070313       -0.36157517445247        6.03710533559452
H           29.13809113385667        1.22382447316099        6.62578766627625
H           27.52191829162240        0.61713577656059        7.09544084031096
H           29.27082335039921        2.91325354338682        3.31170032025050
H           31.14257236544557        1.74636137242593        1.75366089337239
H           26.10680396224242       -6.29272288679737       -1.22053813077236
H           27.04079210253835       -6.76327295598304       -2.66517542170973
H           25.26231515059248       -6.59545380403538       -2.76190509397634
H           26.30496487878682       -6.26074250108973       -4.86656555563644
H           26.50581478644702       -5.26643646711691       -7.10085141495429
H           26.73862765876253       -2.84093701741677       -7.39256125584122
H           26.02031745394150       -0.58843736879261       -7.19896755474148
H           26.97869386855955        0.65041472688525       -6.34607977557840
H           27.80163111902983       -0.73209802741035       -7.11569543807028
C           20.56897271352543       -0.03263005084437        0.04171081901335
C           21.78741166245305       -0.04592122905939        0.02637620767394

          :  Hamiltonian                  GFN1-xTB          :
         :: total energy            -254.693734033738 Eh    ::
         :: gradient norm              0.000280946558 Eh/a0 ::
         :: HOMO-LUMO gap              0.102319831746 eV    ::
         :: SCC energy              -258.151728423495 Eh    ::
         :: repulsion energy           3.588529087249 Eh    ::

    * Orbital Energies and Occupations

         #    Occupation            Energy/Eh            Energy/eV
      -------------------------------------------------------------
         1        2.0000           -0.8055539             -21.9202
       ...           ...                  ...                  ...
       215        2.0000           -0.4107820             -11.1779
       216        2.0000           -0.4102953             -11.1647
       217        2.0000           -0.4102946             -11.1647
       218        2.0000           -0.3831706             -10.4266
       219        2.0000           -0.3803198             -10.3490
       220        2.0000           -0.3803173             -10.3490
       221        1.9914           -0.3723761             -10.1329
       222        1.9908           -0.3723181             -10.1313
       223        1.9449           -0.3705917             -10.0843
       224        1.9446           -0.3705866             -10.0842
       225        1.9432           -0.3705622             -10.0835
       226        1.9410           -0.3705248             -10.0825
       227        1.7898           -0.3692413             -10.0476 (HOMO)
       228        0.2798           -0.3654811              -9.9452 (LUMO)
       229        0.1748           -0.3649778              -9.9316
       230                         -0.3223959              -8.7728
       231                         -0.3103602              -8.4453
       232                         -0.3103564              -8.4452
       233                         -0.3057511              -8.3199
       234                         -0.2848858              -7.7521
       235                         -0.2848099              -7.7501
       236                         -0.2799168              -7.6169
       237                         -0.2712674              -7.3816
       238                         -0.2541208              -6.9150
       ...                                ...                  ...
       486                          1.3488515              36.7041
      -------------------------------------------------------------
                  HL-Gap            0.0037602 Eh            0.1023 eV

Wiberg/Mayer (AO) data.
largest (>0.10) Wiberg bond orders for each atom

     #   Z sym  total        # sym  WBO       # sym  WBO       # sym  WBO
 ---------------------------------------------------------------------------
     1  26 Fe   3.192 --    34 N    0.674     7 N    0.668    12 N    0.668
                            35 N    0.664
     2   6 C    3.927 --    33 C    1.364     3 C    1.361    46 H    0.971
     3   6 C    3.927 --     2 C    1.361     7 N    1.213     4 C    1.173
     4   6 C    3.959 --     5 C    1.650     3 C    1.173    47 H    0.976
     5   6 C    3.962 --     4 C    1.650     6 C    1.176    48 H    0.974
     6   6 C    3.920 --     8 C    1.322     7 N    1.221     5 C    1.176
     7   7 N    3.381 --     6 C    1.221     3 C    1.213     1 Fe   0.668
     8   6 C    3.927 --     9 C    1.343     6 C    1.322    36 C    1.002
     9   6 C    3.917 --     8 C    1.343    12 N    1.197    10 C    1.179
    10   6 C    3.958 --    11 C    1.639     9 C    1.179    49 H    0.974
    11   6 C    3.961 --    10 C    1.639    13 C    1.187    50 H    0.970
    12   7 N    3.383 --    13 C    1.247     9 C    1.197     1 Fe   0.668
    13   6 C    3.911 --    14 C    1.254    12 N    1.247    11 C    1.187
    14   6 C    3.927 --    15 C    1.255    13 C    1.254   145 C    1.191
    15   6 C    3.911 --    14 C    1.255    35 N    1.245    16 C    1.188
    16   6 C    3.961 --    17 C    1.638    15 C    1.188    51 H    0.969
    17   6 C    3.958 --    16 C    1.638    18 C    1.180    52 H    0.974
    18   6 C    3.917 --    19 C    1.336    35 N    1.200    17 C    1.180
    19   6 C    3.928 --    18 C    1.336    30 C    1.318    20 C    1.016
    20   6 C    3.977 --    27 C    1.342    21 C    1.341    19 C    1.016
                            25 C    0.100
    21   6 C    3.903 --    24 C    1.362    20 C    1.341    22 O    1.033
    22   8 O    2.146 --    21 C    1.033    23 C    0.935
    23   6 C    3.907 --    54 H    0.983    55 H    0.980    53 H    0.980
                            22 O    0.935
    24   6 C    3.983 --    25 C    1.442    21 C    1.362    56 H    0.969
    25   6 C    3.992 --    26 C    1.442    24 C    1.442    57 H    0.974
                            20 C    0.100
    26   6 C    3.983 --    25 C    1.442    27 C    1.361    58 H    0.969
    27   6 C    3.903 --    26 C    1.361    20 C    1.342    28 O    1.032
    28   8 O    2.146 --    27 C    1.032    29 C    0.935
    29   6 C    3.907 --    59 H    0.983    60 H    0.980    61 H    0.980
                            28 O    0.935
    30   6 C    3.920 --    19 C    1.318    34 N    1.223    31 C    1.175
    31   6 C    3.962 --    32 C    1.651    30 C    1.175    62 H    0.974
    32   6 C    3.959 --    31 C    1.651    33 C    1.172    63 H    0.975
    33   6 C    3.927 --     2 C    1.364    34 N    1.211    32 C    1.172
    34   7 N    3.383 --    30 C    1.223    33 C    1.211     1 Fe   0.674
    35   7 N    3.382 --    15 C    1.245    18 C    1.200     1 Fe   0.664
    36   6 C    3.977 --    37 C    1.347    43 C    1.347     8 C    1.002
                            41 C    0.102
    37   6 C    3.905 --    40 C    1.359    36 C    1.347    38 O    1.033
    38   8 O    2.146 --    37 C    1.033    39 C    0.935
    39   6 C    3.908 --    64 H    0.983    65 H    0.980    66 H    0.980
                            38 O    0.935
    40   6 C    3.983 --    41 C    1.444    37 C    1.359    67 H    0.969
    41   6 C    3.995 --    40 C    1.444    42 C    1.443    68 H    0.974
                            36 C    0.102
    42   6 C    3.983 --    41 C    1.443    43 C    1.360    69 H    0.969
    43   6 C    3.905 --    42 C    1.360    36 C    1.347    44 O    1.033
    44   8 O    2.146 --    43 C    1.033    45 C    0.936
    45   6 C    3.908 --    71 H    0.983    70 H    0.980    72 H    0.980
                            44 O    0.936
    46   1 H    1.001 --     2 C    0.971
    47   1 H    0.998 --     4 C    0.976
    48   1 H    1.002 --     5 C    0.974
    49   1 H    1.002 --    10 C    0.974
    50   1 H    1.006 --    11 C    0.970
    51   1 H    1.006 --    16 C    0.969
    52   1 H    1.002 --    17 C    0.974
    53   1 H    1.009 --    23 C    0.980
    54   1 H    1.015 --    23 C    0.983
    55   1 H    1.009 --    23 C    0.980
    56   1 H    1.000 --    24 C    0.969
    57   1 H    1.003 --    25 C    0.974
    58   1 H    1.000 --    26 C    0.969
    59   1 H    1.015 --    29 C    0.983
    60   1 H    1.009 --    29 C    0.980
    61   1 H    1.009 --    29 C    0.980
    62   1 H    1.002 --    31 C    0.974
    63   1 H    0.998 --    32 C    0.975
    64   1 H    1.015 --    39 C    0.983
    65   1 H    1.009 --    39 C    0.980
    66   1 H    1.009 --    39 C    0.980
    67   1 H    1.000 --    40 C    0.969
    68   1 H    1.003 --    41 C    0.974
    69   1 H    1.000 --    42 C    0.969
    70   1 H    1.009 --    45 C    0.980
    71   1 H    1.015 --    45 C    0.983
    72   1 H    1.009 --    45 C    0.980
    73  26 Fe   3.192 --   106 N    0.674    79 N    0.668    84 N    0.668
                           107 N    0.664
    74   6 C    3.927 --   105 C    1.364    75 C    1.361   118 H    0.971
    75   6 C    3.927 --    74 C    1.361    79 N    1.213    76 C    1.173
    76   6 C    3.959 --    77 C    1.650    75 C    1.173   119 H    0.976
    77   6 C    3.962 --    76 C    1.650    78 C    1.176   120 H    0.974
    78   6 C    3.920 --    80 C    1.322    79 N    1.221    77 C    1.176
    79   7 N    3.381 --    78 C    1.221    75 C    1.213    73 Fe   0.668
    80   6 C    3.927 --    81 C    1.343    78 C    1.322   108 C    1.002
    81   6 C    3.917 --    80 C    1.343    84 N    1.197    82 C    1.179
    82   6 C    3.958 --    83 C    1.639    81 C    1.179   121 H    0.974
    83   6 C    3.961 --    82 C    1.639    85 C    1.187   122 H    0.970
    84   7 N    3.383 --    85 C    1.247    81 C    1.197    73 Fe   0.668
    85   6 C    3.911 --    86 C    1.254    84 N    1.247    83 C    1.187
    86   6 C    3.927 --    87 C    1.255    85 C    1.254   146 C    1.191
    87   6 C    3.911 --    86 C    1.255   107 N    1.245    88 C    1.188
    88   6 C    3.961 --    89 C    1.638    87 C    1.188   123 H    0.969
    89   6 C    3.958 --    88 C    1.638    90 C    1.180   124 H    0.974
    90   6 C    3.917 --    91 C    1.336   107 N    1.200    89 C    1.180
    91   6 C    3.928 --    90 C    1.336   102 C    1.318    92 C    1.016
    92   6 C    3.977 --    99 C    1.342    93 C    1.341    91 C    1.016
                            97 C    0.100
    93   6 C    3.903 --    96 C    1.362    92 C    1.341    94 O    1.033
    94   8 O    2.146 --    93 C    1.033    95 C    0.935
    95   6 C    3.907 --   126 H    0.983   127 H    0.980   125 H    0.980
                            94 O    0.935
    96   6 C    3.983 --    97 C    1.442    93 C    1.362   128 H    0.969
    97   6 C    3.992 --    98 C    1.442    96 C    1.442   129 H    0.974
                            92 C    0.100
    98   6 C    3.983 --    97 C    1.442    99 C    1.361   130 H    0.969
    99   6 C    3.903 --    98 C    1.361    92 C    1.342   100 O    1.032
   100   8 O    2.146 --    99 C    1.032   101 C    0.935
   101   6 C    3.907 --   131 H    0.983   132 H    0.980   133 H    0.980
                           100 O    0.935
   102   6 C    3.920 --    91 C    1.318   106 N    1.223   103 C    1.175
   103   6 C    3.962 --   104 C    1.651   102 C    1.175   134 H    0.974
   104   6 C    3.959 --   103 C    1.651   105 C    1.172   135 H    0.975
   105   6 C    3.927 --    74 C    1.364   106 N    1.211   104 C    1.172
   106   7 N    3.383 --   102 C    1.223   105 C    1.211    73 Fe   0.674
   107   7 N    3.382 --    87 C    1.245    90 C    1.200    73 Fe   0.664
   108   6 C    3.977 --   109 C    1.347   115 C    1.347    80 C    1.002
                           113 C    0.102
   109   6 C    3.905 --   112 C    1.359   108 C    1.347   110 O    1.033
   110   8 O    2.146 --   109 C    1.033   111 C    0.935
   111   6 C    3.908 --   136 H    0.983   137 H    0.980   138 H    0.980
                           110 O    0.935
   112   6 C    3.983 --   113 C    1.444   109 C    1.359   139 H    0.969
   113   6 C    3.995 --   112 C    1.444   114 C    1.443   140 H    0.974
                           108 C    0.102
   114   6 C    3.983 --   113 C    1.443   115 C    1.360   141 H    0.969
   115   6 C    3.905 --   114 C    1.360   108 C    1.347   116 O    1.033
   116   8 O    2.146 --   115 C    1.033   117 C    0.936
   117   6 C    3.908 --   143 H    0.983   142 H    0.980   144 H    0.980
                           116 O    0.936
   118   1 H    1.001 --    74 C    0.971
   119   1 H    0.998 --    76 C    0.976
   120   1 H    1.002 --    77 C    0.974
   121   1 H    1.002 --    82 C    0.974
   122   1 H    1.006 --    83 C    0.970
   123   1 H    1.006 --    88 C    0.969
   124   1 H    1.002 --    89 C    0.974
   125   1 H    1.009 --    95 C    0.980
   126   1 H    1.015 --    95 C    0.983
   127   1 H    1.009 --    95 C    0.980
   128   1 H    1.000 --    96 C    0.969
   129   1 H    1.003 --    97 C    0.974
   130   1 H    1.000 --    98 C    0.969
   131   1 H    1.015 --   101 C    0.983
   132   1 H    1.009 --   101 C    0.980
   133   1 H    1.009 --   101 C    0.980
   134   1 H    1.002 --   103 C    0.974
   135   1 H    0.998 --   104 C    0.975
   136   1 H    1.015 --   111 C    0.983
   137   1 H    1.009 --   111 C    0.980
   138   1 H    1.009 --   111 C    0.980
   139   1 H    1.000 --   112 C    0.969
   140   1 H    1.003 --   113 C    0.974
   141   1 H    1.000 --   114 C    0.969
   142   1 H    1.009 --   117 C    0.980
   143   1 H    1.015 --   117 C    0.983
   144   1 H    1.009 --   117 C    0.980
   145   6 C    3.925 --   146 C    2.553    14 C    1.191
   146   6 C    3.925 --   145 C    2.553    86 C    1.191
 ---------------------------------------------------------------------------

           -------------------------------------------------
          | TOTAL ENERGY             -254.693734033738 Eh   |
          | GRADIENT NORM               0.000280946558 Eh/α |
          | HOMO-LUMO GAP               0.102319831746 eV   |
           -------------------------------------------------

 * finished run on 2022/07/29 at 16:02:18.991
