   * xtb version 6.5.1 (b24c23e) compiled by 'conda@728c89f4b128' on 2022-07-12
          program call               : xtb Co_H_C4_3.xyz --gfn 1 --opt -T 48

   ID    Z sym.   atoms
    1   27 Co     1, 37, 81
    2    6 C      2-6, 8-11, 13-18, 20-24, 38-42, 44-47, 49-54, 56-60, 73-80,
                  82-86, 88-91, 93-98, 100-104
    3    7 N      7, 12, 19, 25, 43, 48, 55, 61, 87, 92, 99, 105
    4    1 H      26-36, 62-72, 106-115

          :  Hamiltonian                  GFN1-xTB          :
 * total energy  :  -207.3956947 Eh     change       -0.7200356E-09 Eh
 * total energy  :  -208.9382174 Eh     change       -0.1542523E+01 Eh
 * total energy  :  -209.1667179 Eh     change       -0.2285005E+00 Eh
 * total energy  :  -209.2890184 Eh     change       -0.1223005E+00 Eh
 * total energy  :  -209.3837915 Eh     change       -0.9477314E-01 Eh
 * total energy  :  -209.4651105 Eh     change       -0.8131897E-01 Eh
 * total energy  :  -209.5248805 Eh     change       -0.5977003E-01 Eh
 * total energy  :  -209.5538745 Eh     change       -0.2899396E-01 Eh
 * total energy  :  -209.5722024 Eh     change       -0.1832790E-01 Eh
 * total energy  :  -209.5795524 Eh     change       -0.7350016E-02 Eh
 * total energy  :  -209.6397946 Eh     change       -0.1046897E-04 Eh
 * total energy  :  -209.6398053 Eh     change       -0.1065380E-04 Eh
 * total energy  :  -209.6398164 Eh     change       -0.1118293E-04 Eh
 * total energy  :  -209.6398292 Eh     change       -0.1273108E-04 Eh
 * total energy  :  -209.6398436 Eh     change       -0.1438610E-04 Eh
 * total energy  :  -209.6398600 Eh     change       -0.1641007E-04 Eh
 * total energy  :  -209.6398771 Eh     change       -0.1711876E-04 Eh
 * total energy  :  -209.6398939 Eh     change       -0.1679671E-04 Eh
 * total energy  :  -209.6398985 Eh     change       -0.4658113E-05 Eh
   *** GEOMETRY OPTIMIZATION CONVERGED AFTER 122 ITERATIONS ***

 final structure:
================
115
 xtb: 6.5.1 (b24c23e)
Co          16.24790901473490       -0.00527717327506       -0.00150159366427
C           13.09725857695842       -0.87178618295164        0.83788639179020
C           13.67967780119426       -1.49482517405357       -0.24676418269829
C           13.00643259201817       -2.44641442400093       -1.08073483005404
C           13.82756392316520       -2.69608024480523       -2.12819997250967
C           15.02457845961625       -1.94121582192846       -1.90255568782279
N           14.91909051721429       -1.20245042699523       -0.75419525907431
C           16.16209037711015       -2.05018245929152       -2.67756329232294
C           17.37905227014964       -1.52597689886531       -2.29905478736008
C           18.62136031303294       -1.85383189486434       -2.93025783882011
C           19.59959982271366       -1.30212735947531       -2.17198600058904
N           17.59503817838446       -0.73530488010252       -1.19482645919140
C           18.94877935479446       -0.59032977007628       -1.11513274685028
C           19.62464353175841        0.23714276877850       -0.21130653709147
C           18.93247812250747        1.13929189108316        0.60407596903558
C           19.56532182784586        2.20556889812427        1.31788536575066
C           18.57385481722519        2.95564946908625        1.85728778732049
C           17.34128255538053        2.31046395450817        1.51975625061717
N           17.57644765193201        1.20541518890030        0.73592975011310
C           16.11503164450662        2.67994115145103        2.02896608215413
C           14.98572079282671        1.89429417988439        1.91134133170717
C           13.77801021076963        2.11292612313724        2.65119582985238
C           12.96977799586774        1.05614743323690        2.39862178903465
C           13.66175782730056        0.22300391444065        1.45983737495272
N           14.89922369383526        0.74075472693903        1.17805478682698
H           12.10811399014814       -1.18889857523282        1.14666268816943
H           12.02021891580903       -2.83742839588832       -0.88636945636663
H           13.66856827301718       -3.34921980273724       -2.97165797129214
H           16.12064193655549       -2.66393743970338       -3.56979670204311
H           18.71468704414161       -2.45545691461671       -3.82036004477946
H           20.66754148278707       -1.33875142021203       -2.31631001244884
H           20.63138435849642        2.36086963476584        1.36425765176230
H           18.65188528467244        3.84893616331532        2.45642067703570
H           16.05866929589019        3.57480480365933        2.63773140981130
H           13.60323783937232        2.95866579500732        3.29733289240800
H           11.98106975226886        0.85460648090960        2.77960849996221
Co          43.01582165529168       -0.02245244374907       -0.02120351213706
C           46.17070951298209       -0.20959402122282        1.15464705774872
C           45.61967595634128        1.04058221377323        0.95978837948681
C           46.32663350445533        2.26996673098660        1.16718043829631
C           45.51677655705159        3.26365194199779        0.73069944262902
C           44.29392200578364        2.64464196755411        0.31188396879993
N           44.37519455245504        1.28315045113996        0.43981020569850
C           43.15463138718557        3.34451403826715       -0.03173086623771
C           41.92158163688784        2.74462695661320       -0.17211642038929
C           40.68572919314629        3.46319429032803       -0.24513340838262
C           39.69588466051113        2.53818908851307       -0.21158313953083
N           41.68877090092153        1.39004403200434       -0.14200096122512
C           40.33153515732329        1.25678121222989       -0.17854332755323
C           39.63985104302321        0.04858053742643       -0.31638739293091
C           40.31461684908628       -1.14932932495144       -0.57771132273189
C           39.66345122876397       -2.34452363032187       -1.01869148959254
C           40.64063661695886       -3.24356634044009       -1.28937434027254
C           41.88197788989576       -2.61276086510652       -0.95655868156932
N           41.66725762542521       -1.31846293376364       -0.54361676007559
C           43.09195207939044       -3.27087332714612       -0.91528244488325
C           44.22338350715570       -2.72522997956271       -0.34158568148007
C           45.40789643071268       -3.47235736247904       -0.03790190064506
C           46.23125359458057       -2.63843424575664        0.64071792144649
C           45.57272907611319       -1.36665352826333        0.69947222525161
N           44.33676877722132       -1.43772354697039        0.11038950895021
H           47.16124639387453       -0.27590262587504        1.58909600052639
H           47.32450788270960        2.33890655522084        1.57064941823855
H           45.69930857994650        4.32650866599132        0.71340738509339
H           43.21120843428739        4.42530092782664       -0.08833429270824
H           40.60511023640882        4.53782075325638       -0.28599124605835
H           38.62863554906448        2.68985689156763       -0.23775505839201
H           38.59620215981003       -2.45395787279936       -1.12684696083700
H           40.54667876918997       -4.25550819870612       -1.65008794760706
H           43.13061662945579       -4.29989881510147       -1.25310524783663
H           45.55819846593195       -4.50870256947599       -0.29618418832055
H           47.21081684633094       -2.83718911046642        1.04600096412513
C           22.24891086447728        0.21155625268930       -0.19168179115422
C           21.02628364653786        0.24043431430190       -0.20717280794013
C           23.59616448326569        0.17854722854509       -0.16793339195971
C           24.81810459659662        0.13279456449261       -0.14085397915200
C           35.66874286794449        0.04303688042804       -0.22337477286769
C           34.44671027920979        0.03151850393574       -0.17597107089054
C           37.01583573603923        0.05361502549896       -0.26744843945578
C           38.23826291015880        0.05478732783139       -0.30426036122372
Co          29.63219537934034       -0.01683086643521        0.00371962217502
C           26.21780766346466        0.08013223758784       -0.08814471052913
C           26.89895456147082        0.96910065611345        0.74975423713004
C           26.23992375396735        1.91386572766246        1.59769784195540
C           27.21187267725780        2.65270376374298        2.18486054650689
C           28.45767152769743        2.16532095624884        1.67687478265834
N           28.25455142716715        1.10086220805990        0.82962400394263
C           29.66739840108391        2.78553761624416        1.89914084894678
C           30.85518235033096        2.36029047069461        1.34398541126882
C           32.09705604724617        3.05538815482162        1.48890554680440
C           33.04091584659707        2.28996802686855        0.88973041748496
N           31.03062035825951        1.19037712669557        0.64452044630545
C           32.37227751180026        1.12382631975139        0.40038068144925
C           33.04689742419891        0.00925751311239       -0.10683715290879
C           32.36455817578815       -1.14581182865645       -0.50213053948467
C           33.02252663171225       -2.33845864008869       -0.93860008971980
C           32.05025593804062       -3.19846452085721       -1.32648361844181
C           30.80546037376341       -2.51779143589154       -1.14022826173716
N           31.00902644008431       -1.27317747842051       -0.59073998861583
C           29.59668492208880       -2.99900607936421       -1.59282577005946
C           28.41014972239761       -2.30660151241866       -1.48023848488628
C           27.16947374646863       -2.75592485600910       -2.03268142090566
C           26.22584881259679       -1.86730087854522       -1.63799405534550
C           26.89331512689761       -0.89228966832776       -0.83175996733553
N           28.23432795389044       -1.14211869511043       -0.77164028511755
H           25.17056539479369        1.98918880561192        1.71293575341927
H           27.11395858771891        3.46946512960641        2.88210701972509
H           29.68046950565116        3.67625072674607        2.51662033144779
H           32.21172533572718        4.00421772781927        1.98835212195966
H           34.09961552880365        2.47136244753220        0.79617711204892
H           34.09151234307330       -2.47909444409880       -0.94377248068482
H           32.14765773228605       -4.19589975344358       -1.72456808936164
H           29.58332420244501       -3.95982571939411       -2.09430593682915
H           27.05547791344937       -3.63960506017979       -2.64010945160962
H           25.16798990644690       -1.86658510649090       -1.84654428565053

          :  Hamiltonian                  GFN1-xTB          :
         :: total energy            -209.639898540554 Eh    ::
         :: gradient norm              0.000689433720 Eh/a0 ::
         :: HOMO-LUMO gap              0.005388798439 eV    ::
         :: SCC energy              -213.023794037574 Eh    ::
         :: repulsion energy           3.483474342755 Eh    ::

    * Orbital Energies and Occupations

         #    Occupation            Energy/Eh            Energy/eV
      -------------------------------------------------------------
         1        2.0000           -0.7738462             -21.0574
       ...           ...                  ...                  ...
       184        2.0000           -0.3983421             -10.8394
       185        2.0000           -0.3962564             -10.7827
       186        2.0000           -0.3949600             -10.7474
       187        1.9999           -0.3933971             -10.7049
       188        1.9999           -0.3933498             -10.7036
       189        1.9999           -0.3933350             -10.7032
       190        1.9999           -0.3931497             -10.6981
       191        1.9999           -0.3931469             -10.6981
       192        1.9998           -0.3929239             -10.6920
       193        1.9987           -0.3909213             -10.6375
       194        1.6713           -0.3854528             -10.4887
       195        1.1544           -0.3841198             -10.4524
       196        1.1356           -0.3840803             -10.4514 (HOMO)
       197        1.0407           -0.3838822             -10.4460 (LUMO)
       198                         -0.3453168              -9.3965
       199                         -0.3345977              -9.1049
       200                         -0.3304228              -8.9913
       201                         -0.3292245              -8.9587
       202                         -0.3292087              -8.9582
       203                         -0.3256954              -8.8626
       204                         -0.3040501              -8.2736
       205                         -0.2970668              -8.0836
       206                         -0.2946315              -8.0173
       207                         -0.2908736              -7.9151
       ...                                ...                  ...
       411                          1.5115637              41.1317
      -------------------------------------------------------------
                  HL-Gap            0.0001980 Eh            0.0054 eV

Wiberg/Mayer (AO) data.
largest (>0.10) Wiberg bond orders for each atom

     #   Z sym  total        # sym  WBO       # sym  WBO       # sym  WBO
 ---------------------------------------------------------------------------
     1  27 Co   3.011 --     7 N    0.635    25 N    0.635    12 N    0.630
                            19 N    0.629
     2   6 C    3.928 --     3 C    1.364    24 C    1.363    26 H    0.971
     3   6 C    3.924 --     2 C    1.364     7 N    1.207     4 C    1.170
     4   6 C    3.960 --     5 C    1.653     3 C    1.170    27 H    0.975
     5   6 C    3.962 --     4 C    1.653     6 C    1.171    28 H    0.975
     6   6 C    3.921 --     8 C    1.356     7 N    1.211     5 C    1.171
     7   7 N    3.349 --     6 C    1.211     3 C    1.207     1 Co   0.635
     8   6 C    3.934 --     9 C    1.374     6 C    1.356    29 H    0.970
     9   6 C    3.917 --     8 C    1.374    12 N    1.189    10 C    1.175
    10   6 C    3.957 --    11 C    1.643     9 C    1.175    30 H    0.975
    11   6 C    3.961 --    10 C    1.643    13 C    1.185    31 H    0.974
    12   7 N    3.350 --    13 C    1.241     9 C    1.189     1 Co   0.630
    13   6 C    3.904 --    14 C    1.254    12 N    1.241    11 C    1.185
    14   6 C    3.932 --    15 C    1.255    13 C    1.254    74 C    1.197
    15   6 C    3.904 --    14 C    1.255    19 N    1.241    16 C    1.185
    16   6 C    3.961 --    17 C    1.643    15 C    1.185    32 H    0.974
    17   6 C    3.957 --    16 C    1.643    18 C    1.175    33 H    0.975
    18   6 C    3.917 --    20 C    1.374    19 N    1.189    17 C    1.175
    19   7 N    3.350 --    15 C    1.241    18 C    1.189     1 Co   0.629
    20   6 C    3.933 --    18 C    1.374    21 C    1.356    34 H    0.970
    21   6 C    3.921 --    20 C    1.356    25 N    1.211    22 C    1.171
    22   6 C    3.962 --    23 C    1.654    21 C    1.171    35 H    0.975
    23   6 C    3.960 --    22 C    1.654    24 C    1.170    36 H    0.975
    24   6 C    3.924 --     2 C    1.363    25 N    1.207    23 C    1.170
    25   7 N    3.349 --    21 C    1.211    24 C    1.207     1 Co   0.635
    26   1 H    1.000 --     2 C    0.971
    27   1 H    0.997 --     4 C    0.975
    28   1 H    0.997 --     5 C    0.975
    29   1 H    1.000 --     8 C    0.970
    30   1 H    0.997 --    10 C    0.975
    31   1 H    1.001 --    11 C    0.974
    32   1 H    1.001 --    16 C    0.974
    33   1 H    0.997 --    17 C    0.975
    34   1 H    1.000 --    20 C    0.970
    35   1 H    0.997 --    22 C    0.975
    36   1 H    0.997 --    23 C    0.975
    37  27 Co   3.014 --    43 N    0.636    61 N    0.635    55 N    0.630
                            48 N    0.630
    38   6 C    3.928 --    60 C    1.365    39 C    1.362    62 H    0.971
    39   6 C    3.924 --    38 C    1.362    43 N    1.208    40 C    1.171
    40   6 C    3.960 --    41 C    1.654    39 C    1.171    63 H    0.975
    41   6 C    3.962 --    40 C    1.654    42 C    1.171    64 H    0.975
    42   6 C    3.921 --    44 C    1.357    43 N    1.210    41 C    1.171
    43   7 N    3.349 --    42 C    1.210    39 C    1.208    37 Co   0.636
    44   6 C    3.934 --    45 C    1.373    42 C    1.357    65 H    0.970
    45   6 C    3.917 --    44 C    1.373    48 N    1.190    46 C    1.176
    46   6 C    3.957 --    47 C    1.643    45 C    1.176    66 H    0.975
    47   6 C    3.961 --    46 C    1.643    49 C    1.185    67 H    0.974
    48   7 N    3.350 --    49 C    1.239    45 C    1.190    37 Co   0.630
    49   6 C    3.904 --    50 C    1.256    48 N    1.239    47 C    1.185
    50   6 C    3.932 --    49 C    1.256    51 C    1.254    80 C    1.196
    51   6 C    3.904 --    50 C    1.254    55 N    1.242    52 C    1.185
    52   6 C    3.961 --    53 C    1.643    51 C    1.185    68 H    0.974
    53   6 C    3.957 --    52 C    1.643    54 C    1.175    69 H    0.975
    54   6 C    3.917 --    56 C    1.375    55 N    1.188    53 C    1.175
    55   7 N    3.350 --    51 C    1.242    54 C    1.188    37 Co   0.630
    56   6 C    3.934 --    54 C    1.375    57 C    1.355    70 H    0.970
    57   6 C    3.921 --    56 C    1.355    61 N    1.212    58 C    1.172
    58   6 C    3.962 --    59 C    1.654    57 C    1.172    71 H    0.975
    59   6 C    3.959 --    58 C    1.654    60 C    1.170    72 H    0.975
    60   6 C    3.924 --    38 C    1.365    61 N    1.206    59 C    1.170
    61   7 N    3.349 --    57 C    1.212    60 C    1.206    37 Co   0.635
    62   1 H    1.000 --    38 C    0.971
    63   1 H    0.997 --    40 C    0.975
    64   1 H    0.997 --    41 C    0.975
    65   1 H    1.000 --    44 C    0.970
    66   1 H    0.997 --    46 C    0.975
    67   1 H    1.001 --    47 C    0.974
    68   1 H    1.001 --    52 C    0.974
    69   1 H    0.997 --    53 C    0.975
    70   1 H    1.000 --    56 C    0.970
    71   1 H    0.997 --    58 C    0.975
    72   1 H    0.997 --    59 C    0.975
    73   6 C    3.930 --    74 C    2.461    75 C    1.318
    74   6 C    3.918 --    73 C    2.461    14 C    1.197    76 C    0.197
    75   6 C    3.926 --    76 C    2.460    73 C    1.318
    76   6 C    3.919 --    75 C    2.460    82 C    1.197    74 C    0.197
    77   6 C    3.926 --    78 C    2.461    79 C    1.318
    78   6 C    3.919 --    77 C    2.461    94 C    1.197    80 C    0.197
    79   6 C    3.930 --    80 C    2.462    77 C    1.318
    80   6 C    3.918 --    79 C    2.462    50 C    1.196    78 C    0.197
    81  27 Co   2.993 --    99 N    0.626    87 N    0.626   105 N    0.625
                            92 N    0.624
    82   6 C    3.921 --   104 C    1.256    83 C    1.253    76 C    1.197
    83   6 C    3.905 --    82 C    1.253    87 N    1.243    84 C    1.187
    84   6 C    3.960 --    85 C    1.641    83 C    1.187   106 H    0.974
    85   6 C    3.958 --    84 C    1.641    86 C    1.177   107 H    0.975
    86   6 C    3.916 --    88 C    1.370    87 N    1.190    85 C    1.177
    87   7 N    3.340 --    83 C    1.243    86 C    1.190    81 Co   0.626
    88   6 C    3.929 --    86 C    1.370    89 C    1.364   108 H    0.970
    89   6 C    3.915 --    88 C    1.364    92 N    1.195    90 C    1.179
    90   6 C    3.958 --    91 C    1.640    89 C    1.179   109 H    0.975
    91   6 C    3.960 --    90 C    1.640    93 C    1.186   110 H    0.974
    92   7 N    3.341 --    93 C    1.239    89 C    1.195    81 Co   0.624
    93   6 C    3.905 --    94 C    1.256    92 N    1.239    91 C    1.186
    94   6 C    3.921 --    93 C    1.256    95 C    1.253    78 C    1.197
    95   6 C    3.905 --    94 C    1.253    99 N    1.243    96 C    1.187
    96   6 C    3.960 --    97 C    1.641    95 C    1.187   111 H    0.974
    97   6 C    3.958 --    96 C    1.641    98 C    1.177   112 H    0.975
    98   6 C    3.916 --   100 C    1.370    99 N    1.190    97 C    1.177
    99   7 N    3.340 --    95 C    1.243    98 C    1.190    81 Co   0.626
   100   6 C    3.929 --    98 C    1.370   101 C    1.364   113 H    0.970
   101   6 C    3.915 --   100 C    1.364   105 N    1.194   102 C    1.179
   102   6 C    3.958 --   103 C    1.640   101 C    1.179   114 H    0.975
   103   6 C    3.960 --   102 C    1.640   104 C    1.187   115 H    0.974
   104   6 C    3.905 --    82 C    1.256   105 N    1.239   103 C    1.187
   105   7 N    3.341 --   104 C    1.239   101 C    1.194    81 Co   0.625
   106   1 H    1.002 --    84 C    0.974
   107   1 H    0.997 --    85 C    0.975
   108   1 H    1.000 --    88 C    0.970
   109   1 H    0.997 --    90 C    0.975
   110   1 H    1.002 --    91 C    0.974
   111   1 H    1.002 --    96 C    0.974
   112   1 H    0.997 --    97 C    0.975
   113   1 H    1.000 --   100 C    0.970
   114   1 H    0.997 --   102 C    0.975
   115   1 H    1.002 --   103 C    0.974
 ---------------------------------------------------------------------------

           -------------------------------------------------
          | TOTAL ENERGY             -209.639898540554 Eh   |
          | GRADIENT NORM               0.000689433720 Eh/α |
          | HOMO-LUMO GAP               0.005388798439 eV   |
           -------------------------------------------------

 * finished run on 2022/07/29 at 22:08:42.359
