   * xtb version 6.5.1 (b24c23e) compiled by 'conda@728c89f4b128' on 2022-07-12
          program call               : xtb Co_Ph2OMe_C4_2.xyz --gfn 1 --opt -T 48

   ID    Z sym.   atoms
    1   27 Co     1, 73
    2    6 C      2-6, 8-11, 13-21, 23-27, 29-33, 36, 37, 39-43, 45, 74-78,
                  80-83, 85-93, 95-99, 101-105, 108, 109, 111-115, 117,
                  145-148
    3    7 N      7, 12, 34, 35, 79, 84, 106, 107
    4    8 O      22, 28, 38, 44, 94, 100, 110, 116
    5    1 H      46-72, 118-144
########################################################################
[WARNING] Please study the warnings concerning your input carefully
-1- prog_main_parseArguments: Unknown option '-T' provided
########################################################################

          :  Hamiltonian                  GFN1-xTB          :
 * total energy  :  -259.6323835 Eh     change        0.2216893E-11 Eh
 * total energy  :  -259.7673139 Eh     change       -0.1349304E+00 Eh
 * total energy  :  -259.8151252 Eh     change       -0.4781131E-01 Eh
 * total energy  :  -259.8447388 Eh     change       -0.2961363E-01 Eh
 * total energy  :  -259.8588917 Eh     change       -0.1415287E-01 Eh
 * total energy  :  -259.8675718 Eh     change       -0.8680065E-02 Eh
 * total energy  :  -259.8711565 Eh     change       -0.3584703E-02 Eh
 * total energy  :  -259.8749177 Eh     change       -0.3761196E-02 Eh
 * total energy  :  -259.8773659 Eh     change       -0.2448252E-02 Eh
 * total energy  :  -259.8794994 Eh     change       -0.2133530E-02 Eh
 * total energy  :  -259.8852735 Eh     change       -0.2444134E-04 Eh
 * total energy  :  -259.8852963 Eh     change       -0.2274721E-04 Eh
 * total energy  :  -259.8853179 Eh     change       -0.2162022E-04 Eh
 * total energy  :  -259.8853391 Eh     change       -0.2124417E-04 Eh
 * total energy  :  -259.8853613 Eh     change       -0.2211102E-04 Eh
 * total energy  :  -259.8853857 Eh     change       -0.2449208E-04 Eh
 * total energy  :  -259.8854131 Eh     change       -0.2734839E-04 Eh
 * total energy  :  -259.8854420 Eh     change       -0.2888772E-04 Eh
 * total energy  :  -259.8854469 Eh     change       -0.4908975E-05 Eh
   *** GEOMETRY OPTIMIZATION CONVERGED AFTER 94 ITERATIONS ***

 final structure:
================
148
 xtb: 6.5.1 (b24c23e)
Co          14.49011776685296       -0.13234140118250        0.20679098774187
C           11.14778109665097       -0.42302743563747        0.53221066115660
C           11.83203189635120        0.33729709801846        1.45587846871498
C           11.19689759808026        1.02246657511682        2.54084011263892
C           12.13041283526817        1.83963514429683        3.08200895432392
C           13.34194362493051        1.63145392880257        2.34582208818793
N           13.15603288350856        0.68779577100612        1.36881677123797
C           14.50901692870413        2.35541151367560        2.54474227425302
C           15.68469470864524        2.04684467951913        1.88189035809735
C           16.93976796154817        2.67639205209010        2.16294385466019
C           17.89245679714101        1.94566405377792        1.53641416455994
N           15.86387643277384        0.97826424254577        1.03117010452726
C           17.21446767993431        0.89043017006364        0.85185920939412
C           17.87743835082685       -0.10610958083825        0.13049369068451
C           17.18864877731729       -1.03048504794970       -0.65780738104233
C           17.84437824508459       -1.98908497043213       -1.49081402158397
C           16.88291298511605       -2.55839226998260       -2.25640814693744
C           15.64061767703141       -1.96042284777774       -1.87242482052186
C           14.42432442342813       -2.25795531640064       -2.46609748092071
C           14.40743508859539       -3.17610415299871       -3.63683989290409
C           14.95102337605766       -2.76846092245859       -4.86256109142650
O           15.45544101447748       -1.50760520730326       -4.89845380021573
C           16.04016616672100       -1.00360305792998       -6.08223193075673
C           14.94447601523537       -3.63105765613700       -5.95842103413563
C           14.40215772501543       -4.89987971422341       -5.82236840929609
C           13.86536724661108       -5.32784096201231       -4.61760188716644
C           13.86743563133996       -4.46449489036925       -3.52263947821716
O           13.37782769630067       -4.79781682735309       -2.29940057045199
C           12.83385925518915       -6.08167386532029       -2.06989407646809
C           13.22603400951935       -1.77592034211069       -1.96237464675588
C           11.93916452333806       -2.12571762001141       -2.48794126574144
C           11.01870051348040       -1.65407066848675       -1.61517379870011
C           11.74307030546102       -0.98654747515891       -0.57622849256797
N           13.09186411149330       -1.02504122729847       -0.82118089853046
N           15.83770891306503       -1.04593561500820       -0.86465215325202
C           14.52045092695174        3.45463152473033        3.54858566976291
C           14.45815543962513        3.16370091016894        4.91770875321571
O           14.38320021942579        1.84554963469566        5.24107906339426
C           14.33952435644142        1.44085776063910        6.59438712347405
C           14.48473373059364        4.19213627804181        5.85891446161334
C           14.56998527478225        5.50702503651953        5.42670652605934
C           14.63178495376477        5.81877419719363        4.07700891206741
C           14.61098566115030        4.78999078872569        3.13550379029610
O           14.66666273703802        4.99341672650878        1.79302759433330
C           14.75353710801492        6.30407350909577        1.27153925658005
H           10.07781362775660       -0.54287099711104        0.65722992930362
H           10.16179351449880        0.89963476377313        2.81832481251742
H           12.02284304056283        2.52657296296665        3.90551506774477
H           17.06413063545571        3.54797513515713        2.78471077718531
H           18.96037793784679        2.09428454012161        1.52649823794459
H           18.90661643563351       -2.17415159924001       -1.49130599812970
H           16.99037946651703       -3.31891991031886       -3.01277056653385
H           15.31397021843453       -0.96208399314909       -6.90312692814482
H           16.37507883373632        0.00858797438173       -5.84833320885520
H           16.90296911163390       -1.60580589265370       -6.39182192861718
H           15.35721829623793       -3.32431344806665       -6.91012691370366
H           14.39921294445203       -5.57118693485031       -6.67409759907027
H           13.45277800275997       -6.32472765133818       -4.53878229596662
H           12.52787356330474       -6.09866413122348       -1.02220080675862
H           11.95791427005759       -6.26651164412702       -2.70358234423632
H           13.57751387414692       -6.86948994175454       -2.24065036788592
H           11.77913983969931       -2.68249857057110       -3.39698805750603
H            9.94379195519218       -1.73474379624094       -1.65499824868292
H           14.28638558482923        0.35062843469958        6.58349933686318
H           13.45431389059685        1.83915335505821        7.10504912368326
H           15.24108252969177        1.75228080065735        7.13570745532737
H           14.44114917571880        3.97778746953713        6.91833524076573
H           14.58980176282323        6.30701277118329        6.15866086795997
H           14.69770194665417        6.85363478234970        3.76888689371937
H           15.66404241708026        6.81236496854625        1.61156967071659
H           14.78688527918510        6.19755297340366        0.18573726241007
H           13.87860808285282        6.90506462387087        1.54774190803910
Co          27.86550281381050       -0.22706195006195        0.10611160452705
C           31.21387485303575       -0.55754678586373        0.31995176398876
C           30.52916793683504       -1.37560844896110       -0.55258518810260
C           31.16634369618424       -2.35061057133999       -1.38521846654979
C           30.22911253679572       -2.78416983437190       -2.26019008955916
C           29.01349198180008       -2.09513591199410       -1.94261938146954
N           29.20085897063251       -1.25454750274938       -0.87579190491383
C           27.84201815992122       -2.20168135024075       -2.67900883456710
C           26.66580281275847       -1.59113776537259       -2.27771493496593
C           25.40942314223440       -1.78323018491453       -2.93739848682701
C           24.45870723527839       -1.25834026043770       -2.12837378515514
N           26.48904583206695       -0.89386612688566       -1.10290163260150
C           25.13869085704048       -0.72575860839039       -0.99005694829023
C           24.47695165881808       -0.15398088395311        0.09983020261935
C           25.16716663315334        0.48473302191311        1.13220102014514
C           24.51366617188710        1.15721148478718        2.21077825373781
C           25.47592844419999        1.82761378753284        2.88844803580062
C           26.71597692802861        1.54725308366019        2.23124673424165
C           27.92964443765456        2.10443415682608        2.60114031086619
C           27.94562325708547        3.12819040956429        3.68061549641594
C           27.37908019272857        4.39162148036153        3.46374999349527
O           26.85436486279479        4.60271438407884        2.22862493817817
C           26.24092678589971        5.83576336694149        1.91169392264074
C           27.38480122045381        5.35015206417086        4.47670288812101
C           27.94947192506562        5.03920683132043        5.70433104019394
C           28.50971025898004        3.79367719794352        5.94426334277346
C           28.50858967992284        2.83621571099362        4.93053183597832
O           29.02067620050378        1.58557843947753        5.07465273455555
C           29.59367375597082        1.18187585324848        6.30165816370876
C           29.12671985304016        1.69446608923380        2.03474848053648
C           30.41203951605156        2.18279732331931        2.43980722193030
C           31.33604808902910        1.39898324505830        1.83703687744554
C           30.61460002556653        0.45542530640127        1.03772369459329
N           29.26377645697495        0.67472212091152        1.12617154775980
N           26.51773633754184        0.68995623932981        1.17448109903086
C           27.82861651163995       -3.04463087380348       -3.90576060998216
C           27.91585395302116       -4.43966080382889       -3.80863536715878
O           28.01471313930866       -4.94190587162315       -2.54935960311331
C           28.09085953498949       -6.33714680230417       -2.33804178484197
C           27.88828436122928       -5.22953512749112       -4.95740700546974
C           27.77665496787085       -4.62103677623798       -6.19843453706423
C           27.68926618100999       -3.24244003316594       -6.31902931882225
C           27.71141507947393       -2.45242872696643       -5.16993595004433
O           27.63231499200180       -1.09582917949830       -5.18463517105803
C           27.51127585310552       -0.39953722831646       -6.40847447644801
H           32.28621904429061       -0.68659007918214        0.41068835524096
H           32.20497835504269       -2.63206719362197       -1.31079621742270
H           30.33722809922126       -3.50433808271355       -3.05468170508810
H           25.28270698751816       -2.28164373699621       -3.88457589586954
H           23.39070522697430       -1.22641864032170       -2.27318681841571
H           23.45235770848522        1.12514050552195        2.39839846712978
H           25.37024344707699        2.45587003248041        3.75799933088975
H           26.95278581060731        6.66755775766625        1.97747989093317
H           25.89033688841206        5.74454285398613        0.88203110678979
H           25.38503464145138        6.03856782945578        2.56684097728655
H           26.95450117929095        6.32983463874742        4.31774763818987
H           27.95172252241827        5.78394870268530        6.49265964893173
H           28.93961699418175        3.57710319454464        6.91302973069302
H           29.91611540235851        0.14858653107399        6.16048146730040
H           30.46323492000401        1.79784784394491        6.56137449514240
H           28.86341636422634        1.22272169437921        7.11889793610495
H           30.56903763768741        3.00561299595623        3.11827295460188
H           32.41144500492999        1.44159930999431        1.90939678968293
H           28.16203742008289       -6.47698717192653       -1.25779966925643
H           28.97884934503582       -6.76849233431692       -2.81597625340488
H           27.19470230535183       -6.84884796921316       -2.70933379966252
H           27.95121384521250       -6.30752538136755       -4.89270726251180
H           27.75602215927993       -5.23540272193310       -7.09188212126083
H           27.60278684462230       -2.79503001089610       -7.30013562473358
H           26.59636061818303       -0.68268498408138       -6.94305061303786
H           27.46273370863007        0.66021866156749       -6.15156729548035
H           28.37836282790126       -0.57345916220872       -7.05719393492002
C           20.50258633540932       -0.15824225169758        0.15195918139267
C           19.28044923602405       -0.13749740293201        0.14728575293959
C           21.85153266244248       -0.17189188833705        0.14378369263210
C           23.07378245814181       -0.16899209398307        0.12675717516782

          :  Hamiltonian                  GFN1-xTB          :
         :: total energy            -259.885446893843 Eh    ::
         :: gradient norm              0.000467486597 Eh/a0 ::
         :: HOMO-LUMO gap              0.013192714854 eV    ::
         :: SCC energy              -263.482699161636 Eh    ::
         :: repulsion energy           3.726188130904 Eh    ::

    * Orbital Energies and Occupations

         #    Occupation            Energy/Eh            Energy/eV
      -------------------------------------------------------------
         1        2.0000           -0.8056700             -21.9234
       ...           ...                  ...                  ...
       220        2.0000           -0.4099560             -11.1555
       221        2.0000           -0.4093905             -11.1401
       222        2.0000           -0.3818509             -10.3907
       223        2.0000           -0.3804443             -10.3524
       224        2.0000           -0.3803459             -10.3497
       225        2.0000           -0.3790826             -10.3154
       226        2.0000           -0.3775017             -10.2723
       227        1.9999           -0.3756159             -10.2210
       228        1.9999           -0.3755706             -10.2198
       229        1.9999           -0.3755539             -10.2193
       230        1.9999           -0.3755106             -10.2182
       231        1.9322           -0.3696547             -10.0588
       232        1.1609           -0.3667801              -9.9806 (HOMO)
       233        0.9074           -0.3662953              -9.9674 (LUMO)
       234                         -0.3224989              -8.7756
       235                         -0.3109274              -8.4608
       236                         -0.3108729              -8.4593
       237                         -0.3092927              -8.4163
       238                         -0.2820139              -7.6740
       239                         -0.2773851              -7.5480
       240                         -0.2773199              -7.5463
       241                         -0.2748999              -7.4804
       242                         -0.2540646              -6.9135
       243                         -0.2540044              -6.9118
       ...                                ...                  ...
       494                          1.5296575              41.6241
      -------------------------------------------------------------
                  HL-Gap            0.0004848 Eh            0.0132 eV

Wiberg/Mayer (AO) data.
largest (>0.10) Wiberg bond orders for each atom

     #   Z sym  total        # sym  WBO       # sym  WBO       # sym  WBO
 ---------------------------------------------------------------------------
     1  27 Co   3.052 --    34 N    0.640     7 N    0.636    12 N    0.636
                            35 N    0.633
     2   6 C    3.929 --     3 C    1.366    33 C    1.362    46 H    0.970
     3   6 C    3.926 --     2 C    1.366     7 N    1.202     4 C    1.173
     4   6 C    3.960 --     5 C    1.649     3 C    1.173    47 H    0.976
     5   6 C    3.963 --     4 C    1.649     6 C    1.178    48 H    0.974
     6   6 C    3.919 --     8 C    1.320     7 N    1.215     5 C    1.178
     7   7 N    3.348 --     6 C    1.215     3 C    1.202     1 Co   0.636
     8   6 C    3.932 --     9 C    1.343     6 C    1.320    36 C    1.013
     9   6 C    3.916 --     8 C    1.343    12 N    1.188    10 C    1.180
    10   6 C    3.959 --    11 C    1.640     9 C    1.180    49 H    0.974
    11   6 C    3.962 --    10 C    1.640    13 C    1.189    50 H    0.974
    12   7 N    3.348 --    13 C    1.237     9 C    1.188     1 Co   0.636
    13   6 C    3.907 --    14 C    1.256    12 N    1.237    11 C    1.189
    14   6 C    3.933 --    15 C    1.262    13 C    1.256   146 C    1.189
    15   6 C    3.906 --    14 C    1.262    35 N    1.230    16 C    1.188
    16   6 C    3.961 --    17 C    1.638    15 C    1.188    51 H    0.974
    17   6 C    3.959 --    16 C    1.638    18 C    1.183    52 H    0.974
    18   6 C    3.916 --    19 C    1.332    35 N    1.197    17 C    1.183
    19   6 C    3.932 --    18 C    1.332    30 C    1.328    20 C    1.016
    20   6 C    3.977 --    21 C    1.342    27 C    1.341    19 C    1.016
                            25 C    0.100
    21   6 C    3.903 --    24 C    1.361    20 C    1.342    22 O    1.033
    22   8 O    2.146 --    21 C    1.033    23 C    0.935
    23   6 C    3.907 --    54 H    0.983    55 H    0.980    53 H    0.980
                            22 O    0.935
    24   6 C    3.983 --    25 C    1.442    21 C    1.361    56 H    0.969
    25   6 C    3.992 --    24 C    1.442    26 C    1.442    57 H    0.974
                            20 C    0.100
    26   6 C    3.983 --    25 C    1.442    27 C    1.362    58 H    0.969
    27   6 C    3.903 --    26 C    1.362    20 C    1.341    28 O    1.032
    28   8 O    2.146 --    27 C    1.032    29 C    0.935
    29   6 C    3.907 --    59 H    0.983    60 H    0.980    61 H    0.980
                            28 O    0.935
    30   6 C    3.920 --    19 C    1.328    34 N    1.209    31 C    1.175
    31   6 C    3.963 --    32 C    1.651    30 C    1.175    62 H    0.974
    32   6 C    3.961 --    31 C    1.651    33 C    1.174    63 H    0.976
    33   6 C    3.926 --     2 C    1.362    34 N    1.207    32 C    1.174
    34   7 N    3.346 --    30 C    1.209    33 C    1.207     1 Co   0.640
    35   7 N    3.350 --    15 C    1.230    18 C    1.197     1 Co   0.633
    36   6 C    3.977 --    43 C    1.344    37 C    1.343     8 C    1.013
                            41 C    0.101
    37   6 C    3.903 --    40 C    1.362    36 C    1.343    38 O    1.031
    38   8 O    2.146 --    37 C    1.031    39 C    0.935
    39   6 C    3.907 --    64 H    0.983    65 H    0.980    66 H    0.980
                            38 O    0.935
    40   6 C    3.983 --    41 C    1.442    37 C    1.362    67 H    0.969
    41   6 C    3.993 --    42 C    1.443    40 C    1.442    68 H    0.974
                            36 C    0.101
    42   6 C    3.983 --    41 C    1.443    43 C    1.361    69 H    0.969
    43   6 C    3.903 --    42 C    1.361    36 C    1.344    44 O    1.032
    44   8 O    2.145 --    43 C    1.032    45 C    0.935
    45   6 C    3.907 --    71 H    0.983    70 H    0.980    72 H    0.980
                            44 O    0.935
    46   1 H    1.001 --     2 C    0.970
    47   1 H    0.998 --     4 C    0.976
    48   1 H    1.002 --     5 C    0.974
    49   1 H    1.002 --    10 C    0.974
    50   1 H    1.002 --    11 C    0.974
    51   1 H    1.002 --    16 C    0.974
    52   1 H    1.002 --    17 C    0.974
    53   1 H    1.009 --    23 C    0.980
    54   1 H    1.015 --    23 C    0.983
    55   1 H    1.009 --    23 C    0.980
    56   1 H    1.000 --    24 C    0.969
    57   1 H    1.003 --    25 C    0.974
    58   1 H    1.000 --    26 C    0.969
    59   1 H    1.015 --    29 C    0.983
    60   1 H    1.009 --    29 C    0.980
    61   1 H    1.009 --    29 C    0.980
    62   1 H    1.002 --    31 C    0.974
    63   1 H    0.998 --    32 C    0.976
    64   1 H    1.015 --    39 C    0.983
    65   1 H    1.009 --    39 C    0.980
    66   1 H    1.009 --    39 C    0.980
    67   1 H    1.000 --    40 C    0.969
    68   1 H    1.003 --    41 C    0.974
    69   1 H    1.000 --    42 C    0.969
    70   1 H    1.009 --    45 C    0.980
    71   1 H    1.015 --    45 C    0.983
    72   1 H    1.009 --    45 C    0.980
    73  27 Co   3.050 --   106 N    0.639    79 N    0.636    84 N    0.636
                           107 N    0.633
    74   6 C    3.929 --    75 C    1.366   105 C    1.362   118 H    0.970
    75   6 C    3.926 --    74 C    1.366    79 N    1.202    76 C    1.173
    76   6 C    3.960 --    77 C    1.650    75 C    1.173   119 H    0.976
    77   6 C    3.963 --    76 C    1.650    78 C    1.178   120 H    0.974
    78   6 C    3.919 --    80 C    1.320    79 N    1.215    77 C    1.178
    79   7 N    3.348 --    78 C    1.215    75 C    1.202    73 Co   0.636
    80   6 C    3.932 --    81 C    1.342    78 C    1.320   108 C    1.014
    81   6 C    3.916 --    80 C    1.342    84 N    1.189    82 C    1.180
    82   6 C    3.959 --    83 C    1.640    81 C    1.180   121 H    0.974
    83   6 C    3.962 --    82 C    1.640    85 C    1.189   122 H    0.974
    84   7 N    3.348 --    85 C    1.237    81 C    1.189    73 Co   0.636
    85   6 C    3.907 --    86 C    1.257    84 N    1.237    83 C    1.189
    86   6 C    3.933 --    87 C    1.262    85 C    1.257   148 C    1.189
    87   6 C    3.906 --    86 C    1.262   107 N    1.230    88 C    1.188
    88   6 C    3.961 --    89 C    1.638    87 C    1.188   123 H    0.974
    89   6 C    3.959 --    88 C    1.638    90 C    1.183   124 H    0.974
    90   6 C    3.916 --    91 C    1.332   107 N    1.196    89 C    1.183
    91   6 C    3.932 --    90 C    1.332   102 C    1.328    92 C    1.016
    92   6 C    3.977 --    99 C    1.342    93 C    1.341    91 C    1.016
                            97 C    0.100
    93   6 C    3.903 --    96 C    1.362    92 C    1.341    94 O    1.033
    94   8 O    2.146 --    93 C    1.033    95 C    0.935
    95   6 C    3.907 --   126 H    0.983   127 H    0.980   125 H    0.980
                            94 O    0.935
    96   6 C    3.983 --    97 C    1.442    93 C    1.362   128 H    0.969
    97   6 C    3.992 --    96 C    1.442    98 C    1.442   129 H    0.974
                            92 C    0.100
    98   6 C    3.983 --    97 C    1.442    99 C    1.362   130 H    0.969
    99   6 C    3.903 --    98 C    1.362    92 C    1.342   100 O    1.032
   100   8 O    2.146 --    99 C    1.032   101 C    0.935
   101   6 C    3.907 --   131 H    0.983   132 H    0.980   133 H    0.980
                           100 O    0.935
   102   6 C    3.920 --    91 C    1.328   106 N    1.208   103 C    1.175
   103   6 C    3.963 --   104 C    1.651   102 C    1.175   134 H    0.974
   104   6 C    3.960 --   103 C    1.651   105 C    1.174   135 H    0.976
   105   6 C    3.926 --    74 C    1.362   106 N    1.207   104 C    1.174
   106   7 N    3.346 --   102 C    1.208   105 C    1.207    73 Co   0.639
   107   7 N    3.350 --    87 C    1.230    90 C    1.196    73 Co   0.633
   108   6 C    3.977 --   115 C    1.343   109 C    1.343    80 C    1.014
                           113 C    0.101
   109   6 C    3.903 --   112 C    1.362   108 C    1.343   110 O    1.031
   110   8 O    2.146 --   109 C    1.031   111 C    0.935
   111   6 C    3.907 --   136 H    0.983   137 H    0.980   138 H    0.980
                           110 O    0.935
   112   6 C    3.983 --   113 C    1.442   109 C    1.362   139 H    0.969
   113   6 C    3.992 --   114 C    1.442   112 C    1.442   140 H    0.974
                           108 C    0.101
   114   6 C    3.983 --   113 C    1.442   115 C    1.361   141 H    0.969
   115   6 C    3.903 --   114 C    1.361   108 C    1.343   116 O    1.032
   116   8 O    2.146 --   115 C    1.032   117 C    0.935
   117   6 C    3.907 --   143 H    0.983   142 H    0.980   144 H    0.980
                           116 O    0.935
   118   1 H    1.001 --    74 C    0.970
   119   1 H    0.998 --    76 C    0.976
   120   1 H    1.002 --    77 C    0.974
   121   1 H    1.002 --    82 C    0.974
   122   1 H    1.002 --    83 C    0.974
   123   1 H    1.002 --    88 C    0.974
   124   1 H    1.002 --    89 C    0.974
   125   1 H    1.009 --    95 C    0.980
   126   1 H    1.015 --    95 C    0.983
   127   1 H    1.009 --    95 C    0.980
   128   1 H    1.000 --    96 C    0.969
   129   1 H    1.003 --    97 C    0.974
   130   1 H    1.000 --    98 C    0.969
   131   1 H    1.015 --   101 C    0.983
   132   1 H    1.009 --   101 C    0.980
   133   1 H    1.009 --   101 C    0.980
   134   1 H    1.002 --   103 C    0.974
   135   1 H    0.998 --   104 C    0.976
   136   1 H    1.015 --   111 C    0.983
   137   1 H    1.009 --   111 C    0.980
   138   1 H    1.009 --   111 C    0.980
   139   1 H    1.000 --   112 C    0.969
   140   1 H    1.003 --   113 C    0.974
   141   1 H    1.000 --   114 C    0.969
   142   1 H    1.009 --   117 C    0.980
   143   1 H    1.015 --   117 C    0.983
   144   1 H    1.009 --   117 C    0.980
   145   6 C    3.930 --   146 C    2.470   147 C    1.311
   146   6 C    3.921 --   145 C    2.470    14 C    1.189   148 C    0.198
   147   6 C    3.930 --   148 C    2.470   145 C    1.311
   148   6 C    3.921 --   147 C    2.470    86 C    1.189   146 C    0.198
 ---------------------------------------------------------------------------

           -------------------------------------------------
          | TOTAL ENERGY             -259.885446893843 Eh   |
          | GRADIENT NORM               0.000467486597 Eh/α |
          | HOMO-LUMO GAP               0.013192714854 eV   |
           -------------------------------------------------

 * finished run on 2022/07/30 at 03:27:13.835
