   * xtb version 6.5.1 (b24c23e) compiled by 'conda@728c89f4b128' on 2022-07-12
          program call               : xtb Ni_Ph3Me_C4_3.xyz --gfn 1 --opt -T 48

   ID    Z sym.   atoms
    1   28 Ni     1, 75, 157
    2    6 C      2-6, 8-20, 22-27, 29-42, 76-80, 82-94, 96-101, 103-116,
                  149-156, 158-162, 164-176, 178-183, 185-198
    3    7 N      7, 21, 28, 43, 81, 95, 102, 117, 163, 177, 184, 199
    4    1 H      44-74, 118-148, 200-229

          :  Hamiltonian                  GFN1-xTB          :
 * total energy  :  -357.3340171 Eh     change       -0.2280956E-07 Eh
 * total energy  :  -357.8340262 Eh     change       -0.5000091E+00 Eh
 * total energy  :  -357.9972596 Eh     change       -0.1632334E+00 Eh
 * total energy  :  -358.0885662 Eh     change       -0.9130667E-01 Eh
 * total energy  :  -358.1444545 Eh     change       -0.5588823E-01 Eh
 * total energy  :  -358.1725722 Eh     change       -0.2811779E-01 Eh
 * total energy  :  -358.1904594 Eh     change       -0.1788712E-01 Eh
 * total energy  :  -358.2020388 Eh     change       -0.1157939E-01 Eh
 * total energy  :  -358.2080114 Eh     change       -0.5972636E-02 Eh
 * total energy  :  -358.2161182 Eh     change       -0.8106824E-02 Eh
 * total energy  :  -358.2570375 Eh     change       -0.7116457E-05 Eh
 * total energy  :  -358.2570373 Eh     change        0.2044147E-06 Eh
 * total energy  :  -358.2570452 Eh     change       -0.7973913E-05 Eh
 * total energy  :  -358.2570534 Eh     change       -0.8124979E-05 Eh
 * total energy  :  -358.2570590 Eh     change       -0.5604630E-05 Eh
 * total energy  :  -358.2570653 Eh     change       -0.6371764E-05 Eh
 * total energy  :  -358.2570726 Eh     change       -0.7295249E-05 Eh
 * total energy  :  -358.2570791 Eh     change       -0.6457373E-05 Eh
 * total energy  :  -358.2570805 Eh     change       -0.1434175E-05 Eh
   *** GEOMETRY OPTIMIZATION CONVERGED AFTER 68 ITERATIONS ***

 final structure:
================
229
 xtb: 6.5.1 (b24c23e)
Ni          32.99123978175276        0.02508992403216       -0.02531605170335
C           29.58948439820978        0.10143742859935       -0.07615198847276
C           30.25438526846893        1.19790579706128        0.43192730021398
C           29.58846005091508        2.35837224976735        0.94155839131383
C           30.55563560213667        3.22019798427132        1.33380600998415
C           31.81117853134279        2.58509614766674        1.06019552221810
N           31.61694672238988        1.34130757610422        0.51302440029863
C           33.03839557777194        3.17955569017536        1.30886362389033
C           33.06376017145718        4.55172075427318        1.89047230861833
C           33.01940318707049        5.66724864964695        1.04920036804908
C           32.93926504229712        5.48151833815034       -0.44264932204379
C           33.05041153242048        6.94169519902925        1.60301103825550
C           33.12387701381326        7.12103508797536        2.98059269266424
C           33.18049634063523        8.50614382992403        3.56619421969058
C           33.16672682447466        6.00361672050823        3.80794886961606
C           33.13725302236242        4.71972372534152        3.27620360239694
C           33.18459958627945        3.51493925064645        4.17770695765202
C           34.24616200934160        2.55620939744933        1.03801924162542
C           35.51709586702125        3.16780864925389        1.28245799473811
C           36.45984584677231        2.26773103248642        0.91461780575654
N           34.40822893500575        1.29158155933855        0.51926698844525
C           35.76257616453516        1.11096491114852        0.44749231711604
C           36.41306965311102       -0.03755549227059       -0.00809029871558
C           35.72593376072972       -1.16557928617937       -0.46077789436691
C           36.38502429181997       -2.35286641008738       -0.90621671122830
C           35.41348714494502       -3.22494323191032       -1.26672784190316
C           34.16343393957210       -2.56383416590322       -1.04431779643211
N           34.36660327203484       -1.29872940171257       -0.54138562522209
C           32.93649140860199       -3.14213649353570       -1.32834508018463
C           32.91374130558098       -4.52287108102513       -1.88941338308907
C           33.01372317004819       -4.71632169059308       -3.27083755898922
C           33.14348174318121       -3.52983211654834       -4.18838681945716
C           32.99261422443830       -6.00778762015127       -3.78215571758448
C           32.87443698060967       -7.10933845102384       -2.93913298134481
C           32.84472134579497       -8.49882869284214       -3.51641582259997
C           32.77564874869933       -6.90488286560984       -1.56780387125112
C           32.79437903660822       -5.62094438150053       -1.03368932118381
C           32.68818249324163       -5.40799946277055        0.45288013579778
C           31.73034205765579       -2.49184255568351       -1.11880156604822
C           30.45621601733816       -3.07293656483378       -1.42479431158354
C           29.51776174774385       -2.16181654631662       -1.07677285135822
C           30.21965496832339       -1.02689889834831       -0.55797203348645
N           31.57613167440770       -1.23341577058116       -0.59289049275680
H           28.50612696252758        0.12636407359547       -0.09427394116097
H           28.51746827321778        2.47759009471320        0.98483730350433
H           30.44920431607564        4.20038362408438        1.77009783380521
H           32.01837333702182        4.95964101326414       -0.71014087617796
H           33.77829661177764        4.87933011531512       -0.79593123238648
H           32.95697313088202        6.44245645242654       -0.95598867533150
H           33.01655932236427        7.80778481374441        0.95012484955491
H           32.75512485571440        8.52180148423429        4.56989622113759
H           34.21902289353042        8.83904153599341        3.63218703357232
H           32.63696849105698        9.21490891161025        2.94091868472812
H           33.22339586091058        6.13397587256317        4.88372098881341
H           34.07427613720852        2.91872449717613        3.96589357037638
H           33.20608978661340        3.81322679360664        5.22542728869318
H           32.31147672076141        2.88145546201704        4.01089993086177
H           35.65277587345309        4.15941603528717        1.68282366009848
H           37.53319123672465        2.36192439688306        0.95050457980820
H           37.45462239830664       -2.48559607430784       -0.93117792134334
H           35.51649270161048       -4.22716525206341       -1.65007412252431
H           32.29863192570809       -2.85186736079063       -4.05385005322023
H           33.17683911155917       -3.84564214976771       -5.23066261562496
H           34.05580665942336       -2.97447788723591       -3.96232822181092
H           33.07039326964667       -6.15942359615384       -4.85384030076578
H           33.67648028037184       -8.64357425237617       -4.20761027756437
H           32.90780434148510       -9.25067019645397       -2.72988495213825
H           31.91657314664494       -8.65529060158384       -4.07017844352865
H           32.68400281701846       -7.75695292081065       -0.90220575879760
H           31.78567818721514       -4.84139925493599        0.69036918454993
H           33.54490640235322       -4.83812487669219        0.81707030741755
H           32.65067933776543       -6.36037187120406        0.98087054268743
H           30.31870704437950       -4.05317533833138       -1.85216979613235
H           28.44438458871381       -2.23242667834155       -1.15411285891787
Ni          59.89972572499374       -0.01147029753973       -0.07821490872924
C           63.29938358086594       -0.03352167818510       -0.16923231399709
C           62.63391906345602       -1.18758736610563       -0.52743452112190
C           63.29739238573838       -2.39328959483951       -0.92247894636776
C           62.32862909057548       -3.28344032434168       -1.24101030020763
C           61.07450626943165       -2.61722886404782       -1.04603818320729
N           61.27112419554575       -1.33740985580548       -0.59039972120534
C           59.84817300501655       -3.19242205457843       -1.34066302016331
C           59.81994407505217       -4.58275595394196       -1.87702952167678
C           59.92552487646839       -4.80439840606014       -3.25305407361504
C           60.07420252538541       -3.63809478994629       -4.19334892440017
C           59.89143513060037       -6.10607736533272       -3.73953642084397
C           59.75518614004935       -7.18848544559119       -2.87649957941134
C           59.69641457171831       -8.59186882490743       -3.41661201386074
C           59.65158024778005       -6.95579772447510       -1.50886603460843
C           59.68254342111602       -5.66276583888360       -1.00017028313293
C           59.56899496641679       -5.41832250033637        0.48097437278996
C           58.64389525350095       -2.52980709788339       -1.16250346915891
C           57.37432408866918       -3.10286984513498       -1.49245505485728
C           56.43303137174951       -2.19661101005009       -1.13576816294409
N           58.48291791008738       -1.27460659392000       -0.62141860583049
C           57.12954752541900       -1.07612347320058       -0.58611771842879
C           56.48021525608846        0.03004538626742       -0.03407070563198
C           57.16958860162430        1.11387639801848        0.51332148647144
C           56.51478971536219        2.24123048302561        1.09888951504207
C           57.48748152801110        3.11302221751911        1.45741105954259
C           58.73401911623302        2.51473650369466        1.08662239963523
N           58.52819574808984        1.27573599231687        0.52363391045708
C           59.95779814419697        3.14733558437542        1.23836324559345
C           59.98106554474101        4.52447135767120        1.80800641285962
C           59.83396369936187        5.62935875048956        0.96337177559514
C           59.65238487408882        5.42481100783276       -0.51705349851166
C           59.85609499716548        6.90890538835916        1.50377437974071
C           60.02092595871017        7.10495273744811        2.87210394379766
C           60.05238770142718        8.50065447608037        3.43407440960704
C           60.16597041813544        5.99920816484639        3.70193090036965
C           60.14754961571627        4.70911789413033        3.18287733079740
C           60.30444739330110        3.51640751847010        4.08803553341410
C           61.15956245568625        2.55901751340543        0.87565601643405
C           62.43106328813629        3.20632428170423        1.01342463368011
C           63.36853632272842        2.31462831127019        0.61558058482782
C           62.66885924102819        1.12429962274721        0.23666067813299
N           61.31384939545684        1.28750011335558        0.38237543333564
H           64.38265491073523       -0.03896532747174       -0.20217199572499
H           64.36803965851237       -2.52067883046574       -0.94717399354741
H           62.43324766229868       -4.30032508341475       -1.58374756351059
H           60.99658303133935       -3.09466768086029       -3.97926278327176
H           59.24166151670548       -2.94293632103982       -4.07067188987228
H           60.10014310263720       -3.97426769220726       -5.22945314658279
H           59.97279489047239       -6.27829522085479       -4.80782059882746
H           60.10325745554591       -9.30256334051392       -2.69680626471115
H           58.65889059967667       -8.86907004889784       -3.61764580845272
H           60.25580197977074       -8.67367435264791       -4.34881717807131
H           59.54557346142143       -7.79424749748884       -0.82823169787532
H           58.68133185451986       -4.82128959433022        0.69882856298595
H           59.49927495851414       -6.35883849791151        1.02662748261366
H           60.43866788102006       -4.86650100461031        0.84245356012489
H           57.23843227433023       -4.07515037141505       -1.93769676096990
H           55.36084098110250       -2.26741708133826       -1.22318213240684
H           55.44678311692977        2.33827696896434        1.20962575235687
H           57.38726639358885        4.07832471001415        1.92666680221183
H           60.49171223415760        4.86089461471240       -0.92817930055261
H           59.58423478729014        6.38016102905951       -1.03652435842689
H           58.74127356743205        4.85564439175087       -0.71142276939677
H           59.74193479631914        7.76713524521939        0.84958459645873
H           59.21838948578085        9.08817019154389        3.04729818315079
H           59.99604321807465        8.48551333339029        4.52241795204609
H           60.97895076744670        9.00056082692766        3.14365276532072
H           60.29398839055622        6.14149439462840        4.77002326763185
H           61.20619574716311        2.95925906627479        3.82647530522694
H           59.45289610658789        2.84231812306637        3.97912706979594
H           60.37570695599294        3.82540521024315        5.13045287895597
H           62.56793237342210        4.21350723933426        1.37301064683583
H           64.44018718742892        2.43025281674753        0.57941655119945
C           39.04159744282388       -0.07282264389874       -0.00853176948627
C           37.82099272082200       -0.05888813667827       -0.00708134076306
C           40.39376899285175       -0.08168047242308       -0.00810906474701
C           41.61459830758525       -0.08641886581879       -0.00792424670071
C           52.49913648345842        0.05653832314300       -0.00924343036951
C           51.27846850042568        0.05026139388097       -0.00516817700333
C           53.85152999084480        0.05511628148959       -0.01511330483240
C           55.07212547836077        0.04748310820340       -0.02203380124642
Ni          46.44656048694976       -0.03621298858070       -0.00242330470728
C           43.02212399668082       -0.07906269843484       -0.00508233389093
C           43.68873842108138        0.19332097642755        1.19166848196269
C           43.00997848103311        0.45765068183482        2.42103792987591
C           43.96513513456395        0.58121720744916        3.37378781476691
C           45.22446684895835        0.39542122370735        2.72020040066605
N           45.04462135230214        0.17661692113663        1.37347057955306
C           46.43814945804340        0.39308320951979        3.38907586790062
C           46.43448706345052        0.56643693154015        4.86934901657838
C           46.56209565935717        1.84328469838296        5.42324000768692
C           46.70020743172934        3.04235715184215        4.52348812975189
C           46.55902921304779        1.99111683279629        6.80541380190680
C           46.43058862899824        0.88730898884330        7.64194353059614
C           46.45057371871109        1.05576615464526        9.13718687040568
C           46.30407262469500       -0.37873810624983        7.07908541151036
C           46.30372289698675       -0.55035639691675        5.69997241148716
C           46.16343268138765       -1.92290382428251        5.09761068813125
C           47.65593519644680        0.23990451473185        2.74568409042259
C           48.91338950121244        0.24461970618995        3.42880621477938
C           49.87357792760344        0.15215514240409        2.47764439379471
N           47.84228060761158        0.12413065489023        1.38702953434586
C           49.19953705925948        0.08732630419428        1.21933497746564
C           49.87075258656701        0.03131051369201       -0.00399140566595
C           49.20112182050329       -0.05169261521721       -1.22674937771472
C           49.87607141268731       -0.09429383692420       -2.48554893284868
C           48.91990774437315       -0.23494272273751       -3.43487065841573
C           47.66415754158302       -0.28050680892364       -2.75017119449394
N           47.84648925083338       -0.14677276555498       -1.39265245981150
C           46.45339428547738       -0.48970410522921       -3.39100299923315
C           46.45502018424814       -0.67741348668039       -4.86951800745411
C           46.26111280296461        0.42258721406384       -5.71015441605186
C           46.05275851504518        1.79214175815102       -5.12076634391953
C           46.26137345105906        0.23721048821972       -7.08754324581193
C           46.44999107927085       -1.02607318430050       -7.63883210737665
C           46.46589012564924       -1.20978314384456       -9.13233447916149
C           46.64395421447885       -2.11276888849563       -6.79244445288316
C           46.64842386936294       -1.95097142769474       -5.41188560472644
C           46.85879594103108       -3.13151714978065       -4.50167647593974
C           45.24041846282054       -0.52795006849714       -2.72183611222473
C           43.98757321770982       -0.75663358634488       -3.37438504431185
C           43.02760449517641       -0.64211637583114       -2.42531964659039
C           43.69723870318010       -0.34533309668210       -1.19839946890771
N           45.05264218037934       -0.29807335936614       -1.37799092798411
H           41.93930009869673        0.52821963458799        2.52548256211865
H           43.84472678373658        0.77733808965810        4.42690331296085
H           47.60574737376130        2.95966235896571        3.91931230880820
H           46.75205054887026        3.96196873445005        5.10550309482663
H           45.84968975503246        3.10569060426271        3.84224999117441
H           46.65687213246223        2.98247449946677        7.23563144689392
H           47.46984869863971        0.93336756331382        9.51102430014991
H           45.82119381360796        0.30789283943209        9.62033550094515
H           46.10148270128759        2.04853293367232        9.42182312992145
H           46.20281035721389       -1.24521233919713        7.72441568846133
H           45.26076713545431       -1.97714417586350        4.48596193470217
H           47.01638065269163       -2.14377540212728        4.45327857498738
H           46.10466447414782       -2.68476634942784        5.87430829921033
H           49.02919942368545        0.31518902420834        4.49820340785702
H           50.94458341581906        0.13157475104274        2.59922648432090
H           50.94497503095621       -0.02713462697212       -2.60873770748268
H           49.03743917733473       -0.30650904754404       -4.50402073432892
H           45.13709147545453        1.81274099220527       -4.52653864528022
H           45.97647929023277        2.54550620172431       -5.90418526144364
H           46.88329865224441        2.05292740316101       -4.46236650333837
H           46.11029205798476        1.09063505386513       -7.74046683886653
H           46.14145016551764       -2.21450786897843       -9.40405633295905
H           47.47941003694636       -1.06507572118613       -9.51375367911148
H           45.81410039521000       -0.48417236377708       -9.61960846869003
H           46.79190710079688       -3.10173712672873       -7.21375186320097
H           46.93880638517806       -4.05510773253273       -5.07412275969787
H           46.02756967504556       -3.22372314003653       -3.80034046213426
H           47.77324796047994       -3.00142779180439       -3.91956828832847
H           43.87434782003370       -0.97186757306531       -4.42455930780365
H           41.95923595515863       -0.74136765402160       -2.53021375744875

          :  Hamiltonian                  GFN1-xTB          :
         :: total energy            -358.257080517016 Eh    ::
         :: gradient norm              0.000453060152 Eh/a0 ::
         :: HOMO-LUMO gap              1.188783216553 eV    ::
         :: SCC energy              -363.975361072706 Eh    ::
         :: repulsion energy           5.927702344698 Eh    ::

    * Orbital Energies and Occupations

         #    Occupation            Energy/Eh            Energy/eV
      -------------------------------------------------------------
         1        2.0000           -0.7804114             -21.2361
       ...           ...                  ...                  ...
       323        2.0000           -0.3965767             -10.7914
       324        2.0000           -0.3965589             -10.7909
       325        2.0000           -0.3959356             -10.7740
       326        2.0000           -0.3958103             -10.7705
       327        2.0000           -0.3957970             -10.7702
       328        2.0000           -0.3957382             -10.7686
       329        2.0000           -0.3947701             -10.7422
       330        2.0000           -0.3947482             -10.7416
       331        2.0000           -0.3947332             -10.7412
       332        2.0000           -0.3947115             -10.7406
       333        2.0000           -0.3912617             -10.6468
       334        2.0000           -0.3877825             -10.5521
       335        2.0000           -0.3824900             -10.4081 (HOMO)
       336                         -0.3388030              -9.2193 (LUMO)
       337                         -0.3320926              -9.0367
       338                         -0.3286379              -8.9427
       339                         -0.3284672              -8.9380
       340                         -0.3276038              -8.9146
       341                         -0.3271121              -8.9012
       342                         -0.3267960              -8.8926
       343                         -0.3261066              -8.8738
       344                         -0.3260829              -8.8732
       345                         -0.2994994              -8.1498
       346                         -0.2924630              -7.9583
       ...                                ...                  ...
       747                          1.5191341              41.3377
      -------------------------------------------------------------
                  HL-Gap            0.0436870 Eh            1.1888 eV

Wiberg/Mayer (AO) data.
largest (>0.10) Wiberg bond orders for each atom

     #   Z sym  total        # sym  WBO       # sym  WBO       # sym  WBO
 ---------------------------------------------------------------------------
     1  28 Ni   3.013 --    43 N    0.665     7 N    0.665    21 N    0.662
                            28 N    0.662
     2   6 C    3.935 --    42 C    1.364     3 C    1.364    44 H    0.970
     3   6 C    3.925 --     2 C    1.364     7 N    1.215     4 C    1.175
     4   6 C    3.960 --     5 C    1.649     3 C    1.175    45 H    0.975
     5   6 C    3.963 --     4 C    1.649     6 C    1.176    46 H    0.974
     6   6 C    3.920 --     8 C    1.329     7 N    1.218     5 C    1.176
     7   7 N    3.404 --     6 C    1.218     3 C    1.215     1 Ni   0.665
     8   6 C    3.940 --    18 C    1.334     6 C    1.329     9 C    1.004
     9   6 C    3.987 --    16 C    1.381    10 C    1.380     8 C    1.004
                            13 C    0.104
    10   6 C    3.985 --    12 C    1.421     9 C    1.380    11 C    1.020
                            15 C    0.103
    11   6 C    3.996 --    10 C    1.020    49 H    0.986    48 H    0.975
                            47 H    0.973
    12   6 C    3.993 --    10 C    1.421    13 C    1.414    50 H    0.970
                            16 C    0.103
    13   6 C    3.988 --    15 C    1.414    12 C    1.414    14 C    1.020
                             9 C    0.104
    14   6 C    3.996 --    13 C    1.020    51 H    0.983    53 H    0.983
                            52 H    0.971
    15   6 C    3.993 --    16 C    1.420    13 C    1.414    54 H    0.970
                            10 C    0.103
    16   6 C    3.985 --    15 C    1.420     9 C    1.381    17 C    1.020
                            12 C    0.103
    17   6 C    3.996 --    16 C    1.020    56 H    0.986    57 H    0.974
                            55 H    0.973
    18   6 C    3.916 --     8 C    1.334    21 N    1.204    19 C    1.182
    19   6 C    3.960 --    20 C    1.638    18 C    1.182    58 H    0.974
    20   6 C    3.962 --    19 C    1.638    22 C    1.190    59 H    0.973
    21   7 N    3.408 --    22 C    1.238    18 C    1.204     1 Ni   0.662
    22   6 C    3.908 --    23 C    1.269    21 N    1.238    20 C    1.190
    23   6 C    3.944 --    24 C    1.269    22 C    1.269   150 C    1.171
    24   6 C    3.908 --    23 C    1.269    28 N    1.238    25 C    1.190
    25   6 C    3.962 --    26 C    1.638    24 C    1.190    60 H    0.973
    26   6 C    3.960 --    25 C    1.638    27 C    1.182    61 H    0.974
    27   6 C    3.916 --    29 C    1.334    28 N    1.204    26 C    1.182
    28   7 N    3.408 --    24 C    1.238    27 C    1.204     1 Ni   0.662
    29   6 C    3.940 --    27 C    1.334    39 C    1.329    30 C    1.004
    30   6 C    3.987 --    37 C    1.384    31 C    1.377    29 C    1.004
                            34 C    0.104
    31   6 C    3.985 --    33 C    1.425    30 C    1.377    32 C    1.020
                            36 C    0.102
    32   6 C    3.996 --    31 C    1.020    63 H    0.986    62 H    0.974
                            64 H    0.973
    33   6 C    3.993 --    31 C    1.425    34 C    1.409    65 H    0.971
                            37 C    0.103
    34   6 C    3.988 --    36 C    1.419    33 C    1.409    35 C    1.020
                            30 C    0.104
    35   6 C    3.996 --    34 C    1.020    67 H    0.986    66 H    0.978
                            68 H    0.973
    36   6 C    3.993 --    34 C    1.419    37 C    1.416    69 H    0.970
                            31 C    0.102
    37   6 C    3.985 --    36 C    1.416    30 C    1.384    38 C    1.020
                            33 C    0.103
    38   6 C    3.996 --    37 C    1.020    72 H    0.986    71 H    0.975
                            70 H    0.973
    39   6 C    3.920 --    29 C    1.329    43 N    1.218    40 C    1.176
    40   6 C    3.963 --    41 C    1.649    39 C    1.176    73 H    0.974
    41   6 C    3.960 --    40 C    1.649    42 C    1.175    74 H    0.975
    42   6 C    3.925 --     2 C    1.364    43 N    1.215    41 C    1.175
    43   7 N    3.404 --    39 C    1.218    42 C    1.215     1 Ni   0.665
    44   1 H    1.000 --     2 C    0.970
    45   1 H    0.998 --     4 C    0.975
    46   1 H    1.002 --     5 C    0.974
    47   1 H    1.008 --    11 C    0.973
    48   1 H    1.007 --    11 C    0.975
    49   1 H    1.004 --    11 C    0.986
    50   1 H    1.000 --    12 C    0.970
    51   1 H    1.004 --    14 C    0.983
    52   1 H    1.006 --    14 C    0.971
    53   1 H    1.004 --    14 C    0.983
    54   1 H    1.000 --    15 C    0.970
    55   1 H    1.008 --    17 C    0.973
    56   1 H    1.004 --    17 C    0.986
    57   1 H    1.007 --    17 C    0.974
    58   1 H    1.002 --    19 C    0.974
    59   1 H    1.002 --    20 C    0.973
    60   1 H    1.002 --    25 C    0.973
    61   1 H    1.002 --    26 C    0.974
    62   1 H    1.007 --    32 C    0.974
    63   1 H    1.004 --    32 C    0.986
    64   1 H    1.008 --    32 C    0.973
    65   1 H    0.999 --    33 C    0.971
    66   1 H    1.005 --    35 C    0.978
    67   1 H    1.004 --    35 C    0.986
    68   1 H    1.006 --    35 C    0.973
    69   1 H    1.000 --    36 C    0.970
    70   1 H    1.008 --    38 C    0.973
    71   1 H    1.007 --    38 C    0.975
    72   1 H    1.004 --    38 C    0.986
    73   1 H    1.002 --    40 C    0.974
    74   1 H    0.998 --    41 C    0.975
    75  28 Ni   3.017 --   117 N    0.666    81 N    0.666    95 N    0.663
                           102 N    0.663
    76   6 C    3.935 --   116 C    1.364    77 C    1.363   118 H    0.970
    77   6 C    3.925 --    76 C    1.363    81 N    1.215    78 C    1.175
    78   6 C    3.960 --    79 C    1.649    77 C    1.175   119 H    0.975
    79   6 C    3.963 --    78 C    1.649    80 C    1.176   120 H    0.974
    80   6 C    3.920 --    82 C    1.329    81 N    1.217    79 C    1.176
    81   7 N    3.404 --    80 C    1.217    77 C    1.215    75 Ni   0.666
    82   6 C    3.940 --    92 C    1.333    80 C    1.329    83 C    1.004
    83   6 C    3.987 --    84 C    1.381    90 C    1.380    82 C    1.004
                            87 C    0.104
    84   6 C    3.985 --    86 C    1.420    83 C    1.381    85 C    1.020
                            89 C    0.103
    85   6 C    3.996 --    84 C    1.020   123 H    0.986   122 H    0.975
                           121 H    0.973
    86   6 C    3.993 --    84 C    1.420    87 C    1.414   124 H    0.970
                            90 C    0.103
    87   6 C    3.988 --    86 C    1.414    89 C    1.414    88 C    1.020
                            83 C    0.104
    88   6 C    3.996 --    87 C    1.020   127 H    0.983   125 H    0.983
                           126 H    0.971
    89   6 C    3.993 --    90 C    1.421    87 C    1.414   128 H    0.970
                            84 C    0.103
    90   6 C    3.985 --    89 C    1.421    83 C    1.380    91 C    1.021
                            86 C    0.103
    91   6 C    3.996 --    90 C    1.021   130 H    0.986   131 H    0.974
                           129 H    0.973
    92   6 C    3.916 --    82 C    1.333    95 N    1.204    93 C    1.182
    93   6 C    3.961 --    94 C    1.638    92 C    1.182   132 H    0.974
    94   6 C    3.962 --    93 C    1.638    96 C    1.190   133 H    0.973
    95   7 N    3.408 --    96 C    1.237    92 C    1.204    75 Ni   0.663
    96   6 C    3.909 --    97 C    1.269    95 N    1.237    94 C    1.190
    97   6 C    3.945 --    98 C    1.269    96 C    1.269   156 C    1.170
    98   6 C    3.909 --    97 C    1.269   102 N    1.237    99 C    1.190
    99   6 C    3.962 --   100 C    1.638    98 C    1.190   134 H    0.973
   100   6 C    3.961 --    99 C    1.638   101 C    1.182   135 H    0.974
   101   6 C    3.916 --   103 C    1.334   102 N    1.204   100 C    1.182
   102   7 N    3.408 --    98 C    1.237   101 C    1.204    75 Ni   0.663
   103   6 C    3.940 --   101 C    1.334   113 C    1.329   104 C    1.004
   104   6 C    3.987 --   111 C    1.384   105 C    1.377   103 C    1.004
                           108 C    0.104
   105   6 C    3.985 --   107 C    1.425   104 C    1.377   106 C    1.020
                           110 C    0.102
   106   6 C    3.996 --   105 C    1.020   137 H    0.986   136 H    0.974
                           138 H    0.973
   107   6 C    3.993 --   105 C    1.425   108 C    1.409   139 H    0.971
                           111 C    0.103
   108   6 C    3.988 --   110 C    1.419   107 C    1.409   109 C    1.020
                           104 C    0.104
   109   6 C    3.996 --   108 C    1.020   141 H    0.985   140 H    0.978
                           142 H    0.973
   110   6 C    3.993 --   108 C    1.419   111 C    1.416   143 H    0.970
                           105 C    0.102
   111   6 C    3.985 --   110 C    1.416   104 C    1.384   112 C    1.020
                           107 C    0.103
   112   6 C    3.996 --   111 C    1.020   146 H    0.986   145 H    0.975
                           144 H    0.973
   113   6 C    3.920 --   103 C    1.329   117 N    1.218   114 C    1.176
   114   6 C    3.963 --   115 C    1.650   113 C    1.176   147 H    0.974
   115   6 C    3.960 --   114 C    1.650   116 C    1.175   148 H    0.975
   116   6 C    3.925 --    76 C    1.364   117 N    1.214   115 C    1.175
   117   7 N    3.404 --   113 C    1.218   116 C    1.214    75 Ni   0.666
   118   1 H    1.000 --    76 C    0.970
   119   1 H    0.998 --    78 C    0.975
   120   1 H    1.002 --    79 C    0.974
   121   1 H    1.008 --    85 C    0.973
   122   1 H    1.007 --    85 C    0.975
   123   1 H    1.004 --    85 C    0.986
   124   1 H    1.000 --    86 C    0.970
   125   1 H    1.004 --    88 C    0.983
   126   1 H    1.006 --    88 C    0.971
   127   1 H    1.004 --    88 C    0.983
   128   1 H    1.000 --    89 C    0.970
   129   1 H    1.008 --    91 C    0.973
   130   1 H    1.004 --    91 C    0.986
   131   1 H    1.007 --    91 C    0.974
   132   1 H    1.002 --    93 C    0.974
   133   1 H    1.002 --    94 C    0.973
   134   1 H    1.002 --    99 C    0.973
   135   1 H    1.002 --   100 C    0.974
   136   1 H    1.007 --   106 C    0.974
   137   1 H    1.004 --   106 C    0.986
   138   1 H    1.008 --   106 C    0.973
   139   1 H    0.999 --   107 C    0.971
   140   1 H    1.005 --   109 C    0.978
   141   1 H    1.004 --   109 C    0.985
   142   1 H    1.006 --   109 C    0.973
   143   1 H    1.000 --   110 C    0.970
   144   1 H    1.008 --   112 C    0.973
   145   1 H    1.007 --   112 C    0.975
   146   1 H    1.004 --   112 C    0.986
   147   1 H    1.002 --   114 C    0.974
   148   1 H    0.998 --   115 C    0.975
   149   6 C    3.937 --   150 C    2.493   151 C    1.294
   150   6 C    3.922 --   149 C    2.493    23 C    1.171   152 C    0.198
   151   6 C    3.935 --   152 C    2.492   149 C    1.294
   152   6 C    3.923 --   151 C    2.492   158 C    1.173   150 C    0.198
   153   6 C    3.934 --   154 C    2.493   155 C    1.293
   154   6 C    3.923 --   153 C    2.493   179 C    1.172   156 C    0.198
   155   6 C    3.937 --   156 C    2.494   153 C    1.293
   156   6 C    3.922 --   155 C    2.494    97 C    1.170   154 C    0.198
   157  28 Ni   3.006 --   163 N    0.662   177 N    0.662   199 N    0.662
                           184 N    0.662
   158   6 C    3.936 --   159 C    1.267   198 C    1.267   152 C    1.173
   159   6 C    3.908 --   158 C    1.267   163 N    1.238   160 C    1.191
   160   6 C    3.960 --   161 C    1.636   159 C    1.191   200 H    0.973
   161   6 C    3.961 --   160 C    1.636   162 C    1.183   201 H    0.974
   162   6 C    3.914 --   164 C    1.331   163 N    1.204   161 C    1.183
   163   7 N    3.402 --   159 C    1.238   162 C    1.204   157 Ni   0.662
   164   6 C    3.936 --   174 C    1.331   162 C    1.331   165 C    1.003
   165   6 C    3.987 --   166 C    1.381   172 C    1.380   164 C    1.003
                           169 C    0.104
   166   6 C    3.985 --   168 C    1.420   165 C    1.381   167 C    1.020
                           171 C    0.103
   167   6 C    3.996 --   166 C    1.020   203 H    0.986   204 H    0.974
                           202 H    0.973
   168   6 C    3.993 --   166 C    1.420   169 C    1.415   205 H    0.970
                           172 C    0.103
   169   6 C    3.988 --   168 C    1.415   171 C    1.413   170 C    1.020
                           165 C    0.104
   170   6 C    3.996 --   169 C    1.020   208 H    0.983   207 H    0.982
                           206 H    0.971
   171   6 C    3.993 --   172 C    1.421   169 C    1.413   209 H    0.970
                           166 C    0.103
   172   6 C    3.985 --   171 C    1.421   165 C    1.380   173 C    1.021
                           168 C    0.103
   173   6 C    3.996 --   172 C    1.021   212 H    0.986   211 H    0.974
                           210 H    0.973
   174   6 C    3.914 --   164 C    1.331   177 N    1.204   175 C    1.183
   175   6 C    3.961 --   176 C    1.636   174 C    1.183   213 H    0.974
   176   6 C    3.960 --   175 C    1.636   178 C    1.191   214 H    0.973
   177   7 N    3.402 --   178 C    1.238   174 C    1.204   157 Ni   0.662
   178   6 C    3.909 --   179 C    1.268   177 N    1.238   176 C    1.191
   179   6 C    3.936 --   178 C    1.268   180 C    1.267   154 C    1.172
   180   6 C    3.909 --   179 C    1.267   184 N    1.238   181 C    1.191
   181   6 C    3.960 --   182 C    1.636   180 C    1.191   215 H    0.973
   182   6 C    3.961 --   181 C    1.636   183 C    1.183   216 H    0.974
   183   6 C    3.914 --   185 C    1.331   184 N    1.204   182 C    1.183
   184   7 N    3.402 --   180 C    1.238   183 C    1.204   157 Ni   0.662
   185   6 C    3.936 --   183 C    1.331   195 C    1.331   186 C    1.004
   186   6 C    3.987 --   193 C    1.381   187 C    1.380   185 C    1.004
                           190 C    0.104
   187   6 C    3.985 --   189 C    1.421   186 C    1.380   188 C    1.021
                           192 C    0.103
   188   6 C    3.996 --   187 C    1.021   218 H    0.986   219 H    0.975
                           217 H    0.973
   189   6 C    3.993 --   187 C    1.421   190 C    1.413   220 H    0.970
                           193 C    0.103
   190   6 C    3.988 --   192 C    1.414   189 C    1.413   191 C    1.020
                           186 C    0.104
   191   6 C    3.996 --   190 C    1.020   221 H    0.983   223 H    0.983
                           222 H    0.971
   192   6 C    3.993 --   193 C    1.420   190 C    1.414   224 H    0.970
                           187 C    0.103
   193   6 C    3.985 --   192 C    1.420   186 C    1.381   194 C    1.020
                           189 C    0.103
   194   6 C    3.996 --   193 C    1.020   225 H    0.986   226 H    0.975
                           227 H    0.973
   195   6 C    3.913 --   185 C    1.331   199 N    1.203   196 C    1.183
   196   6 C    3.961 --   197 C    1.636   195 C    1.183   228 H    0.974
   197   6 C    3.960 --   196 C    1.636   198 C    1.191   229 H    0.973
   198   6 C    3.908 --   158 C    1.267   199 N    1.238   197 C    1.191
   199   7 N    3.402 --   198 C    1.238   195 C    1.203   157 Ni   0.662
   200   1 H    1.002 --   160 C    0.973
   201   1 H    1.002 --   161 C    0.974
   202   1 H    1.008 --   167 C    0.973
   203   1 H    1.004 --   167 C    0.986
   204   1 H    1.007 --   167 C    0.974
   205   1 H    1.000 --   168 C    0.970
   206   1 H    1.006 --   170 C    0.971
   207   1 H    1.004 --   170 C    0.982
   208   1 H    1.004 --   170 C    0.983
   209   1 H    1.000 --   171 C    0.970
   210   1 H    1.008 --   173 C    0.973
   211   1 H    1.007 --   173 C    0.974
   212   1 H    1.004 --   173 C    0.986
   213   1 H    1.002 --   175 C    0.974
   214   1 H    1.002 --   176 C    0.973
   215   1 H    1.002 --   181 C    0.973
   216   1 H    1.002 --   182 C    0.974
   217   1 H    1.008 --   188 C    0.973
   218   1 H    1.004 --   188 C    0.986
   219   1 H    1.007 --   188 C    0.975
   220   1 H    1.000 --   189 C    0.970
   221   1 H    1.004 --   191 C    0.983
   222   1 H    1.006 --   191 C    0.971
   223   1 H    1.004 --   191 C    0.983
   224   1 H    1.000 --   192 C    0.970
   225   1 H    1.004 --   194 C    0.986
   226   1 H    1.007 --   194 C    0.975
   227   1 H    1.008 --   194 C    0.973
   228   1 H    1.002 --   196 C    0.974
   229   1 H    1.002 --   197 C    0.973
 ---------------------------------------------------------------------------

           -------------------------------------------------
          | TOTAL ENERGY             -358.257080517016 Eh   |
          | GRADIENT NORM               0.000453060152 Eh/α |
          | HOMO-LUMO GAP               1.188783216553 eV   |
           -------------------------------------------------

 * finished run on 2022/07/30 at 05:37:18.533
