   * xtb version 6.5.1 (b24c23e) compiled by 'conda@728c89f4b128' on 2022-07-12
          program call               : xtb Cu_NMA_C2_2.xyz --gfn 1 --opt -T 48

   ID    Z sym.   atoms
    1   29 Cu     1, 67
    2    6 C      2-6, 8-12, 14-19, 21-26, 28-32, 34-40, 68-72, 74-78, 80-85,
                  87-92, 94-98, 100-106, 133, 134
    3    7 N      7, 13, 20, 27, 33, 41, 73, 79, 86, 93, 99, 107
    4    1 H      42-66, 108-132
########################################################################
[WARNING] Please study the warnings concerning your input carefully
-1- prog_main_parseArguments: Unknown option '-T' provided
########################################################################

          :  Hamiltonian                  GFN1-xTB          :
 * total energy  :  -207.1449214 Eh     change       -0.1763823E-08 Eh
 * total energy  :  -218.9969908 Eh     change       -0.1185207E+02 Eh
 * total energy  :  -219.9618657 Eh     change       -0.9648749E+00 Eh
 * total energy  :  -220.7031377 Eh     change       -0.7412721E+00 Eh
 * total energy  :  -221.0774734 Eh     change       -0.3743357E+00 Eh
 * total energy  :  -221.3095634 Eh     change       -0.2320900E+00 Eh
 * total energy  :  -221.4737603 Eh     change       -0.1641970E+00 Eh
 * total energy  :  -221.6097098 Eh     change       -0.1359495E+00 Eh
 * total energy  :  -221.7295121 Eh     change       -0.1198023E+00 Eh
 * total energy  :  -221.8328809 Eh     change       -0.1033688E+00 Eh
 * total energy  :  -222.2551349 Eh     change       -0.4704811E-04 Eh
 * total energy  :  -222.2551830 Eh     change       -0.4803147E-04 Eh
 * total energy  :  -222.2552305 Eh     change       -0.4751855E-04 Eh
 * total energy  :  -222.2552724 Eh     change       -0.4195870E-04 Eh
 * total energy  :  -222.2553020 Eh     change       -0.2955555E-04 Eh
 * total energy  :  -222.2553220 Eh     change       -0.1998292E-04 Eh
 * total energy  :  -222.2553353 Eh     change       -0.1333085E-04 Eh
 * total energy  :  -222.2553489 Eh     change       -0.1359190E-04 Eh
 * total energy  :  -222.2553534 Eh     change       -0.4519935E-05 Eh
   *** GEOMETRY OPTIMIZATION CONVERGED AFTER 68 ITERATIONS ***

 final structure:
================
134
 xtb: 6.5.1 (b24c23e)
Cu          18.87112219366647        0.04659871276207       -0.01129000220651
C           15.46385602558517        0.07478248060042       -0.02129162419784
C           16.09425114913789        1.00015468668172        0.79770516938224
C           15.41880453841610        1.89786919986495        1.68940162970708
C           16.37517104196558        2.64367366462615        2.29775136524798
C           17.64273145891044        2.22105645666551        1.76762628189785
N           17.44172195794661        1.21249980353665        0.87029148905282
C           18.88362598615336        2.76754762074093        2.11044720794978
C           18.89140034607058        3.92297331621903        3.03679434734500
C           18.19382763137030        5.09497024271514        2.72986780886663
C           18.19076166785172        6.16589808509083        3.60336896825334
C           18.87677192358882        6.09255390368726        4.82196936419734
N           18.87812932143839        7.20838026321351        5.64673612545386
C           19.13492721001667        7.05079792541029        7.07194029872054
C           19.58552433438023        4.92763515850675        5.12927701202343
C           19.59023643249802        3.86301875960402        4.24421858363092
C           20.11597287713287        2.30032913449092        1.64467249123173
C           21.37864840305337        2.93574269464441        1.89004529470623
C           22.32959691812289        2.17729539152351        1.28677504636572
N           20.31730920147052        1.17859296389054        0.88442802717117
C           21.65816967616967        1.07393074425163        0.67057448572353
C           22.30433094097213        0.02747844207626       -0.01329623904076
C           21.64516509961294       -1.01541384857689       -0.69036540092500
C           22.30339594112105       -2.13391642245666       -1.29311805666586
C           21.34307407345183       -2.89032757136574       -1.88381627983328
C           20.08810108128695       -2.23629750959621       -1.64763754869966
N           20.30312625228065       -1.10714197627541       -0.90203600148120
C           18.85020958269989       -2.69249737306097       -2.10996380755495
C           18.84486613011364       -3.86845025001653       -3.00966542690442
C           19.56204726334855       -3.85523555572058       -4.20784051028932
C           19.55852303436060       -4.94793911677213       -5.05787642990184
C           18.83128898966678       -6.09413399527779       -4.72434447604577
N           18.83751046277686       -7.23770755465226       -5.51016945603713
C           19.11975803698967       -7.13003531399879       -6.93534188091346
C           18.12121832979307       -6.11823113689367       -3.51772774521047
C           18.12435342675882       -5.01999502155660       -2.67890961935453
C           17.61689280190427       -2.12050729238599       -1.78138541399913
C           16.34585493343629       -2.52543920553093       -2.31676095565667
C           15.39876103213532       -1.75629815944854       -1.72299546854617
C           16.08368068886557       -0.86364980463894       -0.83347452699781
N           17.42773336376864       -1.10000753795555       -0.89516734337108
H           14.37858013052909        0.08421244444638       -0.02495628153051
H           14.35037691894134        1.93189411158898        1.83501910301159
H           16.23998157496536        3.40376765981388        3.05047048920719
H           17.66555558503408        5.17071488300250        1.78565728703801
H           17.65318757658215        7.07308319856740        3.34786064696274
H           18.09952169778433        7.82987284511484        5.46317019438202
H           20.17186032949350        6.75458505075862        7.23448764457169
H           18.47149467341248        6.30297794166198        7.52145189793517
H           18.96866372357247        8.01492021641044        7.55246161821960
H           20.13443273544511        4.84435699824179        6.05928760513701
H           20.12764244988364        2.95722526034192        4.50370594154804
H           21.51480964153455        3.85767863216618        2.43199045779315
H           23.39190572364576        2.35373810938196        1.24582208452839
H           23.36354701746128       -2.32243540180129       -1.25036309022707
H           21.46887516736465       -3.82200583853517       -2.41130597900357
H           20.11499894157110       -2.96494823930342       -4.48753344719585
H           20.12446613662616       -4.90229519639246       -5.98026349162540
H           18.05080423609529       -7.84654714441091       -5.31883291771251
H           18.48189167617622       -6.38016115354298       -7.41728187494978
H           18.93685124900717       -8.10401246132762       -7.38932424067880
H           20.16620751027989       -6.86405596295337       -7.09028345758145
H           17.56685369772603       -7.00950468177937       -3.24282802780734
H           17.57932304514421       -5.05855633921187       -1.74199810164864
H           16.20275676495563       -3.28990119192737       -3.06360194327865
H           14.33095109854946       -1.77237171325561       -1.87604272647999
Cu          29.77424989588008        0.00105147457372       -0.04817373332580
C           33.18150605265592        0.00444388817782       -0.07759330264739
C           32.55110819373687       -0.99676227859976       -0.80192295624184
C           33.22655076581582       -2.06288444428395       -1.48339333135179
C           32.27018524893237       -2.81930025610603       -2.07849856551380
C           31.00263001686663       -2.20969581826030       -1.78179616250100
N           31.20364066238168       -1.11388972720101       -0.99337432586113
C           29.76174404146908       -2.66346126953318       -2.24037499592000
C           29.75397626326366       -3.81959336856812       -3.16583853548407
C           30.45162273926671       -3.77582636216379       -4.37652619174298
C           30.45469411566642       -4.86196003415659       -5.23104686047562
C           29.76861522654336       -6.03516348099982       -4.89360628255562
N           29.76726329543031       -7.08353629031637       -5.80256839766514
C           29.51039131697195       -8.44000212934196       -5.33780965770667
C           29.05979128593425       -6.08084650082090       -3.68974261510106
C           29.05507349612354       -4.98481148129618       -2.84390556015843
C           28.52939732958552       -2.10694307197627       -1.88607502664919
C           27.26672979545129       -2.48500706109706       -2.45268405147134
C           26.31577815334713       -1.73079594891573       -1.84413209320562
N           28.32806016814567       -1.12025631463281       -0.95725328500479
C           26.98719851285755       -0.88872920855863       -0.90176874687473
C           26.34103232351815        0.00697569901592       -0.02973074526821
C           27.00019562668056        0.89526269740314        0.84032379313335
C           26.34196586325632        1.72753385479836        1.80036809553090
C           27.30228554327283        2.46905673040070        2.40965674993864
C           28.55725715685056        2.09587649732969        1.82290677997899
N           28.34223020902502        1.12188039718048        0.88362795204857
C           29.79514368493918        2.64663830965768        2.16720143299613
C           29.80048249924423        3.78125558786556        3.11850189787204
C           29.08327434146087        4.94766448786316        2.84418315791666
C           29.08678779112469        6.01563724727353        3.72509026375614
C           29.81403582276887        5.94024309260648        4.91643492979141
N           29.80779937994673        6.95664821376824        5.86099959769727
C           29.52554755509668        8.32398943310794        5.44496309089838
C           30.52413597177399        4.76797181160910        5.20321322021139
C           30.52101397164657        3.70974100983998        4.31445825728834
C           31.02846098170975        2.20118321269452        1.68067742605189
C           32.29949267332907        2.81204241420369        1.95899858506657
C           33.24659117930693        2.06474747750987        1.33796877814384
C           32.56167927675311        1.00185387304412        0.66096368164567
N           31.21762531235624        1.11364314743339        0.87814596639243
H           34.26678207632413        0.00595534202697       -0.08758586756471
H           34.29497419919165       -2.21244421264438       -1.48478587616569
H           32.40537225636655       -3.71975000476955       -2.65601010463292
H           30.97994725719471       -2.87091764247052       -4.65644743412875
H           30.99232592611533       -4.81058324180700       -6.17209294949004
H           30.54587330959708       -7.04003088702175       -6.44913315331227
H           28.47342480329076       -8.53397440033367       -5.01336495073664
H           30.17373629925953       -8.71551225665322       -4.50985728199347
H           29.67672150459845       -9.11933165732995       -6.17382395251395
H           28.51083150151762       -6.97025370049851       -3.40557107600963
H           28.51761278922140       -5.04037586805242       -1.90334748359890
H           27.13057550971723       -3.21502271967370       -3.23418866244363
H           25.25347248097554       -1.72930928957428       -2.02528016907039
H           25.28181596904826        1.72693466550587        1.99368047454716
H           27.17648441465387        3.18712847580634        3.20378679717577
H           28.53031010471552        5.02635525489396        1.91432624021550
H           28.52082410656165        6.90583086880296        3.47929800628348
H           30.59450283855274        6.90276898801003        6.49692137795534
H           30.16341314538559        8.63070365311295        4.60800136013446
H           29.70845347324076        8.97954623398814        6.29641897288272
H           28.47909758676068        8.41716176826846        5.15158592593981
H           31.07851188592664        4.69417257515088        6.13298710412189
H           31.06606686514081        2.80382820434760        4.55650771466852
H           32.44258294660948        3.70771822086406        2.54204305727907
H           34.31439860406971        2.21762985819281        1.32024212082303
C           23.71381916273133        0.02014895131390       -0.01779490395041
C           24.93154418095568        0.01296027770072       -0.02356269398102

          :  Hamiltonian                  GFN1-xTB          :
         :: total energy            -222.255353417986 Eh    ::
         :: gradient norm              0.000333167478 Eh/a0 ::
         :: HOMO-LUMO gap              0.015286186600 eV    ::
         :: SCC energy              -225.591327369978 Eh    ::
         :: repulsion energy           3.452534488670 Eh    ::

    * Orbital Energies and Occupations

         #    Occupation            Energy/Eh            Energy/eV
      -------------------------------------------------------------
         1        2.0000           -0.7759459             -21.1146
       ...           ...                  ...                  ...
       194        2.0000           -0.3968118             -10.7978
       195        2.0000           -0.3967439             -10.7960
       196        2.0000           -0.3967433             -10.7959
       197        2.0000           -0.3967190             -10.7953
       198        2.0000           -0.3946554             -10.7391
       199        2.0000           -0.3908230             -10.6348
       200        2.0000           -0.3884931             -10.5714
       201        2.0000           -0.3884902             -10.5714
       202        2.0000           -0.3841830             -10.4542
       203        2.0000           -0.3841606             -10.4535
       204        2.0000           -0.3785340             -10.3004
       205        2.0000           -0.3673676              -9.9966
       206        1.1468           -0.3442073              -9.3664 (HOMO)
       207        0.8532           -0.3436455              -9.3511 (LUMO)
       208                         -0.3270150              -8.8985
       209                         -0.3158505              -8.5947
       210                         -0.3158425              -8.5945
       211                         -0.3099201              -8.4334
       212                         -0.2851518              -7.7594
       213                         -0.2759293              -7.5084
       214                         -0.2530500              -6.8858
       215                         -0.2530474              -6.8858
       216                         -0.2530141              -6.8849
       217                         -0.2530107              -6.8848
       ...                                ...                  ...
       446                          1.3478843              36.6778
      -------------------------------------------------------------
                  HL-Gap            0.0005618 Eh            0.0153 eV

Wiberg/Mayer (AO) data.
largest (>0.10) Wiberg bond orders for each atom

     #   Z sym  total        # sym  WBO       # sym  WBO       # sym  WBO
 ---------------------------------------------------------------------------
     1  29 Cu   2.181 --    41 N    0.502     7 N    0.502    20 N    0.500
                            27 N    0.500
     2   6 C    3.925 --    40 C    1.360     3 C    1.360    42 H    0.971
     3   6 C    3.919 --     2 C    1.360     7 N    1.229     4 C    1.174
     4   6 C    3.954 --     5 C    1.651     3 C    1.174    43 H    0.976
     5   6 C    3.958 --     4 C    1.651     6 C    1.175    44 H    0.973
     6   6 C    3.912 --     8 C    1.313     7 N    1.242     5 C    1.175
     7   7 N    3.240 --     6 C    1.242     3 C    1.229     1 Cu   0.502
     8   6 C    3.932 --    17 C    1.321     6 C    1.313     9 C    1.038
     9   6 C    3.988 --    16 C    1.383    10 C    1.373     8 C    1.038
    10   6 C    3.987 --    11 C    1.476     9 C    1.373    45 H    0.972
    11   6 C    3.989 --    10 C    1.476    12 C    1.345    46 H    0.971
    12   6 C    3.951 --    15 C    1.354    11 C    1.345    13 N    1.108
    13   7 N    3.178 --    12 C    1.108    14 C    0.972    47 H    0.931
    14   6 C    3.968 --    50 H    0.990    48 H    0.986    49 H    0.984
                            13 N    0.972
    15   6 C    3.990 --    16 C    1.465    12 C    1.354    51 H    0.970
    16   6 C    3.987 --    15 C    1.465     9 C    1.383    52 H    0.972
    17   6 C    3.908 --     8 C    1.321    20 N    1.224    18 C    1.183
    18   6 C    3.955 --    19 C    1.637    17 C    1.183    53 H    0.973
    19   6 C    3.956 --    18 C    1.637    21 C    1.190    54 H    0.969
    20   7 N    3.243 --    21 C    1.256    17 C    1.224     1 Cu   0.500
    21   6 C    3.903 --    22 C    1.260    20 N    1.256    19 C    1.190
    22   6 C    3.934 --    21 C    1.260    23 C    1.259   133 C    1.182
    23   6 C    3.903 --    22 C    1.259    27 N    1.256    24 C    1.190
    24   6 C    3.956 --    25 C    1.637    23 C    1.190    55 H    0.969
    25   6 C    3.955 --    24 C    1.637    26 C    1.183    56 H    0.973
    26   6 C    3.908 --    28 C    1.321    27 N    1.224    25 C    1.183
    27   7 N    3.243 --    23 C    1.256    26 C    1.224     1 Cu   0.500
    28   6 C    3.932 --    26 C    1.321    37 C    1.313    29 C    1.039
    29   6 C    3.988 --    30 C    1.382    36 C    1.372    28 C    1.039
    30   6 C    3.987 --    31 C    1.465    29 C    1.382    57 H    0.972
    31   6 C    3.989 --    30 C    1.465    32 C    1.354    58 H    0.970
    32   6 C    3.951 --    31 C    1.354    35 C    1.345    33 N    1.108
    33   7 N    3.177 --    32 C    1.108    34 C    0.972    59 H    0.931
    34   6 C    3.968 --    61 H    0.990    62 H    0.986    60 H    0.984
                            33 N    0.972
    35   6 C    3.989 --    36 C    1.477    32 C    1.345    63 H    0.971
    36   6 C    3.987 --    35 C    1.477    29 C    1.372    64 H    0.972
    37   6 C    3.912 --    28 C    1.313    41 N    1.242    38 C    1.176
    38   6 C    3.958 --    39 C    1.650    37 C    1.176    65 H    0.973
    39   6 C    3.954 --    38 C    1.650    40 C    1.174    66 H    0.976
    40   6 C    3.919 --     2 C    1.360    41 N    1.229    39 C    1.174
    41   7 N    3.240 --    37 C    1.242    40 C    1.229     1 Cu   0.502
    42   1 H    1.002 --     2 C    0.971
    43   1 H    0.998 --     4 C    0.976
    44   1 H    1.006 --     5 C    0.973
    45   1 H    1.006 --    10 C    0.972
    46   1 H    0.999 --    11 C    0.971
    47   1 H    0.966 --    13 N    0.931
    48   1 H    1.012 --    14 C    0.986
    49   1 H    1.003 --    14 C    0.984
    50   1 H    1.007 --    14 C    0.990
    51   1 H    1.001 --    15 C    0.970
    52   1 H    1.006 --    16 C    0.972
    53   1 H    1.005 --    18 C    0.973
    54   1 H    1.006 --    19 C    0.969
    55   1 H    1.006 --    24 C    0.969
    56   1 H    1.005 --    25 C    0.973
    57   1 H    1.006 --    30 C    0.972
    58   1 H    1.001 --    31 C    0.970
    59   1 H    0.966 --    33 N    0.931
    60   1 H    1.003 --    34 C    0.984
    61   1 H    1.007 --    34 C    0.990
    62   1 H    1.012 --    34 C    0.986
    63   1 H    0.999 --    35 C    0.971
    64   1 H    1.006 --    36 C    0.972
    65   1 H    1.006 --    38 C    0.973
    66   1 H    0.998 --    39 C    0.976
    67  29 Cu   2.181 --   107 N    0.502    73 N    0.502    86 N    0.500
                            93 N    0.500
    68   6 C    3.925 --   106 C    1.360    69 C    1.360   108 H    0.971
    69   6 C    3.919 --    68 C    1.360    73 N    1.229    70 C    1.174
    70   6 C    3.954 --    71 C    1.651    69 C    1.174   109 H    0.976
    71   6 C    3.958 --    70 C    1.651    72 C    1.175   110 H    0.973
    72   6 C    3.912 --    74 C    1.313    73 N    1.242    71 C    1.175
    73   7 N    3.240 --    72 C    1.242    69 C    1.229    67 Cu   0.502
    74   6 C    3.932 --    83 C    1.321    72 C    1.313    75 C    1.038
    75   6 C    3.988 --    82 C    1.383    76 C    1.373    74 C    1.038
    76   6 C    3.987 --    77 C    1.476    75 C    1.373   111 H    0.972
    77   6 C    3.989 --    76 C    1.476    78 C    1.345   112 H    0.971
    78   6 C    3.951 --    81 C    1.354    77 C    1.345    79 N    1.108
    79   7 N    3.178 --    78 C    1.108    80 C    0.972   113 H    0.931
    80   6 C    3.968 --   116 H    0.990   114 H    0.986   115 H    0.984
                            79 N    0.972
    81   6 C    3.990 --    82 C    1.465    78 C    1.354   117 H    0.970
    82   6 C    3.987 --    81 C    1.465    75 C    1.383   118 H    0.972
    83   6 C    3.908 --    74 C    1.321    86 N    1.224    84 C    1.183
    84   6 C    3.955 --    85 C    1.637    83 C    1.183   119 H    0.973
    85   6 C    3.956 --    84 C    1.637    87 C    1.190   120 H    0.969
    86   7 N    3.243 --    87 C    1.256    83 C    1.224    67 Cu   0.500
    87   6 C    3.903 --    88 C    1.260    86 N    1.256    85 C    1.190
    88   6 C    3.934 --    87 C    1.260    89 C    1.259   134 C    1.182
    89   6 C    3.903 --    88 C    1.259    93 N    1.256    90 C    1.190
    90   6 C    3.956 --    91 C    1.637    89 C    1.190   121 H    0.969
    91   6 C    3.955 --    90 C    1.637    92 C    1.183   122 H    0.973
    92   6 C    3.908 --    94 C    1.321    93 N    1.224    91 C    1.183
    93   7 N    3.243 --    89 C    1.256    92 C    1.224    67 Cu   0.500
    94   6 C    3.932 --    92 C    1.321   103 C    1.313    95 C    1.039
    95   6 C    3.988 --    96 C    1.382   102 C    1.372    94 C    1.039
    96   6 C    3.987 --    97 C    1.465    95 C    1.382   123 H    0.972
    97   6 C    3.989 --    96 C    1.465    98 C    1.354   124 H    0.970
    98   6 C    3.951 --    97 C    1.354   101 C    1.345    99 N    1.108
    99   7 N    3.177 --    98 C    1.108   100 C    0.972   125 H    0.931
   100   6 C    3.968 --   127 H    0.990   128 H    0.986   126 H    0.984
                            99 N    0.972
   101   6 C    3.989 --   102 C    1.477    98 C    1.345   129 H    0.971
   102   6 C    3.987 --   101 C    1.477    95 C    1.372   130 H    0.972
   103   6 C    3.912 --    94 C    1.313   107 N    1.242   104 C    1.176
   104   6 C    3.958 --   105 C    1.650   103 C    1.176   131 H    0.973
   105   6 C    3.954 --   104 C    1.650   106 C    1.174   132 H    0.976
   106   6 C    3.919 --    68 C    1.360   107 N    1.229   105 C    1.174
   107   7 N    3.240 --   103 C    1.242   106 C    1.229    67 Cu   0.502
   108   1 H    1.002 --    68 C    0.971
   109   1 H    0.998 --    70 C    0.976
   110   1 H    1.006 --    71 C    0.973
   111   1 H    1.006 --    76 C    0.972
   112   1 H    0.999 --    77 C    0.971
   113   1 H    0.966 --    79 N    0.931
   114   1 H    1.012 --    80 C    0.986
   115   1 H    1.003 --    80 C    0.984
   116   1 H    1.007 --    80 C    0.990
   117   1 H    1.001 --    81 C    0.970
   118   1 H    1.006 --    82 C    0.972
   119   1 H    1.005 --    84 C    0.973
   120   1 H    1.006 --    85 C    0.969
   121   1 H    1.006 --    90 C    0.969
   122   1 H    1.005 --    91 C    0.973
   123   1 H    1.006 --    96 C    0.972
   124   1 H    1.001 --    97 C    0.970
   125   1 H    0.966 --    99 N    0.931
   126   1 H    1.003 --   100 C    0.984
   127   1 H    1.007 --   100 C    0.990
   128   1 H    1.012 --   100 C    0.986
   129   1 H    0.999 --   101 C    0.971
   130   1 H    1.006 --   102 C    0.972
   131   1 H    1.006 --   104 C    0.973
   132   1 H    0.998 --   105 C    0.976
   133   6 C    3.934 --   134 C    2.575    22 C    1.182
   134   6 C    3.934 --   133 C    2.575    88 C    1.182
 ---------------------------------------------------------------------------

           -------------------------------------------------
          | TOTAL ENERGY             -222.255353417986 Eh   |
          | GRADIENT NORM               0.000333167478 Eh/α |
          | HOMO-LUMO GAP               0.015286186600 eV   |
           -------------------------------------------------

 * finished run on 2022/07/30 at 05:38:26.377
