   * xtb version 6.5.1 (b24c23e) compiled by 'conda@728c89f4b128' on 2022-07-12
          program call               : xtb H_C2_5.xyz --gfn 1 --opt -T 48

   ID    Z sym.   atoms
    1    6 C      1-5, 7-10, 12-17, 19-23, 38-42, 44-47, 49-54, 56-60, 75-87,
                  89-92, 94-99, 101-105, 119-123, 125-128, 130-135, 137-141,
                  155-159, 161-164, 166-171, 173-177
    2    7 N      6, 11, 18, 24, 43, 48, 55, 61, 88, 93, 100, 106, 124, 129,
                  136, 142, 160, 165, 172, 178
    3    1 H      25-37, 62-74, 107-118, 143-154, 179-190

          :  Hamiltonian                  GFN1-xTB          :
 * total energy  :  -324.3581277 Eh     change       -0.4473065E-08 Eh
 * total energy  :  -324.5603547 Eh     change       -0.2022270E+00 Eh
 * total energy  :  -324.6940795 Eh     change       -0.1337248E+00 Eh
 * total energy  :  -324.7335375 Eh     change       -0.3945804E-01 Eh
 * total energy  :  -324.7563117 Eh     change       -0.2277418E-01 Eh
 * total energy  :  -324.7693084 Eh     change       -0.1299674E-01 Eh
 * total energy  :  -324.7797138 Eh     change       -0.1040543E-01 Eh
 * total energy  :  -324.7932336 Eh     change       -0.1351977E-01 Eh
 * total energy  :  -324.8111233 Eh     change       -0.1788972E-01 Eh
 * total energy  :  -324.8369028 Eh     change       -0.2577945E-01 Eh
 * total energy  :  -325.2189308 Eh     change       -0.2917515E-04 Eh
 * total energy  :  -325.2189382 Eh     change       -0.7461577E-05 Eh
 * total energy  :  -325.2189487 Eh     change       -0.1050956E-04 Eh
 * total energy  :  -325.2189579 Eh     change       -0.9116162E-05 Eh
 * total energy  :  -325.2189673 Eh     change       -0.9490887E-05 Eh
 * total energy  :  -325.2189777 Eh     change       -0.1036919E-04 Eh
 * total energy  :  -325.2189873 Eh     change       -0.9565778E-05 Eh
 * total energy  :  -325.2189936 Eh     change       -0.6334399E-05 Eh
 * total energy  :  -325.2189984 Eh     change       -0.4767995E-05 Eh
   *** GEOMETRY OPTIMIZATION CONVERGED AFTER 129 ITERATIONS ***

 final structure:
================
190
 xtb: 6.5.1 (b24c23e)
C           33.35219410351036        0.01549464984441       -0.00319191889943
C           33.95794491471241       -1.22219990250732       -0.17710735485213
C           33.32655108470180       -2.48689497421985       -0.35479559378844
C           34.30583005656754       -3.42897337714960       -0.49847414219914
C           35.56624802706398       -2.77010780614726       -0.41225595832104
N           35.30500397518070       -1.44486646250795       -0.21630310733842
C           36.82641498501822       -3.34670177736348       -0.51474281839590
C           38.05728400457199       -2.71110366608876       -0.43165064746958
C           39.32072127859938       -3.41309331322636       -0.56902547578927
C           40.28882089241149       -2.48426147395571       -0.42898649929243
N           38.27813710937563       -1.38608178000710       -0.21492417490732
C           39.61543536836129       -1.21875338404569       -0.20242034470479
C           40.29369288548546        0.00167828441012       -0.00322078776308
C           39.65991636079667        1.24418400465792        0.19151724801080
C           40.28143286592380        2.50220979396300        0.41291491575632
C           39.29756924540553        3.44309889754274        0.54430288926904
C           38.04352124537612        2.78510036414722        0.41180204104362
N           38.31438103092920        1.45980803777304        0.20231411892910
C           36.78477291101320        3.36975126017994        0.48238976387223
C           35.55271234604542        2.73752425744371        0.37693584055377
C           34.28078974834234        3.43768977301380        0.47036059696829
C           33.31960479595044        2.50174971249788        0.33740434744638
C           34.00535227432533        1.23134651627012        0.16212024640221
N           35.34690690533254        1.41269766555183        0.18879723597234
H           32.26747212049226        0.02539284191683        0.00143226999947
H           32.25913840516908       -2.64007054994068       -0.36970912437355
H           34.18073715864904       -4.48922320274426       -0.65146928065268
H           36.00872490776669       -0.72099529299106       -0.11646514881851
H           36.84124506624078       -4.41912718266453       -0.68144248378898
H           39.42016907570433       -4.47178591453735       -0.75043116552105
H           41.35761354455929       -2.61455795293322       -0.47675159687046
H           41.34640147429578        2.65746829719060        0.46904795619954
H           39.41869336810935        4.49999664239954        0.72071396612064
H           37.61443973435583        0.73616527648319        0.07515219634184
H           36.77414478262145        4.44293996346418        0.64406473137329
H           34.17461778606961        4.50112509052546        0.61842255094669
H           32.24785628026123        2.62471049932505        0.35205693837661
C           84.49749347644125       -0.00959765794683       -0.00939957615986
C           83.89071766582784        1.19495436048835       -0.34154927838430
C           84.52162892349503        2.42575599921437       -0.68292050210525
C           83.54193225859639        3.34214341099411       -0.94326733556907
C           82.28179308055779        2.70071611225817       -0.76836990166881
N           82.54358147603445        1.41131072493316       -0.40500564725739
C           81.02120609515427        3.26089842683235       -0.93713556480814
C           79.79074313683566        2.64201073478548       -0.76752415021930
C           78.52580892889016        3.32156217634458       -0.98297147144263
C           77.55900832514828        2.41734454194935       -0.72323639333402
N           79.57214451913887        1.35403232638687       -0.38696730339705
C           78.23522908668758        1.18919961697015       -0.34726882366737
C           77.55939658686361        0.00058495399062       -0.00231749836260
C           78.19322606289364       -1.20888202744351        0.34058810095611
C           77.57122238513927       -2.43092047153155        0.71261343918157
C           78.55531419532034       -3.34691821989509        0.96354570799156
C           79.80969357016345       -2.70876740416634        0.75602502838386
N           79.53880959962896       -1.42007111824870        0.38266802016487
C           81.06879769223126       -3.27761004548087        0.90444012239688
C           82.30029476405205       -2.66154692874810        0.72211556607635
C           83.57309257618842       -3.34186924250959        0.90661189156146
C           84.53314110987897       -2.42987501847233        0.65340024539717
C           83.84593749698412       -1.19391990122581        0.31417680994689
N           82.50440700559770       -1.37207180677183        0.36437166149022
H           85.58226030046411       -0.01806267399121       -0.00567671864916
H           85.58901814128390        2.57505647790290       -0.72104090162342
H           83.66682282038427        4.37382250973715       -1.23176246149296
H           81.83991828242964        0.70697645155981       -0.21028947278034
H           81.00605247219184        4.30358856574154       -1.23829642178970
H           78.42468697197654        4.34975339140629       -1.29323134473023
H           76.48954951846866        2.54062446056528       -0.77919685421218
H           76.50585063413752       -2.57912039868447        0.78240647530610
H           78.43437851478946       -4.37408084538688        1.26875447657912
H           80.23904907067804       -0.71710921091917        0.16999945308363
H           81.08061308803693       -4.32155657984651        1.20104139599338
H           83.68069288998275       -4.37684389086989        1.19179820997165
H           85.60506096745527       -2.54838980847999        0.68431584232426
C           41.70166044373726       -0.00477548751258        0.00155921841491
C           42.91954833476525       -0.00374882414371        0.00679384658514
C           52.77197277147292        0.00151075278039        0.01176589350551
C           53.99084146557316        0.00758606869160        0.00796576988458
C           63.85912478485218       -0.00619009059329        0.00940303065120
C           65.07815147219672       -0.01021792578696        0.01249132725591
C           74.93366819889441        0.00406876206216        0.00804322460855
C           76.15127342898631        0.00573900680301        0.00162638998306
C           44.32658599650298       -0.00084294705440        0.01163049053280
C           44.97051057209524        1.24063792862937       -0.15850152853017
C           44.36719583745037        2.51006392602617       -0.35611370813010
C           45.36624461800629        3.43746161091429       -0.47800733353130
C           46.60939001135280        2.75788288987846       -0.36256622648848
N           46.31926698190090        1.43512415369435       -0.17059041481226
C           47.87613359007605        3.32746753906179       -0.43950484939903
C           49.10949570632713        2.70113956168798       -0.35269976961759
C           50.36684126555233        3.41732288624218       -0.46862655491484
C           51.34285902342495        2.49391840896756       -0.34697824273664
N           49.34283895418110        1.37338726544524       -0.16267514013511
C           50.68090931567286        1.21816317702062       -0.15281426792543
C           51.36562260973178       -0.00477388146328        0.01662767933429
C           50.72016048651377       -1.24553278928046        0.19040470806084
C           51.32144707607623       -2.51682338215739        0.38259011026161
C           50.32172518513665       -3.44271590894692        0.50583678655968
C           49.07901661609663       -2.76101272318276        0.39572765155389
N           49.37102998013768       -1.43791521113257        0.20644292992574
C           47.81305440067257       -3.33113490173516        0.47446952627797
C           46.57872678808133       -2.70564713512851        0.38826340361330
C           45.32081753607880       -3.42136435296945        0.50520247342296
C           44.34482567763004       -2.49840908801145        0.38046301299707
C           45.00802991750381       -1.22347533006664        0.18324465041806
N           46.34683000944642       -1.37902568190723        0.19561232715519
H           43.30461004755021        2.68310245336525       -0.40424477480968
H           45.26091772935575        4.49874836140351       -0.63738729175161
H           47.00399542771585        0.69450086637477       -0.05778669509643
H           47.89019312606594        4.40203419786445       -0.59452268289720
H           50.45751721339342        4.48088355443083       -0.62462416065617
H           52.41045060252029        2.63538811662766       -0.38635337336661
H           52.38332776843040       -2.69293450324513        0.42541913513592
H           50.42579707279052       -4.50467127406010        0.66143920213082
H           48.68702577572802       -0.69629346006361        0.09571431978006
H           47.79998686363891       -4.40579371667531        0.62895973613596
H           45.22975534781034       -4.48440789131184        0.66424338642379
H           43.27700369173416       -2.63872781415114        0.42107999420283
C           55.39702810022122        0.01231158301975        0.00154615397685
C           56.04654570137068        1.26287871535401        0.03257316207566
C           55.45180843985958        2.55044583362842        0.08009660458719
C           56.45618464775635        3.47984163389883        0.07584301273849
C           57.69494509861771        2.78405507265483        0.03038144071079
N           57.39643806697133        1.44934323384840        0.01009984190625
C           58.96340187704918        3.35411093515745        0.00274859365931
C           60.19614686427133        2.72085560811774       -0.02461314923804
C           61.45295299662390        3.44616512278592       -0.06318789419198
C           62.42922623804356        2.51502500386909       -0.06456627213698
N           60.43011731824826        1.38000228730948       -0.00726532391245
C           61.76846972171189        1.22494487691559       -0.02350445383985
C           62.45267599048319       -0.00984249702641        0.00327699635433
C           61.80233469165366       -1.26040667393997        0.02294664653494
C           62.39638207136552       -2.54863076325417        0.05796834196974
C           61.39181231598033       -3.47764838410313        0.04544822034797
C           60.15329074763142       -2.78110671353420        0.00660223511657
N           60.45226670359316       -1.44630067173148       -0.00104465072815
C           58.88506643379191       -3.35136875996643       -0.02796177576075
C           57.65219366142366       -2.71827251219080       -0.05133993040969
C           56.39523036073685       -3.44273863008229       -0.10265287365480
C           55.41909365862234       -2.51139824659682       -0.09645988465563
C           56.08050597274077       -1.22222646292626       -0.03734205105811
N           57.41868680602983       -1.37777374789236       -0.01919922851495
H           54.39114748544751        2.73538498576325        0.11592650768546
H           56.35737494461547        4.55328173292554        0.10317475838284
H           58.07575464179329        0.69576749039560       -0.01986504562120
H           58.97982493117157        4.43984630060178        0.00454979864546
H           61.54341821080087        4.52083477183500       -0.08711305072968
H           63.49639283491348        2.66078339832733       -0.09448418353506
H           63.45690538211126       -2.73438971689425        0.09079761730967
H           61.49039207074735       -4.55130711083579        0.06270357569134
H           59.77317239183876       -0.69225240393704       -0.02408104446420
H           58.86909992617727       -4.43706797123246       -0.03712684301899
H           56.30450917765707       -4.51700505013678       -0.14014318130513
H           54.35187904075120       -2.65635914633157       -0.13363048805521
C           66.48475544843538       -0.00411630832936        0.01575616438705
C           67.13047956811749        1.24291937328933        0.13872595512129
C           66.52926879708251        2.52110947852332        0.27639187256531
C           67.52863160385652        3.45183515306923        0.35865475877914
C           68.77143233781257        2.76655246377106        0.27642055143367
N           68.47968722287054        1.43628134938034        0.14549539689597
C           70.03662190395505        3.34189226337031        0.32607324671685
C           71.27215288890751        2.71613688911103        0.26305804077253
C           72.52944049806347        3.43856372732452        0.34127869942096
C           73.50683396615489        2.51257981230813        0.25524353617688
N           71.50563901769415        1.38255964781836        0.13115325255900
C           72.84455949666304        1.22873858748604        0.12139131684449
C           73.52653980978199       -0.00028963022620        0.01151626476927
C           72.88448165254438       -1.24931610369840       -0.09586336990720
C           73.48947198774810       -2.52656789346917       -0.22821755598010
C           72.49097197020924       -3.45886144026528       -0.31191928504623
C           71.24686279161411       -2.77499432526154       -0.23652382522563
N           71.53582292864284       -1.44467733792540       -0.10539457108600
C           69.98047598326889       -3.34759754352843       -0.29479185276369
C           68.74606776338779       -2.71926931590233       -0.24022274792243
C           67.49011282802390       -3.44189732675607       -0.32831357777028
C           66.51229599348981       -2.51604554491677       -0.24596175491599
C           67.17132001437537       -1.23199104834138       -0.10452578928253
N           68.50989754113378       -1.38522080532751       -0.10678945311270
H           65.46749869416080        2.69863326844198        0.31147110916276
H           67.42415001896305        4.51946986606112        0.46806256236917
H           69.16356805802039        0.69065824282663        0.06494890105704
H           70.04749489973695        4.42237467293602        0.43270505330935
H           72.61888159309484        4.50802620998172        0.45040273044275
H           74.57485787686684        2.65607274690687        0.28382897179231
H           74.55262187730735       -2.70105435796915       -0.26079316883216
H           72.59715684422284       -4.52653986333643       -0.41980849884236
H           70.85073646277860       -0.69940671543724       -0.03246240015793
H           69.96745406091368       -4.42796570191473       -0.40256776338873
H           67.40139972189188       -4.51118279691236       -0.44002416622183
H           65.44508182534868       -2.66135179341927       -0.27940705275457

          :  Hamiltonian                  GFN1-xTB          :
         :: total energy            -325.218998387504 Eh    ::
         :: gradient norm              0.000744856786 Eh/a0 ::
         :: HOMO-LUMO gap              0.687609925111 eV    ::
         :: SCC energy              -330.554915766928 Eh    ::
         :: repulsion energy           5.497212967038 Eh    ::

    * Orbital Energies and Occupations

         #    Occupation            Energy/Eh            Energy/eV
      -------------------------------------------------------------
         1        2.0000           -0.8045935             -21.8941
       ...           ...                  ...                  ...
       285        2.0000           -0.4161470             -11.3239
       286        2.0000           -0.4158979             -11.3172
       287        2.0000           -0.4158496             -11.3158
       288        2.0000           -0.4001809             -10.8895
       289        2.0000           -0.3999355             -10.8828
       290        2.0000           -0.3999291             -10.8826
       291        2.0000           -0.3991115             -10.8604
       292        2.0000           -0.3990390             -10.8584
       293        2.0000           -0.3970809             -10.8051
       294        2.0000           -0.3927490             -10.6872
       295        2.0000           -0.3868666             -10.5272
       296        2.0000           -0.3802546             -10.3473
       297        2.0000           -0.3743613             -10.1869 (HOMO)
       298        0.0000           -0.3490921              -9.4993 (LUMO)
       299                         -0.3422321              -9.3126
       300                         -0.3346759              -9.1070
       301                         -0.3313822              -9.0174
       302                         -0.3313488              -9.0165
       303                         -0.3313133              -9.0155
       304                         -0.3309259              -9.0050
       305                         -0.3307804              -9.0010
       306                         -0.3270177              -8.8986
       307                         -0.3210496              -8.7362
       308                         -0.3032766              -8.2526
       ...                                ...                  ...
       636                          1.3366227              36.3714
      -------------------------------------------------------------
                  HL-Gap            0.0252692 Eh            0.6876 eV

Wiberg/Mayer (AO) data.
largest (>0.10) Wiberg bond orders for each atom

     #   Z sym  total        # sym  WBO       # sym  WBO       # sym  WBO
 ---------------------------------------------------------------------------
     1   6 C    3.929 --    23 C    1.362     2 C    1.350    25 H    0.972
     2   6 C    3.903 --     1 C    1.350     3 C    1.225     6 N    1.172
     3   6 C    3.954 --     4 C    1.603     2 C    1.225    26 H    0.977
     4   6 C    3.958 --     3 C    1.603     5 C    1.226    27 H    0.977
     5   6 C    3.897 --     7 C    1.343     4 C    1.226     6 N    1.174
     6   7 N    3.471 --     5 C    1.174     2 C    1.172    28 H    0.873
     7   6 C    3.944 --     8 C    1.377     5 C    1.343    29 H    0.971
     8   6 C    3.915 --     7 C    1.377    11 N    1.279     9 C    1.119
     9   6 C    3.965 --    10 C    1.716     8 C    1.119    30 H    0.976
    10   6 C    3.964 --     9 C    1.716    12 C    1.125    31 H    0.969
    11   7 N    3.025 --    12 C    1.350     8 C    1.279
    12   6 C    3.913 --    11 N    1.350    13 C    1.256    10 C    1.125
    13   6 C    3.942 --    12 C    1.256    14 C    1.254    75 C    1.185
    14   6 C    3.889 --    13 C    1.254    15 C    1.247    18 N    1.192
    15   6 C    3.959 --    16 C    1.586    14 C    1.247    32 H    0.970
    16   6 C    3.953 --    15 C    1.586    17 C    1.234    33 H    0.977
    17   6 C    3.899 --    19 C    1.348    16 C    1.234    18 N    1.163
    18   7 N    3.475 --    14 C    1.192    17 C    1.163    34 H    0.872
    19   6 C    3.928 --    20 C    1.366    17 C    1.348    35 H    0.971
    20   6 C    3.931 --    19 C    1.366    24 N    1.307    21 C    1.112
    21   6 C    3.967 --    22 C    1.730    20 C    1.112    36 H    0.976
    22   6 C    3.966 --    21 C    1.730    23 C    1.113    37 H    0.976
    23   6 C    3.929 --     1 C    1.362    24 N    1.309    22 C    1.113
    24   7 N    3.014 --    23 C    1.309    20 C    1.307
    25   1 H    1.001 --     1 C    0.972
    26   1 H    0.998 --     3 C    0.977
    27   1 H    0.998 --     4 C    0.977
    28   1 H    0.986 --     6 N    0.873
    29   1 H    1.002 --     7 C    0.971
    30   1 H    0.998 --     9 C    0.976
    31   1 H    1.006 --    10 C    0.969
    32   1 H    1.006 --    15 C    0.970
    33   1 H    0.998 --    16 C    0.977
    34   1 H    0.987 --    18 N    0.872
    35   1 H    1.002 --    19 C    0.971
    36   1 H    0.998 --    21 C    0.976
    37   1 H    0.998 --    22 C    0.976
    38   6 C    3.929 --    60 C    1.363    39 C    1.350    62 H    0.972
    39   6 C    3.903 --    38 C    1.350    40 C    1.225    43 N    1.172
    40   6 C    3.954 --    41 C    1.602    39 C    1.225    63 H    0.977
    41   6 C    3.958 --    40 C    1.602    42 C    1.226    64 H    0.977
    42   6 C    3.897 --    44 C    1.343    41 C    1.226    43 N    1.174
    43   7 N    3.471 --    42 C    1.174    39 C    1.172    65 H    0.873
    44   6 C    3.944 --    45 C    1.378    42 C    1.343    66 H    0.971
    45   6 C    3.916 --    44 C    1.378    48 N    1.279    46 C    1.119
    46   6 C    3.965 --    47 C    1.716    45 C    1.119    67 H    0.976
    47   6 C    3.964 --    46 C    1.716    49 C    1.124    68 H    0.970
    48   7 N    3.025 --    49 C    1.350    45 C    1.279
    49   6 C    3.914 --    48 N    1.350    50 C    1.256    47 C    1.124
    50   6 C    3.942 --    49 C    1.256    51 C    1.255    82 C    1.183
    51   6 C    3.889 --    50 C    1.255    52 C    1.246    55 N    1.191
    52   6 C    3.959 --    53 C    1.587    51 C    1.246    69 H    0.971
    53   6 C    3.953 --    52 C    1.587    54 C    1.234    70 H    0.977
    54   6 C    3.899 --    56 C    1.348    53 C    1.234    55 N    1.163
    55   7 N    3.475 --    51 C    1.191    54 C    1.163    71 H    0.873
    56   6 C    3.928 --    57 C    1.365    54 C    1.348    72 H    0.971
    57   6 C    3.931 --    56 C    1.365    61 N    1.307    58 C    1.112
    58   6 C    3.967 --    59 C    1.730    57 C    1.112    73 H    0.976
    59   6 C    3.966 --    58 C    1.730    60 C    1.113    74 H    0.976
    60   6 C    3.929 --    38 C    1.363    61 N    1.309    59 C    1.113
    61   7 N    3.014 --    60 C    1.309    57 C    1.307
    62   1 H    1.001 --    38 C    0.972
    63   1 H    0.998 --    40 C    0.977
    64   1 H    0.998 --    41 C    0.977
    65   1 H    0.986 --    43 N    0.873
    66   1 H    1.002 --    44 C    0.971
    67   1 H    0.998 --    46 C    0.976
    68   1 H    1.006 --    47 C    0.970
    69   1 H    1.005 --    52 C    0.971
    70   1 H    0.998 --    53 C    0.977
    71   1 H    0.987 --    55 N    0.873
    72   1 H    1.002 --    56 C    0.971
    73   1 H    0.998 --    58 C    0.976
    74   1 H    0.998 --    59 C    0.976
    75   6 C    3.930 --    76 C    2.569    13 C    1.185
    76   6 C    3.934 --    75 C    2.569    83 C    1.188
    77   6 C    3.930 --    78 C    2.561    95 C    1.194
    78   6 C    3.931 --    77 C    2.561   119 C    1.194
    79   6 C    3.931 --    80 C    2.561   131 C    1.195
    80   6 C    3.930 --    79 C    2.561   155 C    1.194
    81   6 C    3.933 --    82 C    2.570   167 C    1.186
    82   6 C    3.929 --    81 C    2.570    50 C    1.183
    83   6 C    3.927 --   105 C    1.255    84 C    1.250    76 C    1.188
    84   6 C    3.890 --    85 C    1.251    83 C    1.250    88 N    1.192
    85   6 C    3.956 --    86 C    1.580    84 C    1.251   107 H    0.970
    86   6 C    3.954 --    85 C    1.580    87 C    1.240   108 H    0.977
    87   6 C    3.894 --    89 C    1.336    86 C    1.240    88 N    1.165
    88   7 N    3.471 --    84 C    1.192    87 C    1.165   109 H    0.872
    89   6 C    3.930 --    90 C    1.384    87 C    1.336   110 H    0.970
    90   6 C    3.918 --    89 C    1.384    93 N    1.273    91 C    1.120
    91   6 C    3.965 --    92 C    1.714    90 C    1.120   111 H    0.976
    92   6 C    3.963 --    91 C    1.714    94 C    1.127   112 H    0.967
    93   7 N    3.012 --    94 C    1.355    90 C    1.273
    94   6 C    3.913 --    93 N    1.355    95 C    1.250    92 C    1.127
    95   6 C    3.928 --    94 C    1.250    96 C    1.249    77 C    1.194
    96   6 C    3.889 --    97 C    1.250    95 C    1.249   100 N    1.193
    97   6 C    3.956 --    98 C    1.582    96 C    1.250   113 H    0.968
    98   6 C    3.953 --    97 C    1.582    99 C    1.238   114 H    0.977
    99   6 C    3.894 --   101 C    1.339    98 C    1.238   100 N    1.164
   100   7 N    3.471 --    96 C    1.193    99 C    1.164   115 H    0.872
   101   6 C    3.929 --   102 C    1.381    99 C    1.339   116 H    0.970
   102   6 C    3.918 --   101 C    1.381   106 N    1.277   103 C    1.119
   103   6 C    3.965 --   104 C    1.715   102 C    1.119   117 H    0.976
   104   6 C    3.964 --   103 C    1.715   105 C    1.126   118 H    0.969
   105   6 C    3.914 --   106 N    1.350    83 C    1.255   104 C    1.126
   106   7 N    3.011 --   105 C    1.350   102 C    1.277
   107   1 H    1.005 --    85 C    0.970
   108   1 H    0.998 --    86 C    0.977
   109   1 H    0.986 --    88 N    0.872
   110   1 H    1.002 --    89 C    0.970
   111   1 H    0.998 --    91 C    0.976
   112   1 H    1.007 --    92 C    0.967
   113   1 H    1.006 --    97 C    0.968
   114   1 H    0.998 --    98 C    0.977
   115   1 H    0.986 --   100 N    0.872
   116   1 H    1.002 --   101 C    0.970
   117   1 H    0.998 --   103 C    0.976
   118   1 H    1.006 --   104 C    0.969
   119   6 C    3.926 --   141 C    1.250   120 C    1.248    78 C    1.194
   120   6 C    3.889 --   121 C    1.251   119 C    1.248   124 N    1.193
   121   6 C    3.955 --   122 C    1.580   120 C    1.251   143 H    0.968
   122   6 C    3.953 --   121 C    1.580   123 C    1.239   144 H    0.977
   123   6 C    3.894 --   125 C    1.337   122 C    1.239   124 N    1.164
   124   7 N    3.471 --   120 C    1.193   123 C    1.164   145 H    0.871
   125   6 C    3.929 --   126 C    1.383   123 C    1.337   146 H    0.970
   126   6 C    3.918 --   125 C    1.383   129 N    1.274   127 C    1.120
   127   6 C    3.965 --   128 C    1.713   126 C    1.120   147 H    0.976
   128   6 C    3.963 --   127 C    1.713   130 C    1.128   148 H    0.967
   129   7 N    3.011 --   130 C    1.354   126 C    1.274
   130   6 C    3.913 --   129 N    1.354   131 C    1.250   128 C    1.128
   131   6 C    3.926 --   130 C    1.250   132 C    1.248    79 C    1.195
   132   6 C    3.889 --   133 C    1.251   131 C    1.248   136 N    1.193
   133   6 C    3.955 --   134 C    1.580   132 C    1.251   149 H    0.968
   134   6 C    3.953 --   133 C    1.580   135 C    1.239   150 H    0.977
   135   6 C    3.894 --   137 C    1.337   134 C    1.239   136 N    1.164
   136   7 N    3.471 --   132 C    1.193   135 C    1.164   151 H    0.871
   137   6 C    3.929 --   138 C    1.383   135 C    1.337   152 H    0.970
   138   6 C    3.918 --   137 C    1.383   142 N    1.274   139 C    1.120
   139   6 C    3.965 --   140 C    1.713   138 C    1.120   153 H    0.976
   140   6 C    3.963 --   139 C    1.713   141 C    1.127   154 H    0.968
   141   6 C    3.913 --   142 N    1.354   119 C    1.250   140 C    1.127
   142   7 N    3.011 --   141 C    1.354   138 C    1.274
   143   1 H    1.006 --   121 C    0.968
   144   1 H    0.998 --   122 C    0.977
   145   1 H    0.986 --   124 N    0.871
   146   1 H    1.002 --   125 C    0.970
   147   1 H    0.998 --   127 C    0.976
   148   1 H    1.007 --   128 C    0.967
   149   1 H    1.006 --   133 C    0.968
   150   1 H    0.998 --   134 C    0.977
   151   1 H    0.986 --   136 N    0.871
   152   1 H    1.002 --   137 C    0.970
   153   1 H    0.998 --   139 C    0.976
   154   1 H    1.006 --   140 C    0.968
   155   6 C    3.928 --   177 C    1.250   156 C    1.249    80 C    1.194
   156   6 C    3.889 --   157 C    1.251   155 C    1.249   160 N    1.193
   157   6 C    3.956 --   158 C    1.581   156 C    1.251   179 H    0.968
   158   6 C    3.953 --   157 C    1.581   159 C    1.238   180 H    0.977
   159   6 C    3.895 --   161 C    1.339   158 C    1.238   160 N    1.164
   160   7 N    3.471 --   156 C    1.193   159 C    1.164   181 H    0.872
   161   6 C    3.929 --   162 C    1.381   159 C    1.339   182 H    0.970
   162   6 C    3.918 --   161 C    1.381   165 N    1.277   163 C    1.119
   163   6 C    3.966 --   164 C    1.715   162 C    1.119   183 H    0.976
   164   6 C    3.964 --   163 C    1.715   166 C    1.126   184 H    0.970
   165   7 N    3.011 --   166 C    1.350   162 C    1.277
   166   6 C    3.914 --   165 N    1.350   167 C    1.256   164 C    1.126
   167   6 C    3.927 --   166 C    1.256   168 C    1.251    81 C    1.186
   168   6 C    3.890 --   167 C    1.251   169 C    1.251   172 N    1.192
   169   6 C    3.956 --   170 C    1.581   168 C    1.251   185 H    0.971
   170   6 C    3.954 --   169 C    1.581   171 C    1.239   186 H    0.977
   171   6 C    3.894 --   173 C    1.336   170 C    1.239   172 N    1.165
   172   7 N    3.471 --   168 C    1.192   171 C    1.165   187 H    0.872
   173   6 C    3.931 --   174 C    1.383   171 C    1.336   188 H    0.970
   174   6 C    3.918 --   173 C    1.383   178 N    1.273   175 C    1.120
   175   6 C    3.965 --   176 C    1.714   174 C    1.120   189 H    0.976
   176   6 C    3.963 --   175 C    1.714   177 C    1.127   190 H    0.967
   177   6 C    3.913 --   178 N    1.355   155 C    1.250   176 C    1.127
   178   7 N    3.012 --   177 C    1.355   174 C    1.273
   179   1 H    1.007 --   157 C    0.968
   180   1 H    0.998 --   158 C    0.977
   181   1 H    0.986 --   160 N    0.872
   182   1 H    1.002 --   161 C    0.970
   183   1 H    0.998 --   163 C    0.976
   184   1 H    1.005 --   164 C    0.970
   185   1 H    1.005 --   169 C    0.971
   186   1 H    0.998 --   170 C    0.977
   187   1 H    0.986 --   172 N    0.872
   188   1 H    1.002 --   173 C    0.970
   189   1 H    0.998 --   175 C    0.976
   190   1 H    1.007 --   176 C    0.967
 ---------------------------------------------------------------------------

           -------------------------------------------------
          | TOTAL ENERGY             -325.218998387504 Eh   |
          | GRADIENT NORM               0.000744856786 Eh/α |
          | HOMO-LUMO GAP               0.687609925111 eV   |
           -------------------------------------------------

 * finished run on 2022/07/26 at 13:21:55.931
