   * xtb version 6.5.1 (b24c23e) compiled by 'conda@728c89f4b128' on 2022-07-12
          program call               : xtb Cu_Ph2Me_C4_3.xyz --gfn 1 --opt -T 48

   ID    Z sym.   atoms
    1   29 Cu     1, 69, 145
    2    6 C      2-6, 8-11, 13-31, 34-41, 70-74, 76-79, 81-99, 102-109,
                  137-144, 146-150, 152-155, 157-175, 178-185
    3    7 N      7, 12, 32, 33, 75, 80, 100, 101, 151, 156, 176, 177
    4    1 H      42-68, 110-136, 186-211

          :  Hamiltonian                  GFN1-xTB          :
 * total energy  :  -339.3575403 Eh     change        0.1533209E-07 Eh
 * total energy  :  -339.5718881 Eh     change       -0.2143478E+00 Eh
 * total energy  :  -339.6369698 Eh     change       -0.6508168E-01 Eh
 * total energy  :  -339.6773035 Eh     change       -0.4033369E-01 Eh
 * total energy  :  -339.6953331 Eh     change       -0.1802962E-01 Eh
 * total energy  :  -339.7161390 Eh     change       -0.2080596E-01 Eh
 * total energy  :  -339.7398664 Eh     change       -0.2372738E-01 Eh
 * total energy  :  -339.7677941 Eh     change       -0.2792773E-01 Eh
 * total energy  :  -339.7814442 Eh     change       -0.1365008E-01 Eh
 * total energy  :  -339.8049097 Eh     change       -0.2346552E-01 Eh
 * total energy  :  -340.1110601 Eh     change       -0.2409307E-04 Eh
 * total energy  :  -340.1110899 Eh     change       -0.2975856E-04 Eh
 * total energy  :  -340.1111088 Eh     change       -0.1895260E-04 Eh
 * total energy  :  -340.1111220 Eh     change       -0.1320104E-04 Eh
 * total energy  :  -340.1111368 Eh     change       -0.1474554E-04 Eh
 * total energy  :  -340.1111553 Eh     change       -0.1851733E-04 Eh
 * total energy  :  -340.1111642 Eh     change       -0.8862501E-05 Eh
 * total energy  :  -340.1111729 Eh     change       -0.8778260E-05 Eh
 * total energy  :  -340.1111770 Eh     change       -0.4075684E-05 Eh
   *** GEOMETRY OPTIMIZATION CONVERGED AFTER 94 ITERATIONS ***

 final structure:
================
211
 xtb: 6.5.1 (b24c23e)
Cu          30.94323384537400        0.06555599288001       -0.11664075405161
C           27.54455103649127        0.17297361415524       -0.33461556054990
C           28.18531457649833        1.35166272133246        0.01712941979148
C           27.51704282744860        2.58194698820790        0.33147541244669
C           28.47915230762716        3.48652978217763        0.64029932198074
C           29.74580372630660        2.82013138375676        0.50442102121948
N           29.53526217878946        1.52256568576228        0.13488816566160
C           30.99200549300735        3.40832947634270        0.73145466657992
C           32.21946822899259        2.75187716355917        0.62559006050901
C           33.50109247761986        3.37623162114428        0.79362582175514
C           34.44065430788562        2.41625505610864        0.59900416867088
N           32.39953321094119        1.42853096978006        0.32053938224691
C           33.74126141941565        1.20127163427251        0.30696640426699
C           34.36791766047968       -0.03086924213818        0.05106333516522
C           33.70098923766938       -1.23147090442465       -0.24862905515035
C           34.35933177339795       -2.47491213536821       -0.51573492235275
C           33.38961428778201       -3.38607647992176       -0.78314887598318
C           32.13047556307255       -2.70500264668097       -0.67662562690782
C           30.88506314836869       -3.28983436823097       -0.91075840394082
C           30.86311711208521       -4.73747298478974       -1.24336436745368
C           30.42202139110730       -5.16667114062754       -2.49215581359004
C           30.40819857545927       -6.52263305786688       -2.80953600592051
C           29.92882098334207       -6.96795013510094       -4.16489004078741
C           30.83398052319145       -7.44766960085913       -1.86397813341278
C           31.27499429754235       -7.03351090805486       -0.60852447423525
C           31.73779778507425       -8.05169227333703        0.39847413059763
C           31.28980540627062       -5.67808912997061       -0.30525341920122
C           29.66119131411992       -2.61962661281704       -0.85989785379015
C           28.37639535927182       -3.22714648769765       -1.07658923445845
C           27.44394722620530       -2.25453530306623       -0.92212758157205
C           28.14885617193965       -1.04695459838627       -0.59939005194531
N           29.49124649119799       -1.29660189703492       -0.56789577287350
N           32.35379493259428       -1.39279273899591       -0.35265437579857
C           31.01523079400021        4.84292726828624        1.11389906001731
C           30.53205902376783        5.81476128094420        0.23800704034852
C           30.55277642726754        7.15832794975009        0.59347516468226
C           30.05030588201864        8.20886227359022       -0.35986304038661
C           31.06065406202214        7.52814521454772        1.83636383720578
C           31.54623260945541        6.57084622200450        2.72068750857044
C           32.07492520446425        6.97302809928966        4.07112442318792
C           31.52138686684786        5.22890328596266        2.35345827987130
H           26.46141806869305        0.20466353622552       -0.39378260874223
H           26.44715561625661        2.71959721751964        0.32191314049188
H           28.34956169372779        4.51293158483646        0.94390951402629
H           33.65795383904474        4.41901854048787        1.01740587342341
H           35.51368602800114        2.51351644290998        0.64327869424725
H           35.42767350282387       -2.62089976215065       -0.50326631243298
H           33.51193320382198       -4.42512397632635       -1.04302094151092
H           30.10335271547123       -4.43537274828687       -3.22701278687248
H           30.08501784792876       -8.03756936401743       -4.30359409016772
H           28.86335946804870       -6.75602574602611       -4.27473170592515
H           30.46064854639756       -6.43110370813182       -4.95202238620380
H           30.82492331495490       -8.50595728602707       -2.10407742720203
H           31.95109418873774       -7.58276138023656        1.35887621436143
H           30.97460441778220       -8.81781658304734        0.54450146770264
H           32.64546725005708       -8.54464364047968        0.04441004266651
H           31.62118402518989       -5.34223834591292        0.67126819144263
H           28.21590226300087       -4.26817751102633       -1.30686632399948
H           26.37167625051389       -2.33525375884693       -1.00829299954012
H           30.15338222036516        5.51547731896059       -0.73322208204660
H           29.47522717818563        8.96794308186829        0.17172072840655
H           29.42084270785516        7.76604876337151       -1.13169226794960
H           30.89330660981845        8.70388196878057       -0.84709785686528
H           31.07795125904578        8.57636369704846        2.11678777797991
H           31.29300359076839        6.85906249113162        4.82541359594139
H           32.39766558208977        8.01418374876530        4.06933460368081
H           32.91662722120766        6.34269364406197        4.35971046217081
H           31.88471176975793        4.47224182193248        3.04032262862680
Cu          57.87695173254845        0.06276270225647       -0.08938125514696
C           61.27549453156865        0.23303721878650       -0.25871893810819
C           60.63256812350278       -0.44475159153617       -1.28376494435109
C           61.29843065247152       -1.10070927707539       -2.37265864798318
C           60.33507175779386       -1.66386567337701       -3.14332071236850
C           59.06999066701515       -1.34731780876764       -2.53786774059791
N           59.28267986840863       -0.61232865369565       -1.40692538914526
C           57.82423151029399       -1.75265814155437       -3.02134567364330
C           56.59868771871600       -1.47149800212094       -2.41466321568796
C           55.31669335524117       -1.84025744371143       -2.94576270604845
C           54.37854000112692       -1.36905175532152       -2.08607837743980
N           56.42018190214991       -0.77619117673150       -1.24837176256222
C           55.07852564128765       -0.70465574097501       -1.02765649762619
C           54.45281585665680       -0.06413208171940        0.05447237473279
C           55.11826557427275        0.60652808355199        1.09340921880523
C           54.46030152954611        1.25593024707080        2.18753739108539
C           55.43108758227395        1.78015437810414        2.97765173270699
C           56.69081711518945        1.45168544832938        2.37205212565757
C           57.93820319361794        1.83189921350617        2.87025452474135
C           57.96120617704332        2.57436883602377        4.15665508853536
C           58.42956367506524        3.88446763753754        4.20907122185947
C           58.44555254799335        4.58188900917170        5.41449906915309
C           58.95479687086567        5.99765259865131        5.45260091935787
C           57.99418332903053        3.95546919199484        6.56997454316583
C           57.52521211178023        2.64364259843750        6.53393006347892
C           57.03369110384616        1.98645829487332        7.79541805065317
C           57.50870037266455        1.95990539678292        5.32500510040112
C           59.16266590601047        1.56703037274899        2.25381385087728
C           60.44946712904039        1.93913682364656        2.77615168592973
C           61.38074576547873        1.49849404809314        1.89431437451154
C           60.67332901665839        0.84293126703677        0.83163809439578
N           59.33067600420029        0.89667752422188        1.07606543437048
N           56.46688387671229        0.74240464730004        1.22227127893105
C           57.79729717851357       -2.53994868567852       -4.28021029933047
C           58.25450894850002       -1.97839996823452       -5.47214277419949
C           58.22281474537628       -2.70887255792978       -6.65425443732246
C           58.69385922435274       -2.09482555653353       -7.94499245204807
C           57.73091250697985       -4.01168676092413       -6.63898399681285
C           57.27290791963583       -4.58609160661103       -5.45812740924928
C           56.76029663671393       -6.00098279975397       -5.44209927412610
C           57.30840120303499       -3.84473506715315       -4.28104613919373
H           62.35871578682252        0.27786981970958       -0.30686376394959
H           62.36776939698422       -1.12654668464229       -2.51252610763872
H           60.46251201609508       -2.25227176238279       -4.03777903018738
H           55.15842187011560       -2.37801081235602       -3.86651684174305
H           53.30587867321749       -1.45358293235668       -2.15667853354712
H           53.39147001980130        1.30167141715740        2.32296597908259
H           55.30978508012156        2.35071095888105        3.88423421878531
H           58.76720246582391        4.36858819887928        3.29918841283393
H           58.79340142917450        6.44534974133553        6.43304007134832
H           60.02439530378001        6.01803483718252        5.23418742429772
H           58.44722342083036        6.60540310528024        4.70187018823195
H           58.00553708287298        4.49244883037560        7.51295907346536
H           56.82082355541085        0.93067668790460        7.62883238412276
H           57.77955499229235        2.07322996770059        8.58706047028871
H           56.11931171836155        2.47363207074300        8.14015547290489
H           57.15623457824756        0.93504935654036        5.28407095194814
H           60.61200739916725        2.46242605013708        3.70473646511046
H           62.45376797319843        1.59474718521135        1.94980190415222
H           58.62029008596412       -0.95738169727758       -5.47401432471870
H           59.26569520371237       -2.81682319808475       -8.52910625149165
H           59.31728274270468       -1.22083749585161       -7.75658762302634
H           57.83543739352498       -1.78109069948112       -8.54316210055294
H           57.70401054640871       -4.58410621848462       -7.56055937411485
H           57.55279218618674       -6.68010471435009       -5.11955906488478
H           56.43124754992800       -6.30785948221513       -6.43492614764526
H           55.92622579869053       -6.10136367769570       -4.74683922505192
H           56.96573223671752       -4.28662241817958       -3.35172326493115
C           36.99489217865687       -0.08561471050526        0.11464255883672
C           35.77363555157631       -0.06179502361607        0.08837000441662
C           38.34479859965129       -0.10435820951613        0.12691087842140
C           39.56655087606835       -0.11522819878915        0.13606938298522
C           50.47069089871710       -0.11889132969210        0.12071247623280
C           49.24982972541828       -0.13276334437792        0.11768523650032
C           51.82317347233734       -0.10574431330339        0.11038001108468
C           53.04377229839933       -0.08901606479083        0.09260431808486
Cu          44.40741398032466       -0.12683992529722        0.11499725781048
C           40.97257947006960       -0.11952922528123        0.13447313167490
C           41.62323831873102        1.12379929095805        0.04311167200273
C           40.94888977960426        2.38614415135439       -0.00347430420836
C           41.90657509684881        3.34140617536605       -0.11821356286759
C           43.17279312974789        2.66647220210658       -0.14707881393097
N           42.96753013416436        1.31690237674120       -0.03762369572589
C           44.41260877508010        3.29963231949943       -0.25365683518759
C           45.65179698866107        2.65854989378593       -0.20273653484048
C           46.92172080864868        3.30910323970463       -0.35807899191482
C           47.87635116611670        2.35078345440843       -0.24574746361835
N           45.85191252728637        1.31711486798216       -0.01334387516075
C           47.19657484521953        1.10790585711624       -0.03453674058896
C           47.84064718769631       -0.13183286588803        0.11606223409075
C           47.19178419446467       -1.36999471370021        0.25687558037873
C           47.86777606196125       -2.61794864897484        0.44901359171887
C           46.91040484962247       -3.57563426823412        0.54196131163569
C           45.64229683152918       -2.91879415930272        0.39799796653034
C           44.40140513111342       -3.55764148050319        0.44271358092717
C           44.39748185033397       -5.03521911791217        0.59094436749979
C           43.81901378992159       -5.62550210757328        1.71308797096247
C           43.80940570944257       -7.00920046997822        1.85878503480196
C           43.20186870570248       -7.63497649669630        3.08526499351095
C           44.38190579287721       -7.80232397852315        0.86997219171192
C           44.96109045302713       -7.22781218014912       -0.25853722820320
C           45.58716623909940       -8.10001524242134       -1.31316643110165
C           44.96885310976206       -5.84408809388168       -0.39111598843671
C           43.16258204450990       -2.91851801232262        0.36369918277526
C           41.89253793816113       -3.58680971783929        0.34437117280752
C           40.93803663154827       -2.62545581619689        0.25748727269103
C           41.61804788581605       -1.36607240797550        0.21508067219441
N           42.96228111318023       -1.56652637376305        0.27566401358900
N           45.84640823288601       -1.57504436053490        0.23144339456887
C           44.40839776672022        4.77184980805521       -0.44869888986369
C           44.98249367805403        5.61654568431186        0.49927098631015
C           44.97220175998046        6.99571718627477        0.31459789284850
C           45.60482455362718        7.89993385421473        1.33792295990199
C           44.38884020756709        7.52640025644045       -0.83139114764389
C           43.81246238146545        6.69549301785243       -1.78822443947880
C           43.20180683493400        7.27978143767292       -3.03341444093055
C           43.82366058479356        5.31958884287627       -1.59031816646839
H           39.87980176487211        2.51574049140982        0.05165525680847
H           41.77266450096131        4.41009596138733       -0.16409983276222
H           47.06066561715181        4.36231131128173       -0.54127160150959
H           48.94677716096667        2.46398502468283       -0.31016601833178
H           48.93790242304227       -2.73479351046942        0.51229509329061
H           47.04623683678612       -4.63235627938612        0.70631942415581
H           43.38545819755591       -4.99650077219150        2.48295137917208
H           42.89723649145949       -8.66287294924143        2.88805423068562
H           43.93235981610390       -7.64541586787484        3.89744615580008
H           42.33327335378750       -7.06689249355464        3.41959552609252
H           44.37437639069744       -8.88227379353019        0.97655182884891
H           45.68261356165177       -7.56353090338077       -2.25713515843321
H           44.99004299703137       -8.99790569306439       -1.47608120973022
H           46.58447344218366       -8.41108061369654       -0.99396518526557
H           45.40383130503919       -5.38526438675889       -1.27231770244522
H           41.75319919393566       -4.65522291820647        0.37851477710128
H           39.86752423287864       -2.74888844122407        0.21729755107941
H           45.42185136369893        5.19285897638150        1.39577114204532
H           45.17714962978401        8.90149097428535        1.29026288730510
H           46.67825412668972        7.97820979435316        1.15070247189919
H           45.46544071849218        7.50358938891964        2.34407232801155
H           44.37902195363900        8.60134302644563       -0.98002049072923
H           42.74605685920077        8.24796344496913       -2.82427500304690
H           42.44323898299023        6.61335988151296       -3.44424800602838
H           43.97407694668490        7.42561364576064       -3.79220566144730
H           43.38665979627095        4.66067793103461       -2.33271220183346

          :  Hamiltonian                  GFN1-xTB          :
         :: total energy            -340.111177023366 Eh    ::
         :: gradient norm              0.000655295880 Eh/a0 ::
         :: HOMO-LUMO gap              0.000030345782 eV    ::
         :: SCC energy              -345.543001461576 Eh    ::
         :: repulsion energy           5.613851537363 Eh    ::

    * Orbital Energies and Occupations

         #    Occupation            Energy/Eh            Energy/eV
      -------------------------------------------------------------
         1        2.0000           -0.7606971             -20.6996
       ...           ...                  ...                  ...
       307        2.0000           -0.4051892             -11.0258
       308        2.0000           -0.4051570             -11.0249
       309        2.0000           -0.4049584             -11.0195
       310        2.0000           -0.4046816             -11.0119
       311        2.0000           -0.4043641             -11.0033
       312        2.0000           -0.3921256             -10.6703
       313        2.0000           -0.3920459             -10.6681
       314        2.0000           -0.3918802             -10.6636
       315        2.0000           -0.3873152             -10.5394
       316        2.0000           -0.3821106             -10.3978
       317        2.0000           -0.3752331             -10.2106
       318        1.0136           -0.3525955              -9.5946
       319        0.9935           -0.3525525              -9.5934 (HOMO)
       320        0.9929           -0.3525514              -9.5934 (LUMO)
       321                         -0.3360019              -9.1431
       322                         -0.3281996              -8.9308
       323                         -0.3238793              -8.8132
       324                         -0.3238027              -8.8111
       325                         -0.3235641              -8.8046
       326                         -0.3221652              -8.7666
       327                         -0.2970144              -8.0822
       328                         -0.2908396              -7.9141
       329                         -0.2875084              -7.8235
       330                         -0.2566726              -6.9844
       ...                                ...                  ...
       699                          1.5225713              41.4313
      -------------------------------------------------------------
                  HL-Gap            0.0000011 Eh            0.0000 eV

Wiberg/Mayer (AO) data.
largest (>0.10) Wiberg bond orders for each atom

     #   Z sym  total        # sym  WBO       # sym  WBO       # sym  WBO
 ---------------------------------------------------------------------------
     1  29 Cu   2.192 --    32 N    0.507     7 N    0.506    12 N    0.504
                            33 N    0.504
     2   6 C    3.929 --    31 C    1.361     3 C    1.361    42 H    0.971
     3   6 C    3.918 --     2 C    1.361     7 N    1.229     4 C    1.171
     4   6 C    3.955 --     5 C    1.655     3 C    1.171    43 H    0.976
     5   6 C    3.958 --     4 C    1.655     6 C    1.173    44 H    0.973
     6   6 C    3.913 --     8 C    1.320     7 N    1.238     5 C    1.173
     7   7 N    3.244 --     6 C    1.238     3 C    1.229     1 Cu   0.506
     8   6 C    3.935 --     9 C    1.327     6 C    1.320    34 C    1.025
     9   6 C    3.908 --     8 C    1.327    12 N    1.221    10 C    1.180
    10   6 C    3.954 --    11 C    1.642     9 C    1.180    45 H    0.973
    11   6 C    3.956 --    10 C    1.642    13 C    1.187    46 H    0.974
    12   7 N    3.248 --    13 C    1.256     9 C    1.221     1 Cu   0.504
    13   6 C    3.899 --    14 C    1.260    12 N    1.256    11 C    1.187
    14   6 C    3.938 --    15 C    1.260    13 C    1.260   138 C    1.185
    15   6 C    3.899 --    14 C    1.260    33 N    1.256    16 C    1.187
    16   6 C    3.956 --    17 C    1.642    15 C    1.187    47 H    0.974
    17   6 C    3.954 --    16 C    1.642    18 C    1.180    48 H    0.973
    18   6 C    3.908 --    19 C    1.328    33 N    1.221    17 C    1.180
    19   6 C    3.935 --    18 C    1.328    28 C    1.321    20 C    1.022
    20   6 C    3.988 --    21 C    1.407    27 C    1.389    19 C    1.022
                            24 C    0.103
    21   6 C    3.987 --    22 C    1.407    20 C    1.407    49 H    0.973
                            25 C    0.105
    22   6 C    3.988 --    24 C    1.426    21 C    1.407    23 C    1.020
                            27 C    0.103
    23   6 C    3.996 --    22 C    1.020    50 H    0.986    52 H    0.977
                            51 H    0.974
    24   6 C    3.989 --    22 C    1.426    25 C    1.405    53 H    0.972
                            20 C    0.103
    25   6 C    3.988 --    27 C    1.426    24 C    1.405    26 C    1.020
                            21 C    0.105
    26   6 C    3.996 --    25 C    1.020    54 H    0.986    55 H    0.977
                            56 H    0.974
    27   6 C    3.987 --    25 C    1.426    20 C    1.389    57 H    0.971
                            22 C    0.103
    28   6 C    3.913 --    19 C    1.321    32 N    1.237    29 C    1.173
    29   6 C    3.958 --    30 C    1.655    28 C    1.173    58 H    0.973
    30   6 C    3.955 --    29 C    1.655    31 C    1.171    59 H    0.976
    31   6 C    3.918 --     2 C    1.361    32 N    1.230    30 C    1.171
    32   7 N    3.244 --    28 C    1.237    31 C    1.230     1 Cu   0.507
    33   7 N    3.248 --    15 C    1.256    18 C    1.221     1 Cu   0.504
    34   6 C    3.988 --    41 C    1.401    35 C    1.393     8 C    1.025
                            38 C    0.103
    35   6 C    3.987 --    36 C    1.421    34 C    1.393    60 H    0.972
                            39 C    0.103
    36   6 C    3.988 --    35 C    1.421    38 C    1.411    37 C    1.020
                            41 C    0.104
    37   6 C    3.996 --    36 C    1.020    62 H    0.985    61 H    0.980
                            63 H    0.972
    38   6 C    3.988 --    39 C    1.420    36 C    1.411    64 H    0.972
                            34 C    0.103
    39   6 C    3.988 --    38 C    1.420    41 C    1.413    40 C    1.020
                            35 C    0.103
    40   6 C    3.996 --    39 C    1.020    66 H    0.984    67 H    0.981
                            65 H    0.971
    41   6 C    3.987 --    39 C    1.413    34 C    1.401    68 H    0.972
                            36 C    0.104
    42   1 H    1.002 --     2 C    0.971
    43   1 H    0.998 --     4 C    0.976
    44   1 H    1.005 --     5 C    0.973
    45   1 H    1.005 --    10 C    0.973
    46   1 H    1.002 --    11 C    0.974
    47   1 H    1.002 --    16 C    0.974
    48   1 H    1.005 --    17 C    0.973
    49   1 H    1.002 --    21 C    0.973
    50   1 H    1.004 --    23 C    0.986
    51   1 H    1.006 --    23 C    0.974
    52   1 H    1.005 --    23 C    0.977
    53   1 H    1.000 --    24 C    0.972
    54   1 H    1.004 --    26 C    0.986
    55   1 H    1.005 --    26 C    0.977
    56   1 H    1.006 --    26 C    0.974
    57   1 H    1.003 --    27 C    0.971
    58   1 H    1.005 --    29 C    0.973
    59   1 H    0.998 --    30 C    0.976
    60   1 H    1.003 --    35 C    0.972
    61   1 H    1.005 --    37 C    0.980
    62   1 H    1.004 --    37 C    0.985
    63   1 H    1.006 --    37 C    0.972
    64   1 H    1.000 --    38 C    0.972
    65   1 H    1.006 --    40 C    0.971
    66   1 H    1.004 --    40 C    0.984
    67   1 H    1.004 --    40 C    0.981
    68   1 H    1.003 --    41 C    0.972
    69  29 Cu   2.193 --   100 N    0.507    75 N    0.507    80 N    0.504
                           101 N    0.504
    70   6 C    3.931 --    99 C    1.361    71 C    1.361   110 H    0.971
    71   6 C    3.918 --    70 C    1.361    75 N    1.229    72 C    1.171
    72   6 C    3.955 --    73 C    1.655    71 C    1.171   111 H    0.976
    73   6 C    3.958 --    72 C    1.655    74 C    1.172   112 H    0.973
    74   6 C    3.913 --    76 C    1.321    75 N    1.238    73 C    1.172
    75   7 N    3.246 --    74 C    1.238    71 C    1.229    69 Cu   0.507
    76   6 C    3.936 --    77 C    1.326    74 C    1.321   102 C    1.024
    77   6 C    3.909 --    76 C    1.326    80 N    1.223    78 C    1.179
    78   6 C    3.956 --    79 C    1.644    77 C    1.179   113 H    0.973
    79   6 C    3.957 --    78 C    1.644    81 C    1.185   114 H    0.974
    80   7 N    3.249 --    81 C    1.253    77 C    1.223    69 Cu   0.504
    81   6 C    3.902 --    82 C    1.266    80 N    1.253    79 C    1.185
    82   6 C    3.940 --    83 C    1.267    81 C    1.266   144 C    1.172
    83   6 C    3.902 --    82 C    1.267   101 N    1.253    84 C    1.185
    84   6 C    3.957 --    85 C    1.644    83 C    1.185   115 H    0.974
    85   6 C    3.956 --    84 C    1.644    86 C    1.179   116 H    0.973
    86   6 C    3.909 --    87 C    1.327   101 N    1.223    85 C    1.179
    87   6 C    3.936 --    86 C    1.327    96 C    1.322    88 C    1.023
    88   6 C    3.988 --    89 C    1.407    95 C    1.389    87 C    1.023
                            92 C    0.103
    89   6 C    3.987 --    90 C    1.408    88 C    1.407   117 H    0.973
                            93 C    0.104
    90   6 C    3.988 --    92 C    1.426    89 C    1.408    91 C    1.020
                            95 C    0.103
    91   6 C    3.996 --    90 C    1.020   118 H    0.986   120 H    0.977
                           119 H    0.974
    92   6 C    3.989 --    90 C    1.426    93 C    1.405   121 H    0.972
                            88 C    0.103
    93   6 C    3.988 --    95 C    1.426    92 C    1.405    94 C    1.020
                            89 C    0.104
    94   6 C    3.996 --    93 C    1.020   122 H    0.986   123 H    0.977
                           124 H    0.974
    95   6 C    3.987 --    93 C    1.426    88 C    1.389   125 H    0.971
                            90 C    0.103
    96   6 C    3.913 --    87 C    1.322   100 N    1.237    97 C    1.172
    97   6 C    3.958 --    98 C    1.656    96 C    1.172   126 H    0.973
    98   6 C    3.955 --    97 C    1.656    99 C    1.171   127 H    0.976
    99   6 C    3.918 --    70 C    1.361   100 N    1.230    98 C    1.171
   100   7 N    3.245 --    96 C    1.237    99 C    1.230    69 Cu   0.507
   101   7 N    3.249 --    83 C    1.253    86 C    1.223    69 Cu   0.504
   102   6 C    3.988 --   109 C    1.401   103 C    1.393    76 C    1.024
                           106 C    0.103
   103   6 C    3.987 --   104 C    1.421   102 C    1.393   128 H    0.972
                           107 C    0.103
   104   6 C    3.988 --   103 C    1.421   106 C    1.411   105 C    1.020
                           109 C    0.104
   105   6 C    3.996 --   104 C    1.020   130 H    0.985   129 H    0.980
                           131 H    0.972
   106   6 C    3.989 --   107 C    1.420   104 C    1.411   132 H    0.972
                           102 C    0.103
   107   6 C    3.988 --   106 C    1.420   109 C    1.413   108 C    1.020
                           103 C    0.103
   108   6 C    3.996 --   107 C    1.020   134 H    0.984   135 H    0.981
                           133 H    0.971
   109   6 C    3.987 --   107 C    1.413   102 C    1.401   136 H    0.972
                           104 C    0.104
   110   1 H    1.002 --    70 C    0.971
   111   1 H    0.998 --    72 C    0.976
   112   1 H    1.005 --    73 C    0.973
   113   1 H    1.005 --    78 C    0.973
   114   1 H    1.002 --    79 C    0.974
   115   1 H    1.002 --    84 C    0.974
   116   1 H    1.005 --    85 C    0.973
   117   1 H    1.002 --    89 C    0.973
   118   1 H    1.004 --    91 C    0.986
   119   1 H    1.006 --    91 C    0.974
   120   1 H    1.005 --    91 C    0.977
   121   1 H    1.000 --    92 C    0.972
   122   1 H    1.004 --    94 C    0.986
   123   1 H    1.005 --    94 C    0.977
   124   1 H    1.006 --    94 C    0.974
   125   1 H    1.003 --    95 C    0.971
   126   1 H    1.005 --    97 C    0.973
   127   1 H    0.998 --    98 C    0.976
   128   1 H    1.003 --   103 C    0.972
   129   1 H    1.005 --   105 C    0.980
   130   1 H    1.004 --   105 C    0.985
   131   1 H    1.006 --   105 C    0.972
   132   1 H    1.000 --   106 C    0.972
   133   1 H    1.006 --   108 C    0.971
   134   1 H    1.004 --   108 C    0.984
   135   1 H    1.004 --   108 C    0.981
   136   1 H    1.003 --   109 C    0.972
   137   6 C    3.936 --   138 C    2.480   139 C    1.306
   138   6 C    3.925 --   137 C    2.480    14 C    1.185   140 C    0.199
   139   6 C    3.933 --   140 C    2.478   137 C    1.306
   140   6 C    3.926 --   139 C    2.478   146 C    1.187   138 C    0.199
   141   6 C    3.932 --   142 C    2.491   143 C    1.293
   142   6 C    3.921 --   141 C    2.491   158 C    1.174   144 C    0.197
   143   6 C    3.935 --   144 C    2.492   141 C    1.293
   144   6 C    3.920 --   143 C    2.492    82 C    1.172   142 C    0.197
   145  29 Cu   2.168 --   177 N    0.500   151 N    0.500   156 N    0.499
                           176 N    0.499
   146   6 C    3.929 --   175 C    1.258   147 C    1.258   140 C    1.187
   147   6 C    3.900 --   151 N    1.258   146 C    1.258   148 C    1.188
   148   6 C    3.955 --   149 C    1.640   147 C    1.188   186 H    0.974
   149   6 C    3.955 --   148 C    1.640   150 C    1.181   187 H    0.973
   150   6 C    3.906 --   152 C    1.324   151 N    1.222   149 C    1.181
   151   7 N    3.242 --   147 C    1.258   150 C    1.222   145 Cu   0.500
   152   6 C    3.931 --   150 C    1.324   153 C    1.324   178 C    1.025
   153   6 C    3.907 --   152 C    1.324   156 N    1.223   154 C    1.180
   154   6 C    3.957 --   155 C    1.642   153 C    1.180   188 H    0.973
   155   6 C    3.955 --   154 C    1.642   157 C    1.186   189 H    0.974
   156   7 N    3.241 --   157 C    1.256   153 C    1.223   145 Cu   0.499
   157   6 C    3.902 --   158 C    1.263   156 N    1.256   155 C    1.186
   158   6 C    3.928 --   159 C    1.264   157 C    1.263   142 C    1.174
   159   6 C    3.902 --   158 C    1.264   177 N    1.255   160 C    1.186
   160   6 C    3.955 --   161 C    1.642   159 C    1.186   190 H    0.974
   161   6 C    3.957 --   160 C    1.642   162 C    1.180   191 H    0.973
   162   6 C    3.907 --   163 C    1.323   177 N    1.224   161 C    1.180
   163   6 C    3.931 --   172 C    1.324   162 C    1.323   164 C    1.025
   164   6 C    3.988 --   165 C    1.400   171 C    1.393   163 C    1.025
                           168 C    0.103
   165   6 C    3.987 --   166 C    1.414   164 C    1.400   192 H    0.972
                           169 C    0.104
   166   6 C    3.988 --   168 C    1.419   165 C    1.414   167 C    1.020
                           171 C    0.103
   167   6 C    3.996 --   166 C    1.020   193 H    0.984   195 H    0.982
                           194 H    0.971
   168   6 C    3.988 --   166 C    1.419   169 C    1.411   196 H    0.972
                           164 C    0.103
   169   6 C    3.988 --   171 C    1.421   168 C    1.411   170 C    1.020
                           165 C    0.104
   170   6 C    3.996 --   169 C    1.020   197 H    0.984   198 H    0.981
                           199 H    0.972
   171   6 C    3.987 --   169 C    1.421   164 C    1.393   200 H    0.972
                           166 C    0.103
   172   6 C    3.907 --   163 C    1.324   176 N    1.222   173 C    1.181
   173   6 C    3.955 --   174 C    1.640   172 C    1.181   201 H    0.973
   174   6 C    3.955 --   173 C    1.640   175 C    1.188   202 H    0.974
   175   6 C    3.900 --   176 N    1.258   146 C    1.258   174 C    1.188
   176   7 N    3.242 --   175 C    1.258   172 C    1.222   145 Cu   0.499
   177   7 N    3.242 --   159 C    1.255   162 C    1.224   145 Cu   0.500
   178   6 C    3.988 --   179 C    1.400   185 C    1.394   152 C    1.025
                           182 C    0.103
   179   6 C    3.987 --   180 C    1.414   178 C    1.400   203 H    0.972
                           183 C    0.104
   180   6 C    3.988 --   182 C    1.418   179 C    1.414   181 C    1.020
                           185 C    0.103
   181   6 C    3.996 --   180 C    1.020   204 H    0.984   206 H    0.982
                           205 H    0.971
   182   6 C    3.988 --   180 C    1.418   183 C    1.412   207 H    0.972
                           178 C    0.103
   183   6 C    3.988 --   185 C    1.420   182 C    1.412   184 C    1.020
                           179 C    0.104
   184   6 C    3.996 --   183 C    1.020   209 H    0.983   208 H    0.982
                           210 H    0.971
   185   6 C    3.987 --   183 C    1.420   178 C    1.394   211 H    0.972
                           180 C    0.103
   186   1 H    1.002 --   148 C    0.974
   187   1 H    1.005 --   149 C    0.973
   188   1 H    1.005 --   154 C    0.973
   189   1 H    1.002 --   155 C    0.974
   190   1 H    1.002 --   160 C    0.974
   191   1 H    1.005 --   161 C    0.973
   192   1 H    1.003 --   165 C    0.972
   193   1 H    1.004 --   167 C    0.984
   194   1 H    1.006 --   167 C    0.971
   195   1 H    1.004 --   167 C    0.982
   196   1 H    1.000 --   168 C    0.972
   197   1 H    1.004 --   170 C    0.984
   198   1 H    1.005 --   170 C    0.981
   199   1 H    1.006 --   170 C    0.972
   200   1 H    1.003 --   171 C    0.972
   201   1 H    1.005 --   173 C    0.973
   202   1 H    1.002 --   174 C    0.974
   203   1 H    1.003 --   179 C    0.972
   204   1 H    1.004 --   181 C    0.984
   205   1 H    1.006 --   181 C    0.971
   206   1 H    1.004 --   181 C    0.982
   207   1 H    1.000 --   182 C    0.972
   208   1 H    1.004 --   184 C    0.982
   209   1 H    1.004 --   184 C    0.983
   210   1 H    1.006 --   184 C    0.971
   211   1 H    1.003 --   185 C    0.972
 ---------------------------------------------------------------------------

           -------------------------------------------------
          | TOTAL ENERGY             -340.111177023366 Eh   |
          | GRADIENT NORM               0.000655295880 Eh/α |
          | HOMO-LUMO GAP               0.000030345782 eV   |
           -------------------------------------------------

 * finished run on 2022/07/30 at 07:08:11.929
