   * xtb version 6.5.1 (b24c23e) compiled by 'conda@728c89f4b128' on 2022-07-12
          program call               : xtb Ni_Py_C8_2.xyz --gfn 1 --opt -T 48

   ID    Z sym.   atoms
    1   28 Ni     1, 55
    2    6 C      2-6, 8-11, 13-17, 19-24, 26-29, 31-36, 56-60, 62-65, 67-71,
                  73-78, 80-83, 85-90, 109-116
    3    7 N      7, 12, 18, 25, 30, 37, 61, 66, 72, 79, 84, 91
    4    1 H      38-54, 92-108
########################################################################
[WARNING] Please study the warnings concerning your input carefully
-1- prog_main_parseArguments: Unknown option '-T' provided
########################################################################

          :  Hamiltonian                  GFN1-xTB          :
 * total energy  :  -208.0179479 Eh     change       -0.9018208E-10 Eh
 * total energy  :  -208.2771921 Eh     change       -0.2592442E+00 Eh
 * total energy  :  -208.3510508 Eh     change       -0.7385862E-01 Eh
 * total energy  :  -208.3775320 Eh     change       -0.2648122E-01 Eh
 * total energy  :  -208.3878085 Eh     change       -0.1027652E-01 Eh
 * total energy  :  -208.3933962 Eh     change       -0.5587684E-02 Eh
 * total energy  :  -208.3952772 Eh     change       -0.1881042E-02 Eh
 * total energy  :  -208.3972928 Eh     change       -0.2015542E-02 Eh
 * total energy  :  -208.3981581 Eh     change       -0.8653660E-03 Eh
 * total energy  :  -208.3989871 Eh     change       -0.8289800E-03 Eh
 * total energy  :  -208.4013619 Eh     change       -0.1087529E-04 Eh
 * total energy  :  -208.4013708 Eh     change       -0.8871105E-05 Eh
 * total energy  :  -208.4013794 Eh     change       -0.8655187E-05 Eh
 * total energy  :  -208.4013916 Eh     change       -0.1220890E-04 Eh
 * total energy  :  -208.4014028 Eh     change       -0.1121729E-04 Eh
 * total energy  :  -208.4014106 Eh     change       -0.7719767E-05 Eh
 * total energy  :  -208.4014078 Eh     change        0.2766787E-05 Eh
 * total energy  :  -208.4014156 Eh     change       -0.7771294E-05 Eh
 * total energy  :  -208.4014177 Eh     change       -0.2133749E-05 Eh
   *** GEOMETRY OPTIMIZATION CONVERGED AFTER 46 ITERATIONS ***

 final structure:
================
116
 xtb: 6.5.1 (b24c23e)
Ni           9.81581076532588       -0.03432843808879       -0.02241985485719
C            6.42141114470600       -0.06335516304210       -0.06959869226761
C            7.07840717307824       -1.27566208297999       -0.04701729285204
C            6.40323098300502       -2.53742346750269       -0.02752865603546
C            7.35886524358842       -3.48666896283150        0.10211825456919
C            8.61876529558101       -2.80383485055900        0.14935781319909
N            8.43710464549583       -1.44767911663420        0.04271714228970
C            9.83473224682970       -3.43969685286213        0.36072627510925
C            9.84300897175290       -4.91197622102836        0.53754914510339
C           10.20130355551803       -5.49198136524976        1.75317083463502
C           10.18859418982156       -6.87306480589004        1.87116832534542
N            9.85359137692914       -7.68223219154831        0.87151953604214
C            9.51452932247803       -7.13649161897790       -0.29189379400978
C            9.49150558839126       -5.76712111385983       -0.50550956933097
C           11.04349647765520       -2.75952292295691        0.40565983779448
C           12.30944297759043       -3.40523134279286        0.57848282271391
C           13.25774937895116       -2.44657995614683        0.45254107505733
N           11.21587629457531       -1.41044694693342        0.19014951336421
C           12.57005123646323       -1.22013155535467        0.20145794488030
C           13.23067831727776       -0.01520364242655       -0.05470028971507
C           12.55076176243567        1.18571132494243       -0.27582906768415
C           13.21709317866449        2.41978300542904       -0.54545284259113
C           12.25705490761573        3.37280256254847       -0.61445848125161
C           11.00621066979411        2.71711877978351       -0.38056463038697
N           11.19644919435747        1.36492664936303       -0.20547256669340
C            9.78781812295134        3.38053752655137       -0.32264103187018
C            9.77781346014335        4.85643325499016       -0.44880631408722
C            9.11678086262553        5.48839490805877       -1.50141703218635
C            9.13720613587265        6.87207618533274       -1.57848916185900
N            9.75852868307088        7.63797767610582       -0.68757454051648
C           10.38991442847102        7.04353803284318        0.31965926165738
C           10.42966980753497        5.66733670461438        0.47940653802412
C            8.57766244110551        2.71758269282881       -0.16448371758948
C            7.30844287357532        3.37933856013526       -0.08008795821591
C            6.36471475896936        2.41090931154615       -0.02449131213613
C            7.05845456136132        1.15976799524743       -0.05706340136956
N            8.41574102560425        1.35571781744527       -0.11276026208361
H            5.33778394713590       -0.07235253220829       -0.08347969294556
H            5.33363494643559       -2.65890666711088       -0.09115954585912
H            7.23472611370263       -4.55496484344493        0.17297233999530
H           10.47269481743602       -4.87024339657005        2.59794192095309
H           10.45907605732034       -7.34912917633816        2.80912015860150
H            9.24869954078288       -7.82380651039565       -1.08969082153704
H            9.21748862257287       -5.36612151513105       -1.47400936230915
H           12.44480179046974       -4.45949591138466        0.75611325320978
H           14.32942477404604       -2.54637730387396        0.51259756842773
H           14.28330382910606        2.52694295986178       -0.66276612342072
H           12.37445457580785        4.42548067187323       -0.81293586807642
H            8.60723049952864        4.90366148113073       -2.25797441699969
H            8.63260529153135        7.38672434164151       -2.39094642054121
H           10.88691421521702        7.69607654070494        1.03149163188835
H           10.94781934275503        5.22687200830017        1.32286964051797
H            7.17079801707682        4.44818118478311       -0.06307117091393
H            5.29308715477111        2.51376057687233        0.03780036039667
Ni          28.38845614941260        0.02335176771520       -0.03075529700402
C           31.78292795591705        0.03928160378705       -0.08082689246070
C           31.12568730938950        1.20551460961406       -0.41218142210859
C           31.80063118665930        2.41900024825029       -0.75885840723306
C           30.84461951199463        3.36434968969622       -0.91208106973401
C           29.58474700407375        2.72382042725936       -0.67067024297233
N           29.76682051319457        1.39531452787786       -0.37832066563090
C           28.36829224142455        3.39281597534936       -0.65522978568779
C           28.35908391123989        4.85286371818159       -0.91427057501872
C           27.99751125674520        5.76103056019941        0.07922918888126
C           28.00839319718069        7.11667265699748       -0.20991319894778
N           28.34483279778845        7.60036726752264       -1.40117380806104
C           28.68740417801190        6.74017459357385       -2.35461437376287
C           28.71230097020528        5.36796318016272       -2.16034560080683
C           27.15958782316025        2.75431695998722       -0.41614929072897
C           25.89329947148414        3.42165247662148       -0.44002148231437
C           24.94537490429039        2.46739743612537       -0.28201621912917
N           26.98776894823632        1.40082171128101       -0.22978689235464
C           25.63362936609798        1.22134379945476       -0.16448207605388
C           24.97356798559474       -0.00626817408879       -0.05862125172969
C           25.65401874291507       -1.21935099093944        0.07835703589194
C           24.98822178573020       -2.47885714536567        0.17819368488015
C           25.94858466627654       -3.41044034020879        0.38928645430601
C           27.19907238838444       -2.71447076931189        0.42353488816823
N           27.00834185713122       -1.36979389787688        0.19835044246454
C           28.41755455471926       -3.33174722108768        0.67288872756399
C           28.42849017090084       -4.78052338880508        0.98146252254509
C           29.09135502766141       -5.69064172572116        0.15887866637706
C           29.07287490640347       -7.03680042438674        0.48812876232494
N           28.45172224915199       -7.51097832555223        1.56317671219767
C           27.81836952609438       -6.64997022737564        2.35312919351793
C           27.77657338867248       -5.28696106193286        2.10509446524739
C           29.62734053031329       -2.65068004036302        0.63301461071056
C           30.89656727469531       -3.25859227117091        0.90774438298719
C           31.84002393443063       -2.31520336303971        0.68089322672277
C           31.14608628694769       -1.12789898079467        0.28537181809658
N           29.78891002887372       -1.33239347274848        0.28723796741203
H           32.86657592722171        0.04450605415264       -0.09513971118249
H           32.87032625919486        2.51746076650351       -0.85321960564352
H           30.96844492031468        4.40727838673148       -1.15428284862472
H           27.72488205544395        5.41170101554466        1.06791355740954
H           27.73525033259962        7.84468964654300        0.54833743091795
H           28.95414486790764        7.16593135266025       -3.31749652871851
H           28.98891443758486        4.70285578887973       -2.96966533199678
H           25.75742084333340        4.48186619717663       -0.57720998987434
H           23.87363252962828        2.57987097241594       -0.25462921638291
H           23.92210918159317       -2.61586578812381        0.09630405417263
H           25.83169751236665       -4.47546813232107        0.50493643993990
H           29.60101995667705       -5.35074354749382       -0.73479177497302
H           29.57918473638838       -7.76493576416673       -0.13879936610293
H           27.32150707028255       -7.06767638950986        3.22386453461738
H           27.25693799488869       -4.62078575064547        2.78340551135499
H           31.03442082113060       -4.27628901125525        1.23476389667231
H           32.91157350104693       -2.39486262215459        0.77186922978406
C           14.63530165574371       -0.01094689992679       -0.08189300196243
C           15.85943532098054       -0.00488764081188       -0.09744812729674
C           17.20259633187645       -0.01062575893593       -0.10992483923148
C           18.43288587650742       -0.01528504141373       -0.11689679736850
C           19.77129159891927       -0.02149488172773       -0.11775092608249
C           21.00164987098470       -0.02211106856316       -0.11164706400463
C           22.34482457876929       -0.02151968076366       -0.09889385428636
C           23.56891922230235       -0.01860687045484       -0.08185417128333

          :  Hamiltonian                  GFN1-xTB          :
         :: total energy            -208.401417704687 Eh    ::
         :: gradient norm              0.000633243690 Eh/a0 ::
         :: HOMO-LUMO gap              1.215931840417 eV    ::
         :: SCC energy              -211.773158216886 Eh    ::
         :: repulsion energy           3.475563450108 Eh    ::

    * Orbital Energies and Occupations

         #    Occupation            Energy/Eh            Energy/eV
      -------------------------------------------------------------
         1        2.0000           -0.7872202             -21.4214
       ...           ...                  ...                  ...
       181        2.0000           -0.4131812             -11.2432
       182        2.0000           -0.4048377             -11.0162
       183        2.0000           -0.4048261             -11.0159
       184        2.0000           -0.4043600             -11.0032
       185        2.0000           -0.4043579             -11.0031
       186        2.0000           -0.4036484             -10.9838
       187        2.0000           -0.4036474             -10.9838
       188        2.0000           -0.4025768             -10.9547
       189        2.0000           -0.4025752             -10.9546
       190        2.0000           -0.4025154             -10.9530
       191        2.0000           -0.4025142             -10.9530
       192        2.0000           -0.4000944             -10.8871
       193        2.0000           -0.3906838             -10.6310 (HOMO)
       194                         -0.3459992              -9.4151 (LUMO)
       195                         -0.3366703              -9.1613
       196                         -0.3366664              -9.1612
       197                         -0.3360021              -9.1431
       198                         -0.3349266              -9.1138
       199                         -0.3349166              -9.1135
       200                         -0.3094502              -8.4206
       201                         -0.3057404              -8.3196
       202                         -0.3016484              -8.2083
       203                         -0.2865723              -7.7980
       204                         -0.2836957              -7.7198
       ...                                ...                  ...
       406                          1.6009787              43.5648
      -------------------------------------------------------------
                  HL-Gap            0.0446847 Eh            1.2159 eV

Wiberg/Mayer (AO) data.
largest (>0.10) Wiberg bond orders for each atom

     #   Z sym  total        # sym  WBO       # sym  WBO       # sym  WBO
 ---------------------------------------------------------------------------
     1  28 Ni   3.010 --    37 N    0.664     7 N    0.664    25 N    0.661
                            18 N    0.661
     2   6 C    3.935 --     3 C    1.364    36 C    1.364    38 H    0.970
     3   6 C    3.923 --     2 C    1.364     7 N    1.213     4 C    1.174
     4   6 C    3.960 --     5 C    1.651     3 C    1.174    39 H    0.975
     5   6 C    3.963 --     4 C    1.651     6 C    1.176    40 H    0.972
     6   6 C    3.920 --     8 C    1.324     7 N    1.221     5 C    1.176
     7   7 N    3.402 --     6 C    1.221     3 C    1.213     1 Ni   0.664
     8   6 C    3.939 --    15 C    1.330     6 C    1.324     9 C    1.022
     9   6 C    3.986 --    10 C    1.395    14 C    1.395     8 C    1.022
                            12 N    0.107
    10   6 C    3.988 --    11 C    1.441     9 C    1.395    41 H    0.973
                            13 C    0.109
    11   6 C    3.972 --    10 C    1.441    12 N    1.416    42 H    0.972
                            14 C    0.109
    12   7 N    3.032 --    11 C    1.416    13 C    1.416     9 C    0.107
    13   6 C    3.972 --    14 C    1.441    12 N    1.416    43 H    0.972
                            10 C    0.109
    14   6 C    3.988 --    13 C    1.441     9 C    1.395    44 H    0.973
                            11 C    0.109
    15   6 C    3.915 --     8 C    1.330    18 N    1.205    16 C    1.183
    16   6 C    3.958 --    17 C    1.637    15 C    1.183    45 H    0.973
    17   6 C    3.961 --    16 C    1.637    19 C    1.190    46 H    0.973
    18   7 N    3.407 --    19 C    1.240    15 C    1.205     1 Ni   0.661
    19   6 C    3.902 --    20 C    1.262    18 N    1.240    17 C    1.190
    20   6 C    3.944 --    21 C    1.263    19 C    1.262   109 C    1.186
    21   6 C    3.902 --    20 C    1.263    25 N    1.238    22 C    1.191
    22   6 C    3.961 --    23 C    1.636    21 C    1.191    47 H    0.973
    23   6 C    3.959 --    22 C    1.636    24 C    1.184    48 H    0.973
    24   6 C    3.915 --    26 C    1.327    25 N    1.206    23 C    1.184
    25   7 N    3.406 --    21 C    1.238    24 C    1.206     1 Ni   0.661
    26   6 C    3.939 --    24 C    1.327    33 C    1.322    27 C    1.028
    27   6 C    3.986 --    32 C    1.393    28 C    1.393    26 C    1.028
                            30 N    0.107
    28   6 C    3.987 --    29 C    1.442    27 C    1.393    49 H    0.973
                            31 C    0.109
    29   6 C    3.972 --    28 C    1.442    30 N    1.416    50 H    0.972
                            32 C    0.109
    30   7 N    3.030 --    29 C    1.416    31 C    1.416    27 C    0.107
    31   6 C    3.972 --    32 C    1.442    30 N    1.416    51 H    0.972
                            28 C    0.109
    32   6 C    3.987 --    31 C    1.442    27 C    1.393    52 H    0.973
                            29 C    0.109
    33   6 C    3.920 --    26 C    1.322    37 N    1.222    34 C    1.176
    34   6 C    3.963 --    35 C    1.649    33 C    1.176    53 H    0.972
    35   6 C    3.960 --    34 C    1.649    36 C    1.175    54 H    0.975
    36   6 C    3.923 --     2 C    1.364    37 N    1.213    35 C    1.175
    37   7 N    3.402 --    33 C    1.222    36 C    1.213     1 Ni   0.664
    38   1 H    1.000 --     2 C    0.970
    39   1 H    0.997 --     4 C    0.975
    40   1 H    1.004 --     5 C    0.972
    41   1 H    1.003 --    10 C    0.973
    42   1 H    1.013 --    11 C    0.972
    43   1 H    1.013 --    13 C    0.972
    44   1 H    1.003 --    14 C    0.973
    45   1 H    1.004 --    16 C    0.973
    46   1 H    1.002 --    17 C    0.973
    47   1 H    1.001 --    22 C    0.973
    48   1 H    1.004 --    23 C    0.973
    49   1 H    1.004 --    28 C    0.973
    50   1 H    1.013 --    29 C    0.972
    51   1 H    1.013 --    31 C    0.972
    52   1 H    1.004 --    32 C    0.973
    53   1 H    1.004 --    34 C    0.972
    54   1 H    0.997 --    35 C    0.975
    55  28 Ni   3.010 --    91 N    0.664    61 N    0.664    79 N    0.661
                            72 N    0.661
    56   6 C    3.935 --    57 C    1.364    90 C    1.364    92 H    0.970
    57   6 C    3.923 --    56 C    1.364    61 N    1.213    58 C    1.174
    58   6 C    3.960 --    59 C    1.651    57 C    1.174    93 H    0.975
    59   6 C    3.963 --    58 C    1.651    60 C    1.176    94 H    0.972
    60   6 C    3.920 --    62 C    1.324    61 N    1.221    59 C    1.176
    61   7 N    3.402 --    60 C    1.221    57 C    1.213    55 Ni   0.664
    62   6 C    3.939 --    69 C    1.330    60 C    1.324    63 C    1.022
    63   6 C    3.986 --    64 C    1.395    68 C    1.395    62 C    1.022
                            66 N    0.107
    64   6 C    3.988 --    65 C    1.441    63 C    1.395    95 H    0.973
                            67 C    0.109
    65   6 C    3.972 --    64 C    1.441    66 N    1.416    96 H    0.972
                            68 C    0.109
    66   7 N    3.032 --    65 C    1.416    67 C    1.416    63 C    0.107
    67   6 C    3.972 --    68 C    1.441    66 N    1.416    97 H    0.972
                            64 C    0.109
    68   6 C    3.988 --    67 C    1.441    63 C    1.395    98 H    0.973
                            65 C    0.109
    69   6 C    3.915 --    62 C    1.330    72 N    1.205    70 C    1.183
    70   6 C    3.958 --    71 C    1.637    69 C    1.183    99 H    0.973
    71   6 C    3.961 --    70 C    1.637    73 C    1.190   100 H    0.973
    72   7 N    3.407 --    73 C    1.240    69 C    1.205    55 Ni   0.661
    73   6 C    3.902 --    74 C    1.262    72 N    1.240    71 C    1.190
    74   6 C    3.944 --    75 C    1.263    73 C    1.262   116 C    1.186
    75   6 C    3.902 --    74 C    1.263    79 N    1.238    76 C    1.191
    76   6 C    3.961 --    77 C    1.636    75 C    1.191   101 H    0.973
    77   6 C    3.959 --    76 C    1.636    78 C    1.184   102 H    0.973
    78   6 C    3.915 --    80 C    1.327    79 N    1.206    77 C    1.184
    79   7 N    3.406 --    75 C    1.238    78 C    1.206    55 Ni   0.661
    80   6 C    3.939 --    78 C    1.327    87 C    1.322    81 C    1.028
    81   6 C    3.986 --    86 C    1.393    82 C    1.392    80 C    1.028
                            84 N    0.107
    82   6 C    3.987 --    83 C    1.442    81 C    1.392   103 H    0.973
                            85 C    0.109
    83   6 C    3.972 --    82 C    1.442    84 N    1.416   104 H    0.972
                            86 C    0.109
    84   7 N    3.030 --    85 C    1.416    83 C    1.416    81 C    0.107
    85   6 C    3.972 --    86 C    1.442    84 N    1.416   105 H    0.972
                            82 C    0.109
    86   6 C    3.987 --    85 C    1.442    81 C    1.393   106 H    0.973
                            83 C    0.109
    87   6 C    3.920 --    80 C    1.322    91 N    1.222    88 C    1.176
    88   6 C    3.963 --    89 C    1.649    87 C    1.176   107 H    0.972
    89   6 C    3.960 --    88 C    1.649    90 C    1.175   108 H    0.975
    90   6 C    3.923 --    56 C    1.364    91 N    1.213    89 C    1.175
    91   7 N    3.402 --    87 C    1.222    90 C    1.213    55 Ni   0.664
    92   1 H    1.000 --    56 C    0.970
    93   1 H    0.997 --    58 C    0.975
    94   1 H    1.004 --    59 C    0.972
    95   1 H    1.003 --    64 C    0.973
    96   1 H    1.013 --    65 C    0.972
    97   1 H    1.013 --    67 C    0.972
    98   1 H    1.003 --    68 C    0.973
    99   1 H    1.004 --    70 C    0.973
   100   1 H    1.002 --    71 C    0.973
   101   1 H    1.001 --    76 C    0.973
   102   1 H    1.004 --    77 C    0.973
   103   1 H    1.004 --    82 C    0.973
   104   1 H    1.013 --    83 C    0.972
   105   1 H    1.013 --    85 C    0.972
   106   1 H    1.004 --    86 C    0.973
   107   1 H    1.004 --    88 C    0.972
   108   1 H    0.997 --    89 C    0.975
   109   6 C    3.878 --   110 C    2.445    20 C    1.186   112 C    0.187
   110   6 C    3.938 --   109 C    2.445   111 C    1.341
   111   6 C    3.895 --   112 C    2.341   110 C    1.341   114 C    0.183
   112   6 C    3.928 --   111 C    2.341   113 C    1.366   109 C    0.187
   113   6 C    3.928 --   114 C    2.341   112 C    1.366   116 C    0.187
   114   6 C    3.895 --   113 C    2.341   115 C    1.341   111 C    0.183
   115   6 C    3.938 --   116 C    2.445   114 C    1.341
   116   6 C    3.878 --   115 C    2.445    74 C    1.186   113 C    0.187
 ---------------------------------------------------------------------------

           -------------------------------------------------
          | TOTAL ENERGY             -208.401417704687 Eh   |
          | GRADIENT NORM               0.000633243690 Eh/α |
          | HOMO-LUMO GAP               1.215931840417 eV   |
           -------------------------------------------------

 * finished run on 2022/07/30 at 02:41:09.441
