   * xtb version 6.5.1 (b24c23e) compiled by 'conda@728c89f4b128' on 2022-07-12
          program call               : xtb Ni_DHP_C2_3.xyz --gfn 1 --opt -T 48

   ID    Z sym.   atoms
    1   28 Ni     1, 59, 121
    2    6 C      2-6, 8-11, 13-17, 19-24, 26-29, 31-36, 60-64, 66-69, 71-75,
                  77-82, 84-87, 89-94, 117-120, 122-126, 128-131, 133-137,
                  139-144, 146-149, 151-156
    3    7 N      7, 12, 18, 25, 30, 37, 65, 70, 76, 83, 88, 95, 127, 132,
                  138, 145, 150, 157
    4    1 H      38-58, 96-116, 158-177
########################################################################
[WARNING] Please study the warnings concerning your input carefully
-1- prog_main_parseArguments: Unknown option '-T' provided
########################################################################

          :  Hamiltonian                  GFN1-xTB          :
 * total energy  :  -301.1449074 Eh     change       -0.4006097E-08 Eh
 * total energy  :  -301.3286233 Eh     change       -0.1837159E+00 Eh
 * total energy  :  -301.4868285 Eh     change       -0.1582052E+00 Eh
 * total energy  :  -301.5551147 Eh     change       -0.6828624E-01 Eh
 * total energy  :  -301.6090691 Eh     change       -0.5395439E-01 Eh
 * total energy  :  -301.6545262 Eh     change       -0.4545706E-01 Eh
 * total energy  :  -301.6863961 Eh     change       -0.3186995E-01 Eh
 * total energy  :  -301.7092720 Eh     change       -0.2287594E-01 Eh
 * total energy  :  -301.7262920 Eh     change       -0.1701993E-01 Eh
 * total energy  :  -301.7394074 Eh     change       -0.1311540E-01 Eh
 * total energy  :  -301.8297897 Eh     change       -0.1231333E-04 Eh
 * total energy  :  -301.8298014 Eh     change       -0.1173443E-04 Eh
 * total energy  :  -301.8298127 Eh     change       -0.1132854E-04 Eh
 * total energy  :  -301.8298243 Eh     change       -0.1154620E-04 Eh
 * total energy  :  -301.8298381 Eh     change       -0.1378424E-04 Eh
 * total energy  :  -301.8298542 Eh     change       -0.1609848E-04 Eh
 * total energy  :  -301.8298699 Eh     change       -0.1569709E-04 Eh
 * total energy  :  -301.8298843 Eh     change       -0.1442500E-04 Eh
 * total energy  :  -301.8298890 Eh     change       -0.4676068E-05 Eh
   *** GEOMETRY OPTIMIZATION CONVERGED AFTER 185 ITERATIONS ***

 final structure:
================
177
 xtb: 6.5.1 (b24c23e)
Ni          30.49994528180085        0.25864257481229       -0.15762527031469
C           27.28654326298980        0.08789961661608       -1.19396888036815
C           27.88249160050344       -1.07470115385565       -0.74635062123222
C           27.19467774182178       -2.32260069227035       -0.61854704095568
C           28.08031259839179       -3.20334743460903       -0.09472294552914
C           29.32608122585607       -2.50785350412171        0.04517166910698
N           29.18093663945768       -1.19176123524497       -0.32107711359897
C           30.52697609293029       -3.11219195157733        0.39412623765566
C           30.55330119573851       -4.55896097321448        0.71483600774299
C           30.18789691953022       -5.49544712033586       -0.17295836146899
C           30.20358310068181       -6.96669179469027        0.15197251306847
N           31.01325862121474       -7.23808057548431        1.34275041613501
C           31.20656450597723       -6.26743033035352        2.29119370263795
C           31.03044084976251       -4.96014756129018        2.03085319464016
C           31.73485630696383       -2.42302616161806        0.38998098656072
C           33.00961979210403       -3.06177205544372        0.51031145935553
C           33.94790779960852       -2.09111553881693        0.39178854047031
N           31.89348156945579       -1.06954565096481        0.20683625079360
C           33.24585597270592       -0.85712223130926        0.23763520723409
C           33.87207663664802        0.39165361436323        0.25213489079829
C           33.15004488474022        1.58918183180550        0.27071304343431
C           33.73920284392032        2.85968144770893        0.54890406659533
C           32.73354988684457        3.76845318179597        0.53579073624235
C           31.53740179074079        3.05730210946738        0.20210939382093
N           31.80134064184949        1.71080802924223        0.08135278925541
C           30.31831975611503        3.66705055669245       -0.06609485583759
C           30.20229276285406        5.13947434576826        0.05986054643821
C           29.33702661488471        5.69658493822208        0.91990331372819
C           29.17842594102567        7.18830411732619        1.05686400229826
N           30.30563020943525        7.90008326440961        0.44762780551408
C           31.03201547247455        7.31970229060456       -0.56045637811176
C           31.04694149808092        5.99095918506870       -0.76571386091911
C           29.21408833905974        2.95274526801110       -0.51693737728317
C           28.01978294322623        3.56124514784493       -1.02478880617055
C           27.19715533683388        2.55578866771889       -1.40764245930020
C           27.87560832828744        1.33271319615859       -1.10475131231155
N           29.12273995875840        1.58607634774814       -0.58996749758339
H           26.26948563008886        0.03021849318552       -1.56409264547636
H           26.15904941004855       -2.47920818350702       -0.87601328802512
H           27.91713136514587       -4.23582033545064        0.16829099388817
H           29.85001979720342       -5.23820318239718       -1.16996700787243
H           30.63163525142538       -7.53404512085787       -0.68547731451207
H           29.17167132242439       -7.33583067663504        0.30260514791765
H           30.93403041931656       -8.18548492269050        1.68280775891865
H           31.59308692130393       -6.62868360511009        3.23886841643361
H           31.24112330032839       -4.20351123172257        2.77318322165240
H           33.15711439836493       -4.12093108225480        0.64508679053504
H           35.02113690504127       -2.18694356901489        0.42039738867899
H           34.78537325734358        3.01878652057440        0.75468474655816
H           32.79033882373980        4.82841901458525        0.72251951094296
H           28.69190319378732        5.09489842845407        1.54951518050713
H           29.13427826193493        7.46865771811468        2.11792086623294
H           28.22835364475008        7.51465114781471        0.59344552017079
H           30.16400365708191        8.89737493275671        0.37458602016275
H           31.65786028422239        8.00559207361487       -1.12249016863291
H           31.66173001824050        5.54649009589670       -1.53539168288495
H           27.85402013634263        4.62412754159770       -1.09470542969853
H           26.21054863227614        2.61737138503946       -1.83902321771493
Ni          52.13354134103460        0.21680920839054        0.08906105087289
C           55.51319941085836        0.00815392814598       -0.10261687906519
C           54.94604039488133        1.26032623345639        0.01628429323500
C           55.70516109274807        2.46983278689148        0.10493720272171
C           54.81324992379811        3.48849796799230        0.11120188400340
C           53.50963709510923        2.90091120738921        0.00804228752909
N           53.60069352017213        1.53071915087989       -0.00431297676805
C           52.33577231590810        3.62971271559428       -0.13240316993077
C           52.41329632201397        5.10733744979787       -0.22053721423444
C           53.07776047829521        5.72149037782012       -1.21060500333277
C           53.18223908395839        7.22133865914128       -1.30659628554075
N           52.18782797462532        7.87869542681246       -0.45401757646088
C           51.67996780884577        7.23793602093138        0.64661478845620
C           51.73052641163235        5.90209011034243        0.79061552612765
C           51.08600582227105        3.02613034022674       -0.19778580780387
C           49.86705917519205        3.74542602598733       -0.40865426650225
C           48.85924016152288        2.84482390080166       -0.31424613610762
N           50.82774181058292        1.68600458668627       -0.01960907069646
C           49.46326736291288        1.57753178475635       -0.05281917971308
C           48.73270181978701        0.42426096350199        0.24281420104060
C           49.34105806711595       -0.81022610562026        0.48310791731260
C           48.61401325196407       -1.99294916663833        0.81804804848940
C           49.51180510060000       -3.00726833021325        0.84857820679402
C           50.78531854854150       -2.44284071237208        0.52101417198694
N           50.67444974329882       -1.08322118272954        0.33649415329849
C           51.94257065644166       -3.19364337705533        0.35711401331440
C           51.85630398714502       -4.66824206116652        0.48241109758614
C           52.53785590340686       -5.33485731592758        1.42579271407067
C           52.48062547305887       -6.83423048582308        1.56006102254189
N           51.35043334101305       -7.39292659848880        0.81256712770405
C           50.81581542523753       -6.71826640417590       -0.25445195335440
C           50.99735031778250       -5.39879079119497       -0.43859471263589
C           53.17398195766852       -2.61542298755798        0.07729254802974
C           54.37616139081876       -3.36043777751456       -0.15710960585061
C           55.37873089929312       -2.45934614064233       -0.28365171138669
C           54.78742773690730       -1.16463675786583       -0.13774928778385
N           53.43082572438508       -1.26704910304307        0.04405446264530
H           56.59312086504528       -0.05840076251054       -0.16639029628993
H           56.78157517677143        2.51344915062502        0.15712310077705
H           55.00806691934218        4.54640512738877        0.17997860316073
H           53.58897708631348        5.16413334560487       -1.98685902472024
H           53.00992962560601        7.54697482840895       -2.34141655371794
H           54.20010164927719        7.55154265625643       -1.02604492334983
H           52.32256261669640        8.87559138157517       -0.36601238295960
H           51.16094059765107        7.88296127041097        1.34842560259574
H           51.27894069658388        5.40898560250376        1.63964514757906
H           49.80166881644309        4.80370586826221       -0.60210919440040
H           47.79806404967241        3.01147220169633       -0.40409991965628
H           47.55173523847395       -2.03005837953592        0.99755128974030
H           49.33712230281581       -4.04787797436990        1.06835645982096
H           53.18123761259454       -4.82445616341896        2.13302951191700
H           52.36146645111281       -7.11514251045679        2.61542017929026
H           53.42761420042299       -7.28468826817965        1.20799454698920
H           51.36925820960671       -8.39982632173746        0.73858110431397
H           50.16785183916698       -7.31394938068649       -0.88950794891025
H           50.52584310325263       -4.87354330053337       -1.25695031246284
H           54.43196251395335       -4.43513871076323       -0.21838439334991
H           56.42821860473504       -2.63587012160157       -0.45883283717299
C           35.27754808030372        0.44860853667978        0.34248803070119
C           36.49024368523762        0.50494534121256        0.41621821276788
C           46.11549556722730        0.58107392678642        0.39187286734131
C           47.32717698920958        0.50954861132912        0.31659822666159
Ni          41.30207911292140        0.72210960406814        0.65863560296800
C           37.89456599318152        0.57933166458508        0.50960679756318
C           38.53924153742918        1.72054373284393        0.02337179910419
C           37.84509526668537        2.85915730018525       -0.48648784878493
C           38.78893797355809        3.73665062898933       -0.90587064544065
C           40.05835245176749        3.11538068463067       -0.68224953319808
N           39.89291988309762        1.89289945452211       -0.06961186965292
C           41.26571898955311        3.63740941857957       -1.12521259536845
C           41.26537716584940        4.91159469654320       -1.88298287445251
C           40.63245045166158        5.03068408018334       -3.05965206513907
C           40.67487577289287        6.29847729549205       -3.87134960146308
N           41.08759589451964        7.43739952458126       -3.04723144248356
C           41.87384197972208        7.24539381469798       -1.94028724394368
C           41.97676705015390        6.05318872541404       -1.32691431989273
C           42.47954239069591        2.98959477909061       -0.93329907451273
C           43.71300798725041        3.42876473911040       -1.50954441438044
C           44.67032951340383        2.56596973803072       -1.08999819029316
N           42.67698699124194        1.85509584997118       -0.18114885708120
C           44.02305050032319        1.61344335128892       -0.24575150106715
C           44.71095160321160        0.64703798566072        0.49134440225020
C           44.06291654618342       -0.22626965501201        1.36997318984331
C           44.75566418914088       -1.09255408045160        2.26850576149479
C           43.81077217529563       -1.79170175364201        2.94345256228805
C           42.54238409131879       -1.37462549643040        2.42931449387843
N           42.70921681981389       -0.37685678471243        1.49434850898071
C           41.33405452515660       -1.97316457281556        2.76044316394803
C           41.32638319421331       -3.10786672090330        3.71403191397083
C           41.98231921196316       -4.25086392051654        3.46464610689521
C           41.99502897157971       -5.40335188152998        4.43500391938935
N           40.92603227976754       -5.27148195469194        5.42837792851637
C           40.41882028676275       -4.03896556525111        5.74833078925120
C           40.55503441287043       -2.97199179456258        4.94146860509944
C           40.12431030498224       -1.57539913633586        2.20456541298586
C           38.89169831535008       -2.27285070981739        2.40576776624687
C           37.93769587567576       -1.58409876643019        1.73377871744325
C           38.58568714696170       -0.46014320739875        1.13680482288794
N           39.92937420955555       -0.47775004072847        1.39877575639959
H           36.77256717893440        2.96497257648536       -0.50800393517110
H           38.64781151257252        4.71492802069834       -1.33542326489914
H           40.12090125243870        4.19350136120704       -3.51992647332982
H           41.36299833420177        6.18002154953946       -4.72981378469370
H           39.68016676598837        6.51889262764020       -4.28123867588344
H           41.26027111747871        8.28061950096897       -3.57547287732582
H           42.33519962211810        8.14658925568865       -1.54910730591099
H           42.54121629226747        5.93597598036769       -0.41277745468498
H           43.81959491499028        4.28143252109314       -2.16045534785326
H           45.72422670374901        2.56822217138746       -1.31661666039724
H           45.82747325152946       -1.13642330567346        2.37499618201392
H           43.95249632966575       -2.52683071694078        3.71858554679741
H           42.55156960259011       -4.39647106345493        2.55405130826080
H           42.97716257125109       -5.46548466795923        4.94033448895416
H           41.84562265844798       -6.35077655089509        3.89979478601446
H           40.98432708499321       -5.94037185906376        6.18246257828337
H           39.82920923372554       -4.01245640072725        6.65911390560070
H           40.10299961283354       -2.02060161487911        5.18302128795942
H           38.78241397351371       -3.17690421386964        2.98231780549973
H           36.88378001392081       -1.79665090040023        1.65726116897529

          :  Hamiltonian                  GFN1-xTB          :
         :: total energy            -301.829888966341 Eh    ::
         :: gradient norm              0.000384364222 Eh/a0 ::
         :: HOMO-LUMO gap              0.930361819319 eV    ::
         :: SCC energy              -306.346101352335 Eh    ::
         :: repulsion energy           4.678825950790 Eh    ::

    * Orbital Energies and Occupations

         #    Occupation            Energy/Eh            Energy/eV
      -------------------------------------------------------------
         1        2.0000           -0.7796255             -21.2147
       ...           ...                  ...                  ...
       267        2.0000           -0.3862580             -10.5106
       268        2.0000           -0.3862347             -10.5100
       269        2.0000           -0.3860924             -10.5061
       270        2.0000           -0.3853908             -10.4870
       271        2.0000           -0.3852860             -10.4842
       272        2.0000           -0.3813098             -10.3760
       273        2.0000           -0.3734295             -10.1615
       274        2.0000           -0.3697258             -10.0608
       275        2.0000           -0.3695133             -10.0550
       276        2.0000           -0.3693697             -10.0511
       277        2.0000           -0.3689677             -10.0401
       278        2.0000           -0.3685688             -10.0293
       279        2.0000           -0.3671000              -9.9893 (HOMO)
       280                         -0.3329099              -9.0589 (LUMO)
       281                         -0.3223925              -8.7727
       282                         -0.3193467              -8.6899
       283                         -0.3189174              -8.6782
       284                         -0.3188504              -8.6764
       285                         -0.3178517              -8.6492
       286                         -0.3174449              -8.6381
       287                         -0.3146226              -8.5613
       288                         -0.3121260              -8.4934
       289                         -0.2904743              -7.9042
       290                         -0.2837046              -7.7200
       ...                                ...                  ...
       599                          1.3520921              36.7923
      -------------------------------------------------------------
                  HL-Gap            0.0341902 Eh            0.9304 eV

Wiberg/Mayer (AO) data.
largest (>0.10) Wiberg bond orders for each atom

     #   Z sym  total        # sym  WBO       # sym  WBO       # sym  WBO
 ---------------------------------------------------------------------------
     1  28 Ni   3.022 --    37 N    0.666    18 N    0.665     7 N    0.664
                            25 N    0.663
     2   6 C    3.932 --    36 C    1.365     3 C    1.358    38 H    0.971
     3   6 C    3.926 --     2 C    1.358     7 N    1.217     4 C    1.177
     4   6 C    3.959 --     5 C    1.645     3 C    1.177    39 H    0.975
     5   6 C    3.963 --     4 C    1.645     6 C    1.178    40 H    0.973
     6   6 C    3.921 --     8 C    1.326     7 N    1.216     5 C    1.178
     7   7 N    3.401 --     3 C    1.217     6 C    1.216     1 Ni   0.664
     8   6 C    3.939 --     6 C    1.326    15 C    1.320     9 C    1.025
     9   6 C    3.988 --    10 C    1.768    14 C    1.097     8 C    1.025
    10   6 C    3.972 --     9 C    1.768    11 C    1.013    41 H    0.971
    11   6 C    3.961 --    10 C    1.013    42 H    0.976    43 H    0.966
                            12 N    0.949
    12   7 N    3.248 --    13 C    1.161    11 C    0.949    44 H    0.928
                            14 C    0.128
    13   6 C    3.958 --    14 C    1.693    12 N    1.161    45 H    0.971
    14   6 C    3.967 --    13 C    1.693     9 C    1.097    46 H    0.974
                            12 N    0.128
    15   6 C    3.914 --     8 C    1.320    18 N    1.211    16 C    1.187
    16   6 C    3.960 --    17 C    1.633    15 C    1.187    47 H    0.973
    17   6 C    3.962 --    16 C    1.633    19 C    1.192    48 H    0.970
    18   7 N    3.408 --    19 C    1.232    15 C    1.211     1 Ni   0.665
    19   6 C    3.909 --    20 C    1.271    18 N    1.232    17 C    1.192
    20   6 C    3.942 --    19 C    1.271    21 C    1.264   117 C    1.169
    21   6 C    3.910 --    20 C    1.264    25 N    1.240    22 C    1.193
    22   6 C    3.962 --    23 C    1.632    21 C    1.193    49 H    0.971
    23   6 C    3.959 --    22 C    1.632    24 C    1.186    50 H    0.971
    24   6 C    3.915 --    26 C    1.328    25 N    1.203    23 C    1.186
    25   7 N    3.407 --    21 C    1.240    24 C    1.203     1 Ni   0.663
    26   6 C    3.939 --    24 C    1.328    33 C    1.319    27 C    1.024
    27   6 C    3.988 --    28 C    1.769    32 C    1.097    26 C    1.024
    28   6 C    3.973 --    27 C    1.769    29 C    1.013    51 H    0.972
    29   6 C    3.961 --    28 C    1.013    52 H    0.976    53 H    0.966
                            30 N    0.949
    30   7 N    3.246 --    31 C    1.160    29 C    0.949    54 H    0.928
                            32 C    0.127
    31   6 C    3.958 --    32 C    1.693    30 N    1.160    55 H    0.971
    32   6 C    3.968 --    31 C    1.693    27 C    1.097    56 H    0.973
                            30 N    0.127
    33   6 C    3.920 --    26 C    1.319    37 N    1.222    34 C    1.179
    34   6 C    3.963 --    35 C    1.646    33 C    1.179    57 H    0.974
    35   6 C    3.959 --    34 C    1.646    36 C    1.176    58 H    0.975
    36   6 C    3.926 --     2 C    1.365    37 N    1.211    35 C    1.176
    37   7 N    3.402 --    33 C    1.222    36 C    1.211     1 Ni   0.666
    38   1 H    1.001 --     2 C    0.971
    39   1 H    0.998 --     4 C    0.975
    40   1 H    1.007 --     5 C    0.973
    41   1 H    1.004 --    10 C    0.971
    42   1 H    1.019 --    11 C    0.976
    43   1 H    1.008 --    11 C    0.966
    44   1 H    0.964 --    12 N    0.928
    45   1 H    1.001 --    13 C    0.971
    46   1 H    1.003 --    14 C    0.974
    47   1 H    1.004 --    16 C    0.973
    48   1 H    1.005 --    17 C    0.970
    49   1 H    1.004 --    22 C    0.971
    50   1 H    1.006 --    23 C    0.971
    51   1 H    1.003 --    28 C    0.972
    52   1 H    1.019 --    29 C    0.976
    53   1 H    1.008 --    29 C    0.966
    54   1 H    0.964 --    30 N    0.928
    55   1 H    1.001 --    31 C    0.971
    56   1 H    1.003 --    32 C    0.973
    57   1 H    1.006 --    34 C    0.974
    58   1 H    0.998 --    35 C    0.975
    59  28 Ni   3.022 --    95 N    0.664    65 N    0.664    76 N    0.664
                            83 N    0.664
    60   6 C    3.933 --    94 C    1.363    61 C    1.362    96 H    0.970
    61   6 C    3.926 --    60 C    1.362    65 N    1.214    62 C    1.177
    62   6 C    3.959 --    63 C    1.647    61 C    1.177    97 H    0.975
    63   6 C    3.963 --    62 C    1.647    64 C    1.178    98 H    0.973
    64   6 C    3.920 --    66 C    1.324    65 N    1.219    63 C    1.178
    65   7 N    3.400 --    64 C    1.219    61 C    1.214    59 Ni   0.664
    66   6 C    3.940 --    64 C    1.324    73 C    1.324    67 C    1.025
    67   6 C    3.988 --    68 C    1.768    72 C    1.098    66 C    1.025
    68   6 C    3.973 --    67 C    1.768    69 C    1.013    99 H    0.972
    69   6 C    3.961 --    68 C    1.013   100 H    0.976   101 H    0.966
                            70 N    0.949
    70   7 N    3.247 --    71 C    1.160    69 C    0.949   102 H    0.928
                            72 C    0.127
    71   6 C    3.958 --    72 C    1.693    70 N    1.160   103 H    0.971
    72   6 C    3.967 --    71 C    1.693    67 C    1.098   104 H    0.974
                            70 N    0.127
    73   6 C    3.914 --    66 C    1.324    76 N    1.208    74 C    1.186
    74   6 C    3.960 --    75 C    1.634    73 C    1.186   105 H    0.972
    75   6 C    3.962 --    74 C    1.634    77 C    1.192   106 H    0.970
    76   7 N    3.406 --    77 C    1.234    73 C    1.208    59 Ni   0.664
    77   6 C    3.910 --    78 C    1.270    76 N    1.234    75 C    1.192
    78   6 C    3.943 --    77 C    1.270    79 C    1.269   120 C    1.167
    79   6 C    3.910 --    78 C    1.269    83 N    1.235    80 C    1.192
    80   6 C    3.962 --    81 C    1.634    79 C    1.192   107 H    0.971
    81   6 C    3.960 --    80 C    1.634    82 C    1.186   108 H    0.972
    82   6 C    3.914 --    84 C    1.325    83 N    1.207    81 C    1.186
    83   7 N    3.406 --    79 C    1.235    82 C    1.207    59 Ni   0.664
    84   6 C    3.940 --    82 C    1.325    91 C    1.324    85 C    1.024
    85   6 C    3.988 --    86 C    1.768    90 C    1.098    84 C    1.024
    86   6 C    3.973 --    85 C    1.768    87 C    1.013   109 H    0.972
    87   6 C    3.961 --    86 C    1.013   110 H    0.976   111 H    0.967
                            88 N    0.949
    88   7 N    3.247 --    89 C    1.160    87 C    0.949   112 H    0.928
                            90 C    0.127
    89   6 C    3.958 --    90 C    1.692    88 N    1.160   113 H    0.971
    90   6 C    3.968 --    89 C    1.692    85 C    1.098   114 H    0.974
                            88 N    0.127
    91   6 C    3.920 --    84 C    1.324    95 N    1.219    92 C    1.178
    92   6 C    3.963 --    93 C    1.647    91 C    1.178   115 H    0.973
    93   6 C    3.960 --    92 C    1.647    94 C    1.177   116 H    0.975
    94   6 C    3.926 --    60 C    1.363    95 N    1.213    93 C    1.177
    95   7 N    3.400 --    91 C    1.219    94 C    1.213    59 Ni   0.664
    96   1 H    1.001 --    60 C    0.970
    97   1 H    0.998 --    62 C    0.975
    98   1 H    1.007 --    63 C    0.973
    99   1 H    1.003 --    68 C    0.972
   100   1 H    1.019 --    69 C    0.976
   101   1 H    1.008 --    69 C    0.966
   102   1 H    0.964 --    70 N    0.928
   103   1 H    1.001 --    71 C    0.971
   104   1 H    1.003 --    72 C    0.974
   105   1 H    1.005 --    74 C    0.972
   106   1 H    1.005 --    75 C    0.970
   107   1 H    1.005 --    80 C    0.971
   108   1 H    1.005 --    81 C    0.972
   109   1 H    1.003 --    86 C    0.972
   110   1 H    1.019 --    87 C    0.976
   111   1 H    1.008 --    87 C    0.967
   112   1 H    0.964 --    88 N    0.928
   113   1 H    1.001 --    89 C    0.971
   114   1 H    1.003 --    90 C    0.974
   115   1 H    1.007 --    92 C    0.973
   116   1 H    0.998 --    93 C    0.975
   117   6 C    3.934 --   118 C    2.585    20 C    1.169
   118   6 C    3.935 --   117 C    2.585   122 C    1.170
   119   6 C    3.936 --   120 C    2.587   140 C    1.169
   120   6 C    3.933 --   119 C    2.587    78 C    1.167
   121  28 Ni   3.008 --   157 N    0.663   138 N    0.661   127 N    0.661
                           145 N    0.661
   122   6 C    3.933 --   156 C    1.270   123 C    1.264   118 C    1.170
   123   6 C    3.912 --   122 C    1.264   127 N    1.240   124 C    1.194
   124   6 C    3.961 --   125 C    1.632   123 C    1.194   158 H    0.971
   125   6 C    3.960 --   124 C    1.632   126 C    1.186   159 H    0.973
   126   6 C    3.914 --   128 C    1.328   127 N    1.203   125 C    1.186
   127   7 N    3.400 --   123 C    1.240   126 C    1.203   121 Ni   0.661
   128   6 C    3.935 --   126 C    1.328   135 C    1.321   129 C    1.023
   129   6 C    3.988 --   130 C    1.766   134 C    1.099   128 C    1.023
   130   6 C    3.973 --   129 C    1.766   131 C    1.013   160 H    0.972
   131   6 C    3.961 --   130 C    1.013   162 H    0.975   161 H    0.967
                           132 N    0.949
   132   7 N    3.248 --   133 C    1.160   131 C    0.949   163 H    0.928
                           134 C    0.127
   133   6 C    3.958 --   134 C    1.693   132 N    1.160   164 H    0.971
   134   6 C    3.967 --   133 C    1.693   129 C    1.099   165 H    0.973
                           132 N    0.127
   135   6 C    3.913 --   128 C    1.321   138 N    1.209   136 C    1.188
   136   6 C    3.961 --   137 C    1.632   135 C    1.188   166 H    0.973
   137   6 C    3.960 --   136 C    1.632   139 C    1.193   167 H    0.970
   138   7 N    3.399 --   139 C    1.234   135 C    1.209   121 Ni   0.661
   139   6 C    3.911 --   140 C    1.270   138 N    1.234   137 C    1.193
   140   6 C    3.933 --   139 C    1.270   141 C    1.264   119 C    1.169
   141   6 C    3.913 --   140 C    1.264   145 N    1.240   142 C    1.195
   142   6 C    3.960 --   143 C    1.630   141 C    1.195   168 H    0.971
   143   6 C    3.960 --   142 C    1.630   144 C    1.187   169 H    0.973
   144   6 C    3.915 --   146 C    1.327   145 N    1.203   143 C    1.187
   145   7 N    3.399 --   141 C    1.240   144 C    1.203   121 Ni   0.661
   146   6 C    3.935 --   144 C    1.327   153 C    1.321   147 C    1.025
   147   6 C    3.988 --   148 C    1.767   152 C    1.098   146 C    1.025
   148   6 C    3.973 --   147 C    1.767   149 C    1.013   170 H    0.972
   149   6 C    3.961 --   148 C    1.013   172 H    0.976   171 H    0.966
                           150 N    0.949
   150   7 N    3.248 --   151 C    1.161   149 C    0.949   173 H    0.928
                           152 C    0.127
   151   6 C    3.958 --   152 C    1.692   150 N    1.161   174 H    0.971
   152   6 C    3.967 --   151 C    1.692   147 C    1.098   175 H    0.974
                           150 N    0.127
   153   6 C    3.912 --   146 C    1.321   157 N    1.208   154 C    1.188
   154   6 C    3.961 --   155 C    1.633   153 C    1.188   176 H    0.972
   155   6 C    3.960 --   154 C    1.633   156 C    1.192   177 H    0.970
   156   6 C    3.910 --   122 C    1.270   157 N    1.234   155 C    1.192
   157   7 N    3.401 --   156 C    1.234   153 C    1.208   121 Ni   0.663
   158   1 H    1.005 --   124 C    0.971
   159   1 H    1.007 --   125 C    0.973
   160   1 H    1.003 --   130 C    0.972
   161   1 H    1.009 --   131 C    0.967
   162   1 H    1.018 --   131 C    0.975
   163   1 H    0.964 --   132 N    0.928
   164   1 H    1.002 --   133 C    0.971
   165   1 H    1.003 --   134 C    0.973
   166   1 H    1.005 --   136 C    0.973
   167   1 H    1.004 --   137 C    0.970
   168   1 H    1.004 --   142 C    0.971
   169   1 H    1.007 --   143 C    0.973
   170   1 H    1.004 --   148 C    0.972
   171   1 H    1.008 --   149 C    0.966
   172   1 H    1.019 --   149 C    0.976
   173   1 H    0.964 --   150 N    0.928
   174   1 H    1.001 --   151 C    0.971
   175   1 H    1.003 --   152 C    0.974
   176   1 H    1.005 --   154 C    0.972
   177   1 H    1.005 --   155 C    0.970
 ---------------------------------------------------------------------------

           -------------------------------------------------
          | TOTAL ENERGY             -301.829888966341 Eh   |
          | GRADIENT NORM               0.000384364222 Eh/α |
          | HOMO-LUMO GAP               0.930361819319 eV   |
           -------------------------------------------------

 * finished run on 2022/07/30 at 02:59:11.886
