   * xtb version 6.5.1 (b24c23e) compiled by 'conda@728c89f4b128' on 2022-07-12
          program call               : xtb Cu_DHP_C8_3.xyz --gfn 1 --opt -T 48

   ID    Z sym.   atoms
    1   29 Cu     1, 59, 133
    2    6 C      2-6, 8-11, 13-17, 19-24, 26-29, 31-36, 60-64, 66-69, 71-75,
                  77-82, 84-87, 89-94, 117-132, 134-138, 140-143, 145-149,
                  151-156, 158-161, 163-168
    3    7 N      7, 12, 18, 25, 30, 37, 65, 70, 76, 83, 88, 95, 139, 144,
                  150, 157, 162, 169
    4    1 H      38-58, 96-116, 170-189
########################################################################
[WARNING] Please study the warnings concerning your input carefully
-1- prog_main_parseArguments: Unknown option '-T' provided
########################################################################

          :  Hamiltonian                  GFN1-xTB          :
 * total energy  :  -326.7145172 Eh     change        0.1035744E-08 Eh
 * total energy  :  -327.1968458 Eh     change       -0.4823286E+00 Eh
 * total energy  :  -327.3727017 Eh     change       -0.1758559E+00 Eh
 * total energy  :  -327.4578823 Eh     change       -0.8518065E-01 Eh
 * total energy  :  -327.5086576 Eh     change       -0.5077527E-01 Eh
 * total energy  :  -327.5453247 Eh     change       -0.3666713E-01 Eh
 * total energy  :  -327.5761109 Eh     change       -0.3078614E-01 Eh
 * total energy  :  -327.6042286 Eh     change       -0.2811767E-01 Eh
 * total energy  :  -327.6326827 Eh     change       -0.2845418E-01 Eh
 * total energy  :  -327.6619847 Eh     change       -0.2930197E-01 Eh
 * total energy  :  -327.9582762 Eh     change       -0.8729133E-05 Eh
 * total energy  :  -327.9582849 Eh     change       -0.8761964E-05 Eh
 * total energy  :  -327.9582934 Eh     change       -0.8459511E-05 Eh
 * total energy  :  -327.9583004 Eh     change       -0.6993383E-05 Eh
 * total energy  :  -327.9583078 Eh     change       -0.7404133E-05 Eh
 * total energy  :  -327.9583154 Eh     change       -0.7604066E-05 Eh
 * total energy  :  -327.9583220 Eh     change       -0.6563253E-05 Eh
 * total energy  :  -327.9583271 Eh     change       -0.5115216E-05 Eh
 * total energy  :  -327.9583313 Eh     change       -0.4209450E-05 Eh
   *** GEOMETRY OPTIMIZATION CONVERGED AFTER 121 ITERATIONS ***

 final structure:
================
189
 xtb: 6.5.1 (b24c23e)
Cu          22.71075220326151        0.32381387416060        0.16358499682135
C           19.31506731247004        0.13024940012535       -0.00195893066092
C           20.00982000211951       -1.07003898929324       -0.01848769212107
C           19.39733204381086       -2.36681707425932       -0.05498351119032
C           20.40192290569005       -3.27811039435770       -0.05369456458874
C           21.63860626750663       -2.54558509207643       -0.02926347567139
N           21.36865534009431       -1.20718446898554       -0.00064182493091
C           22.91265647939034       -3.11867176027488       -0.01734885279784
C           23.00620548267477       -4.59745813030038       -0.10103865715194
C           22.55251571169952       -5.27273174266472       -1.16742777868458
C           22.62512025676746       -6.77443239334412       -1.26566345570918
N           23.56271254824265       -7.32519615189639       -0.28337520194481
C           23.84419108970803       -6.64250924539290        0.87139394430172
C           23.62742933927045       -5.32150719673370        0.99899509651240
C           24.10903005756250       -2.40376345507664        0.06784584192892
C           25.41839702531376       -2.99006723838079        0.02589063257702
C           26.31365044123381       -1.97440788835725        0.11974290833018
N           24.22807868324704       -1.04313060472797        0.17772300523929
C           25.55885407659939       -0.76103670722021        0.21293275265409
C           26.12956525542278        0.51913884887151        0.32560942163065
C           25.40959216670757        1.72553627056464        0.37752034516542
C           26.00993535083663        3.01637495269282        0.53223882657966
C           25.00029912447110        3.92331928473807        0.53635943797255
C           23.77549841195621        3.19212382737680        0.37709476652792
N           24.05793503714701        1.85438489103390        0.28719708520437
C           22.50283044507283        3.76562105554806        0.34645885974627
C           22.41901592128639        5.24493076042629        0.43301199767107
C           21.79791416507256        5.85656946876666        1.45231282789117
C           21.68987927645348        7.35605599114194        1.55188286249092
N           22.64201977286034        8.01689337429736        0.65513921637962
C           23.10128211676436        7.37870476336617       -0.46763508221657
C           23.04910341378217        6.04250525492586       -0.60959915730259
C           21.30686000511072        3.05156208698638        0.23958850967154
C           19.99846626215741        3.63920928942556        0.14269765557318
C           19.10833337248463        2.62011734723911        0.04921966296053
C           19.86455843102367        1.40127660539837        0.07631916077542
N           21.19445189414015        1.69146612273671        0.18950946052349
H           18.23284084534179        0.06866397048102       -0.05487917806239
H           18.33319212493373       -2.54354358178100       -0.06804993596509
H           20.31986917460667       -4.35311287313962       -0.05639307495136
H           22.09474740476045       -4.76810082765779       -2.01029372530757
H           22.96823898201015       -7.07197355404684       -2.26579694083681
H           21.62104236772892       -7.21560151809184       -1.12063727745501
H           23.53307767941959       -8.33188126641708       -0.21091065235114
H           24.33190251604189       -7.23252700879708        1.64081776971645
H           23.90247330302273       -4.78940993346183        1.89856527680597
H           25.62221497396213       -4.04399395610489       -0.07308221148260
H           27.39047487035509       -2.03111880967341        0.11985824334259
H           27.06884205403285        3.19464769757865        0.63113153531575
H           25.07298202219524        4.99326738693143        0.64619341046915
H           21.32705911931363        5.29715929938356        2.25230629820527
H           21.90679180748408        7.68365067502355        2.57764431089450
H           20.65891939552051        7.68112586091530        1.31677382039652
H           22.50379365322751        9.01405148299328        0.57672486142965
H           23.58492119486398        8.02576257956171       -1.19249898220679
H           23.46212399194361        5.55134453780050       -1.47918644214981
H           19.79525956709707        4.69799761881704        0.13494562213679
H           18.03474309102215        2.67506657257164       -0.04126361046302
Cu          59.88602910413919        0.22575258596078        0.17057215803264
C           63.28895572580164        0.31865454484352        0.07986512641640
C           62.63762202054436        1.52340631140990        0.29904658166967
C           63.29630234744668        2.77692371394584        0.52937705938882
C           62.32481477603879        3.70719952045255        0.70390451426388
C           61.06269573121718        3.03238420179833        0.56875888453026
N           61.28443792580246        1.70598047258649        0.33119660097837
C           59.80970832238263        3.63995368049111        0.68081998789694
C           59.76952264200435        5.10762935429929        0.89771340300720
C           60.26434466390180        5.96754504764767       -0.00483202772539
C           60.24576309824059        7.45954378258058        0.20438998887150
N           59.30706173843178        7.83385124854279        1.26549458320045
C           58.98325227722511        6.94281644426470        2.25560996481968
C           59.15440862958921        5.61641625006358        2.11555948120762
C           58.58735366833942        2.96949402784874        0.60442129283954
C           57.30079057109683        3.60295067521635        0.66298679010315
C           56.36837636234053        2.62466336125230        0.53937210306147
N           58.41785295856462        1.62009207362622        0.43777262717790
C           57.07755118485709        1.38838851796710        0.39889000106441
C           56.45958067690964        0.13337794571037        0.25430443804568
C           57.13531020911741       -1.08675428405188        0.07888642651267
C           56.48752972108443       -2.35933568532812       -0.02859862609339
C           57.46431829442964       -3.28661693325764       -0.19623956301955
C           58.71655246002566       -2.58499315876611       -0.19893521753269
N           58.48296623158762       -1.24631590007448       -0.02387872051636
C           59.96832184929756       -3.18841456868696       -0.33610005487953
C           59.99867101819812       -4.65688036358577       -0.54961932177490
C           60.58621131640185       -5.48442508040557        0.32722687671755
C           60.64218901789621       -6.97581899500519        0.12068199962688
N           59.67993587573779       -7.40682358267277       -0.89706081492441
C           59.25644728631570       -6.53790451434651       -1.86903842030352
C           59.35471510852400       -5.20344398558728       -1.73570841532012
C           61.19066439884363       -2.51338539340435       -0.28975910887528
C           62.47867584145666       -3.11884009153954       -0.49303626501561
C           63.40600760897637       -2.13655945133443       -0.37140757986964
C           62.69344270557039       -0.92020406258424       -0.10507119154377
N           61.35242685628193       -1.17632690414814       -0.06413763480645
H           64.37342374519868        0.34839337594112        0.05041005154207
H           64.36612594560918        2.91194060062179        0.56180419634235
H           62.44491393774775        4.75717366910287        0.91721027328194
H           60.71850958476764        5.62758645894841       -0.92828826725725
H           59.93416528604378        7.96720795974627       -0.71842038402829
H           61.26119364106689        7.82343719943436        0.45014256103119
H           59.36786358069633        8.80358060674271        1.54030793405978
H           58.50148751155099        7.38240998788839        3.12316555431948
H           58.84622041372682        4.92373945816331        2.88578300541166
H           57.13662259228575        4.66251367247635        0.77468853603634
H           55.29453765239713        2.72251162221439        0.53636401836200
H           55.42155200603013       -2.51338122423734        0.02490519531791
H           57.35239065675710       -4.35374338366275       -0.30055966804077
H           61.06654705286737       -5.11610140819187        1.22626456808476
H           60.40130392071526       -7.49677676873342        1.05724677678280
H           61.66455083780303       -7.28289723795216       -0.16967746904673
H           59.78687814397657       -8.37117038674950       -1.17672847011195
H           58.76088872997949       -7.00675824110442       -2.71320624225552
H           58.96939328576657       -4.53166235524459       -2.48953748502014
H           62.64435811547588       -4.16120651701271       -0.71301589524362
H           64.47825430574160       -2.21316952164801       -0.46220485341542
C           27.53184071422096        0.59687898624944        0.38903235096029
C           28.75368464764198        0.65549840449221        0.44089402555339
C           30.09475296209597        0.70997536964929        0.49231266111253
C           31.32387700771400        0.74922614623604        0.53487828415350
C           32.66133871525235        0.77953543101550        0.57179843775416
C           33.89144294679437        0.79449210863798        0.60061400135600
C           35.23414913982278        0.80115794996774        0.62338364901470
C           36.45862665966105        0.79420878548584        0.63826639858267
C           46.12954399633151        0.40032471463008        0.53629256679857
C           47.35156268072542        0.32732848766592        0.50348547929594
C           48.69237047747684        0.25692985002451        0.46793384967913
C           49.92106434910025        0.19739584277819        0.43398914495386
C           51.25811579960998        0.14747145422706        0.39592709739936
C           52.48758151334279        0.11314301815842        0.36063845904592
C           53.83037405519689        0.09968292751168        0.32316740685127
C           55.05420582348161        0.10321851429623        0.28785977825795
Cu          41.29643375022863        0.65336038271387        0.62805056124060
C           37.86346838778804        0.76914380511494        0.64596069400474
C           38.53100927403322        1.50865013909167       -0.34736763385384
C           37.87570922812381        2.33701939815137       -1.31398716283823
C           38.84673265958448        2.87705241218034       -2.09405095105379
C           40.10128794110524        2.37038029645727       -1.61572565652119
N           39.87609064461099        1.54654256691562       -0.54454320926492
C           41.34911610280106        2.67802346164833       -2.16026334729409
C           41.37979283941779        3.55388709639840       -3.35827796262093
C           40.81811272665501        3.18064726506799       -4.51769274827765
C           40.88358219602128        4.03328949605441       -5.75747369560410
N           41.24335277589546        5.41521152873789       -5.42975771724126
C           41.95655098131481        5.70149361101729       -4.29498630961165
C           42.03464224522035        4.84984765941046       -3.25716667775289
C           42.57590250649785        2.22338582664217       -1.67228021188235
C           43.84735073997601        2.48125328822415       -2.28525216127781
C           44.78787727024073        1.86148122601883       -1.52730044964460
N           42.76037111429928        1.44730180513554       -0.55925386693942
C           44.09702518465259        1.21926054612592       -0.44987281811015
C           44.72697128616705        0.48124926397758        0.56846645519471
C           44.06292149234044       -0.17686680072437        1.61974335076236
C           44.72548219659495       -0.86080041316335        2.68858262983156
C           43.75671604460042       -1.35993474021181        3.49838970270432
C           42.49490466890435       -0.99514476728670        2.92051336892260
N           42.71520790593544       -0.26529711047179        1.78229141457110
C           41.24538781405099       -1.33040963491140        3.44669651492851
C           41.21544787386651       -2.18372917985423        4.66050602605465
C           41.71795018071516       -3.42730450483936        4.66072505333447
C           41.70708852307294       -4.30334481133709        5.88631133396121
N           40.76451284856562       -3.79977811776395        6.88878671260250
C           40.43413983137017       -2.46972364756241        6.92694089349554
C           40.59955530037649       -1.65561491974432        5.86963803311839
C           40.01584034819288       -0.93121172039409        2.91801947135414
C           38.73559210695749       -1.34063251944275        3.42086997524602
C           37.79407324394882       -0.76066430871565        2.63378049019092
C           38.49221674728231        0.00345708794573        1.64413218379181
N           39.83423808856693       -0.11616873660783        1.83244537670160
H           36.80971746518554        2.48839722455011       -1.37365293249231
H           38.72959212819673        3.56585823989301       -2.91490285354262
H           40.34939889264115        2.21090521668270       -4.63805736544433
H           41.61205708792977        3.61052517132263       -6.47484434176061
H           39.90624837547406        4.04664880306873       -6.25858026749579
H           41.43899120595688        5.98904823267660       -6.23723878156048
H           42.38032163189732        6.70020786829499       -4.26525057587938
H           42.53714477293880        5.12332344715568       -2.34029147285244
H           43.99532574345382        3.05308830670365       -3.18726628253743
H           45.85504450264297        1.83162224915728       -1.67932158871648
H           45.79517085118118       -0.93424764614267        2.80338454834906
H           43.88248664637221       -1.91466078880239        4.41400826483967
H           42.17267802423759       -3.85955107519615        3.77702150187530
H           42.72317481425393       -4.36708563761885        6.31900096547698
H           41.40400894621827       -5.32449358665710        5.61879665000504
H           40.83089180527669       -4.26782508840216        7.78111566033383
H           39.95089602103962       -2.14732038354620        7.84384742783345
H           40.28548273188262       -0.62187874466946        5.89905552446753
H           38.58112975994284       -1.99666326717157        4.26220388365040
H           36.72115903442437       -0.84068441978991        2.70624571329837

          :  Hamiltonian                  GFN1-xTB          :
         :: total energy            -327.958331298051 Eh    ::
         :: gradient norm              0.000491781126 Eh/a0 ::
         :: HOMO-LUMO gap              0.000451776341 eV    ::
         :: SCC energy              -333.236703448927 Eh    ::
         :: repulsion energy           5.442520459351 Eh    ::

    * Orbital Energies and Occupations

         #    Occupation            Energy/Eh            Energy/eV
      -------------------------------------------------------------
         1        2.0000           -0.7797258             -21.2174
       ...           ...                  ...                  ...
       293        2.0000           -0.3886618             -10.5760
       294        2.0000           -0.3884594             -10.5705
       295        2.0000           -0.3802789             -10.3479
       296        2.0000           -0.3787647             -10.3067
       297        2.0000           -0.3745608             -10.1923
       298        2.0000           -0.3698408             -10.0639
       299        2.0000           -0.3697500             -10.0614
       300        2.0000           -0.3692839             -10.0487
       301        2.0000           -0.3687547             -10.0343
       302        2.0000           -0.3686746             -10.0321
       303        2.0000           -0.3676987             -10.0056
       304        1.0234           -0.3490909              -9.4992
       305        0.9922           -0.3490241              -9.4974 (HOMO)
       306        0.9844           -0.3490075              -9.4970 (LUMO)
       307                         -0.3325309              -9.0486
       308                         -0.3271043              -8.9010
       309                         -0.3251504              -8.8478
       310                         -0.3201828              -8.7126
       311                         -0.3201380              -8.7114
       312                         -0.3195901              -8.6965
       313                         -0.3017477              -8.2110
       314                         -0.2937206              -7.9925
       315                         -0.2935033              -7.9866
       316                         -0.2838833              -7.7249
       ...                                ...                  ...
       647                          1.6136930              43.9108
      -------------------------------------------------------------
                  HL-Gap            0.0000166 Eh            0.0005 eV

Wiberg/Mayer (AO) data.
largest (>0.10) Wiberg bond orders for each atom

     #   Z sym  total        # sym  WBO       # sym  WBO       # sym  WBO
 ---------------------------------------------------------------------------
     1  29 Cu   2.192 --    37 N    0.506     7 N    0.506    18 N    0.504
                            25 N    0.504
     2   6 C    3.927 --    36 C    1.361     3 C    1.361    38 H    0.971
     3   6 C    3.920 --     2 C    1.361     7 N    1.230     4 C    1.172
     4   6 C    3.955 --     5 C    1.653     3 C    1.172    39 H    0.976
     5   6 C    3.958 --     4 C    1.653     6 C    1.174    40 H    0.974
     6   6 C    3.913 --     8 C    1.319     7 N    1.238     5 C    1.174
     7   7 N    3.244 --     6 C    1.238     3 C    1.230     1 Cu   0.506
     8   6 C    3.936 --    15 C    1.326     6 C    1.319     9 C    1.025
     9   6 C    3.988 --    10 C    1.768    14 C    1.098     8 C    1.025
    10   6 C    3.971 --     9 C    1.768    11 C    1.013    41 H    0.972
    11   6 C    3.961 --    10 C    1.013    42 H    0.976    43 H    0.966
                            12 N    0.949
    12   7 N    3.248 --    13 C    1.161    11 C    0.949    44 H    0.928
                            14 C    0.127
    13   6 C    3.958 --    14 C    1.691    12 N    1.161    45 H    0.971
    14   6 C    3.968 --    13 C    1.691     9 C    1.098    46 H    0.974
                            12 N    0.127
    15   6 C    3.907 --     8 C    1.326    18 N    1.221    16 C    1.180
    16   6 C    3.955 --    17 C    1.642    15 C    1.180    47 H    0.972
    17   6 C    3.957 --    16 C    1.642    19 C    1.187    48 H    0.974
    18   7 N    3.248 --    19 C    1.257    15 C    1.221     1 Cu   0.504
    19   6 C    3.897 --    20 C    1.258    18 N    1.257    17 C    1.187
    20   6 C    3.938 --    21 C    1.259    19 C    1.258   117 C    1.188
    21   6 C    3.897 --    20 C    1.259    25 N    1.256    22 C    1.187
    22   6 C    3.957 --    23 C    1.642    21 C    1.187    49 H    0.974
    23   6 C    3.955 --    22 C    1.642    24 C    1.180    50 H    0.972
    24   6 C    3.907 --    26 C    1.326    25 N    1.221    23 C    1.180
    25   7 N    3.248 --    21 C    1.256    24 C    1.221     1 Cu   0.504
    26   6 C    3.936 --    24 C    1.326    33 C    1.319    27 C    1.025
    27   6 C    3.988 --    28 C    1.769    32 C    1.098    26 C    1.025
    28   6 C    3.972 --    27 C    1.769    29 C    1.013    51 H    0.972
    29   6 C    3.961 --    28 C    1.013    52 H    0.976    53 H    0.967
                            30 N    0.949
    30   7 N    3.248 --    31 C    1.161    29 C    0.949    54 H    0.928
                            32 C    0.127
    31   6 C    3.958 --    32 C    1.691    30 N    1.161    55 H    0.971
    32   6 C    3.968 --    31 C    1.691    27 C    1.098    56 H    0.974
                            30 N    0.127
    33   6 C    3.913 --    26 C    1.319    37 N    1.238    34 C    1.174
    34   6 C    3.958 --    35 C    1.653    33 C    1.174    57 H    0.974
    35   6 C    3.955 --    34 C    1.653    36 C    1.172    58 H    0.976
    36   6 C    3.920 --     2 C    1.361    37 N    1.229    35 C    1.172
    37   7 N    3.244 --    33 C    1.238    36 C    1.229     1 Cu   0.506
    38   1 H    1.002 --     2 C    0.971
    39   1 H    0.998 --     4 C    0.976
    40   1 H    1.007 --     5 C    0.974
    41   1 H    1.003 --    10 C    0.972
    42   1 H    1.019 --    11 C    0.976
    43   1 H    1.008 --    11 C    0.966
    44   1 H    0.964 --    12 N    0.928
    45   1 H    1.001 --    13 C    0.971
    46   1 H    1.003 --    14 C    0.974
    47   1 H    1.006 --    16 C    0.972
    48   1 H    1.002 --    17 C    0.974
    49   1 H    1.002 --    22 C    0.974
    50   1 H    1.006 --    23 C    0.972
    51   1 H    1.003 --    28 C    0.972
    52   1 H    1.019 --    29 C    0.976
    53   1 H    1.008 --    29 C    0.967
    54   1 H    0.964 --    30 N    0.928
    55   1 H    1.001 --    31 C    0.971
    56   1 H    1.003 --    32 C    0.974
    57   1 H    1.007 --    34 C    0.974
    58   1 H    0.998 --    35 C    0.976
    59  29 Cu   2.191 --    95 N    0.506    65 N    0.506    76 N    0.504
                            83 N    0.503
    60   6 C    3.927 --    94 C    1.361    61 C    1.360    96 H    0.971
    61   6 C    3.920 --    60 C    1.360    65 N    1.230    62 C    1.172
    62   6 C    3.955 --    63 C    1.653    61 C    1.172    97 H    0.976
    63   6 C    3.958 --    62 C    1.653    64 C    1.174    98 H    0.974
    64   6 C    3.913 --    66 C    1.319    65 N    1.238    63 C    1.174
    65   7 N    3.244 --    64 C    1.238    61 C    1.230    59 Cu   0.506
    66   6 C    3.936 --    73 C    1.326    64 C    1.319    67 C    1.025
    67   6 C    3.988 --    68 C    1.768    72 C    1.098    66 C    1.025
    68   6 C    3.972 --    67 C    1.768    69 C    1.013    99 H    0.972
    69   6 C    3.961 --    68 C    1.013   100 H    0.976   101 H    0.966
                            70 N    0.949
    70   7 N    3.248 --    71 C    1.161    69 C    0.949   102 H    0.928
                            72 C    0.127
    71   6 C    3.958 --    72 C    1.692    70 N    1.161   103 H    0.971
    72   6 C    3.968 --    71 C    1.692    67 C    1.098   104 H    0.974
                            70 N    0.127
    73   6 C    3.907 --    66 C    1.326    76 N    1.221    74 C    1.180
    74   6 C    3.955 --    75 C    1.642    73 C    1.180   105 H    0.972
    75   6 C    3.957 --    74 C    1.642    77 C    1.187   106 H    0.974
    76   7 N    3.248 --    77 C    1.257    73 C    1.221    59 Cu   0.504
    77   6 C    3.897 --    78 C    1.258    76 N    1.257    75 C    1.187
    78   6 C    3.939 --    79 C    1.260    77 C    1.258   132 C    1.187
    79   6 C    3.897 --    78 C    1.260    83 N    1.256    80 C    1.187
    80   6 C    3.957 --    81 C    1.642    79 C    1.187   107 H    0.974
    81   6 C    3.955 --    80 C    1.642    82 C    1.180   108 H    0.972
    82   6 C    3.907 --    84 C    1.326    83 N    1.221    81 C    1.180
    83   7 N    3.248 --    79 C    1.256    82 C    1.221    59 Cu   0.503
    84   6 C    3.936 --    82 C    1.326    91 C    1.319    85 C    1.025
    85   6 C    3.988 --    86 C    1.768    90 C    1.098    84 C    1.025
    86   6 C    3.972 --    85 C    1.768    87 C    1.013   109 H    0.972
    87   6 C    3.961 --    86 C    1.013   110 H    0.976   111 H    0.966
                            88 N    0.949
    88   7 N    3.248 --    89 C    1.161    87 C    0.949   112 H    0.928
                            90 C    0.127
    89   6 C    3.958 --    90 C    1.692    88 N    1.161   113 H    0.971
    90   6 C    3.968 --    89 C    1.692    85 C    1.098   114 H    0.974
                            88 N    0.127
    91   6 C    3.913 --    84 C    1.319    95 N    1.238    92 C    1.174
    92   6 C    3.958 --    93 C    1.653    91 C    1.174   115 H    0.974
    93   6 C    3.955 --    92 C    1.653    94 C    1.172   116 H    0.976
    94   6 C    3.920 --    60 C    1.361    95 N    1.229    93 C    1.172
    95   7 N    3.244 --    91 C    1.238    94 C    1.229    59 Cu   0.506
    96   1 H    1.002 --    60 C    0.971
    97   1 H    0.998 --    62 C    0.976
    98   1 H    1.007 --    63 C    0.974
    99   1 H    1.003 --    68 C    0.972
   100   1 H    1.019 --    69 C    0.976
   101   1 H    1.008 --    69 C    0.966
   102   1 H    0.964 --    70 N    0.928
   103   1 H    1.001 --    71 C    0.971
   104   1 H    1.003 --    72 C    0.974
   105   1 H    1.006 --    74 C    0.972
   106   1 H    1.002 --    75 C    0.974
   107   1 H    1.002 --    80 C    0.974
   108   1 H    1.006 --    81 C    0.972
   109   1 H    1.003 --    86 C    0.972
   110   1 H    1.019 --    87 C    0.976
   111   1 H    1.008 --    87 C    0.966
   112   1 H    0.964 --    88 N    0.928
   113   1 H    1.001 --    89 C    0.971
   114   1 H    1.003 --    90 C    0.974
   115   1 H    1.007 --    92 C    0.974
   116   1 H    0.998 --    93 C    0.976
   117   6 C    3.876 --   118 C    2.443    20 C    1.188   120 C    0.187
   118   6 C    3.935 --   117 C    2.443   119 C    1.341
   119   6 C    3.892 --   120 C    2.339   118 C    1.341   122 C    0.182
   120   6 C    3.925 --   119 C    2.339   121 C    1.367   117 C    0.187
   121   6 C    3.924 --   122 C    2.338   120 C    1.367   124 C    0.186
   122   6 C    3.893 --   121 C    2.338   123 C    1.343   119 C    0.182
   123   6 C    3.933 --   124 C    2.440   122 C    1.343
   124   6 C    3.877 --   123 C    2.440   134 C    1.191   121 C    0.186
   125   6 C    3.877 --   126 C    2.440   152 C    1.190   128 C    0.186
   126   6 C    3.932 --   125 C    2.440   127 C    1.342
   127   6 C    3.893 --   128 C    2.339   126 C    1.342   130 C    0.182
   128   6 C    3.924 --   127 C    2.339   129 C    1.366   125 C    0.186
   129   6 C    3.925 --   130 C    2.340   128 C    1.366   132 C    0.187
   130   6 C    3.892 --   129 C    2.340   131 C    1.341   127 C    0.182
   131   6 C    3.936 --   132 C    2.443   130 C    1.341
   132   6 C    3.876 --   131 C    2.443    78 C    1.187   129 C    0.187
   133  29 Cu   2.163 --   169 N    0.499   150 N    0.499   157 N    0.498
                           139 N    0.498
   134   6 C    3.927 --   168 C    1.257   135 C    1.255   124 C    1.191
   135   6 C    3.900 --   139 N    1.260   134 C    1.255   136 C    1.188
   136   6 C    3.956 --   137 C    1.640   135 C    1.188   170 H    0.974
   137   6 C    3.956 --   136 C    1.640   138 C    1.181   171 H    0.973
   138   6 C    3.906 --   140 C    1.325   139 N    1.221   137 C    1.181
   139   7 N    3.241 --   135 C    1.260   138 C    1.221   133 Cu   0.498
   140   6 C    3.931 --   138 C    1.325   147 C    1.322   141 C    1.023
   141   6 C    3.988 --   142 C    1.767   146 C    1.099   140 C    1.023
   142   6 C    3.972 --   141 C    1.767   143 C    1.013   172 H    0.972
   143   6 C    3.961 --   142 C    1.013   174 H    0.975   173 H    0.967
                           144 N    0.949
   144   7 N    3.250 --   145 C    1.162   143 C    0.949   175 H    0.928
                           146 C    0.127
   145   6 C    3.958 --   146 C    1.691   144 N    1.162   176 H    0.971
   146   6 C    3.967 --   145 C    1.691   141 C    1.099   177 H    0.973
                           144 N    0.127
   147   6 C    3.905 --   140 C    1.322   150 N    1.223   148 C    1.182
   148   6 C    3.956 --   149 C    1.640   147 C    1.182   178 H    0.973
   149   6 C    3.955 --   148 C    1.640   151 C    1.188   179 H    0.974
   150   7 N    3.241 --   151 C    1.259   147 C    1.223   133 Cu   0.499
   151   6 C    3.898 --   150 N    1.259   152 C    1.256   149 C    1.188
   152   6 C    3.927 --   151 C    1.256   153 C    1.255   125 C    1.190
   153   6 C    3.900 --   157 N    1.259   152 C    1.255   154 C    1.189
   154   6 C    3.955 --   155 C    1.638   153 C    1.189   180 H    0.974
   155   6 C    3.956 --   154 C    1.638   156 C    1.182   181 H    0.974
   156   6 C    3.906 --   158 C    1.323   157 N    1.222   155 C    1.182
   157   7 N    3.241 --   153 C    1.259   156 C    1.222   133 Cu   0.498
   158   6 C    3.931 --   156 C    1.323   165 C    1.323   159 C    1.025
   159   6 C    3.988 --   160 C    1.768   164 C    1.097   158 C    1.025
   160   6 C    3.972 --   159 C    1.768   161 C    1.013   182 H    0.972
   161   6 C    3.961 --   160 C    1.013   184 H    0.976   183 H    0.966
                           162 N    0.949
   162   7 N    3.247 --   163 C    1.161   161 C    0.949   185 H    0.928
                           164 C    0.127
   163   6 C    3.958 --   164 C    1.692   162 N    1.161   186 H    0.971
   164   6 C    3.968 --   163 C    1.692   159 C    1.097   187 H    0.974
                           162 N    0.127
   165   6 C    3.904 --   158 C    1.323   169 N    1.222   166 C    1.181
   166   6 C    3.956 --   167 C    1.641   165 C    1.181   188 H    0.972
   167   6 C    3.955 --   166 C    1.641   168 C    1.187   189 H    0.974
   168   6 C    3.898 --   169 N    1.259   134 C    1.257   167 C    1.187
   169   7 N    3.241 --   168 C    1.259   165 C    1.222   133 Cu   0.499
   170   1 H    1.002 --   136 C    0.974
   171   1 H    1.007 --   137 C    0.973
   172   1 H    1.003 --   142 C    0.972
   173   1 H    1.009 --   143 C    0.967
   174   1 H    1.018 --   143 C    0.975
   175   1 H    0.963 --   144 N    0.928
   176   1 H    1.001 --   145 C    0.971
   177   1 H    1.003 --   146 C    0.973
   178   1 H    1.005 --   148 C    0.973
   179   1 H    1.002 --   149 C    0.974
   180   1 H    1.002 --   154 C    0.974
   181   1 H    1.007 --   155 C    0.974
   182   1 H    1.003 --   160 C    0.972
   183   1 H    1.008 --   161 C    0.966
   184   1 H    1.019 --   161 C    0.976
   185   1 H    0.964 --   162 N    0.928
   186   1 H    1.001 --   163 C    0.971
   187   1 H    1.003 --   164 C    0.974
   188   1 H    1.006 --   166 C    0.972
   189   1 H    1.002 --   167 C    0.974
 ---------------------------------------------------------------------------

           -------------------------------------------------
          | TOTAL ENERGY             -327.958331298051 Eh   |
          | GRADIENT NORM               0.000491781126 Eh/α |
          | HOMO-LUMO GAP               0.000451776341 eV   |
           -------------------------------------------------

 * finished run on 2022/07/30 at 06:27:20.420
