   * xtb version 6.5.1 (b24c23e) compiled by 'conda@728c89f4b128' on 2022-07-12
          program call               : xtb C2Py_C2_2.xyz --gfn 1 --opt -T 48

   ID    Z sym.   atoms
    1    6 C      1-5, 7-12, 14-18, 20-25, 27-32, 34-39, 60-64, 66-71, 73-77,
                  79-84, 86-91, 93-98, 119, 120
    2    7 N      6, 13, 19, 26, 33, 40, 65, 72, 78, 85, 92, 99
    3    1 H      41-59, 100-118
########################################################################
[WARNING] Please study the warnings concerning your input carefully
-1- prog_main_parseArguments: Unknown option '-T' provided
########################################################################

          :  Hamiltonian                  GFN1-xTB          :
 * total energy  :  -206.1670163 Eh     change       -0.1529656E-09 Eh
 * total energy  :  -206.2729228 Eh     change       -0.1059065E+00 Eh
 * total energy  :  -206.3283097 Eh     change       -0.5538689E-01 Eh
 * total energy  :  -206.3407480 Eh     change       -0.1243830E-01 Eh
 * total energy  :  -206.3482438 Eh     change       -0.7495776E-02 Eh
 * total energy  :  -206.3520375 Eh     change       -0.3793739E-02 Eh
 * total energy  :  -206.3542669 Eh     change       -0.2229390E-02 Eh
 * total energy  :  -206.3556392 Eh     change       -0.1372283E-02 Eh
 * total energy  :  -206.3564995 Eh     change       -0.8603019E-03 Eh
 * total energy  :  -206.3570915 Eh     change       -0.5919723E-03 Eh
 * total energy  :  -206.3637422 Eh     change       -0.2682992E-04 Eh
 * total energy  :  -206.3637476 Eh     change       -0.5402380E-05 Eh
 * total energy  :  -206.3637885 Eh     change       -0.4092915E-04 Eh
 * total energy  :  -206.3638065 Eh     change       -0.1801312E-04 Eh
 * total energy  :  -206.3638303 Eh     change       -0.2381826E-04 Eh
 * total energy  :  -206.3638521 Eh     change       -0.2181860E-04 Eh
 * total energy  :  -206.3638607 Eh     change       -0.8600896E-05 Eh
 * total energy  :  -206.3638668 Eh     change       -0.6020086E-05 Eh
 * total energy  :  -206.3638714 Eh     change       -0.4651311E-05 Eh
   *** GEOMETRY OPTIMIZATION CONVERGED AFTER 69 ITERATIONS ***

 final structure:
================
120
 xtb: 6.5.1 (b24c23e)
C           14.47217452926185        0.02082119157406       -0.19048056342705
C           15.08761162112765        1.04042394206245       -0.90745794518805
C           14.45501302341513        2.04512012751652       -1.69004710177085
C           15.43201874510617        2.84963221645585       -2.20956814635498
C           16.68698251921790        2.35955458319553       -1.75792949948444
N           16.43405216470374        1.26963586988436       -0.98152105250568
C           17.95691953334040        2.89718446759785       -2.03210272264677
C           17.99131487394614        4.04188373089420       -2.85945055215288
C           18.02315313687682        5.01524708246248       -3.58341993616310
C           18.06814009759005        6.14707655958816       -4.42898035822388
C           16.90635249708045        6.66767632461693       -5.01049496982139
C           17.00760614113915        7.77378043283908       -5.83537099628735
N           18.16262762429786        8.37598003974236       -6.10693261824515
C           19.27158037494331        7.88726829204631       -5.55784674745597
C           19.27909134821149        6.78606984793025       -4.72052327266494
C           19.17929186099483        2.39197396217728       -1.55900876422662
C           20.45598624879110        3.01538216046699       -1.84487398007795
C           21.39368312349247        2.24793660643657       -1.25057370047679
N           19.35375679212520        1.27949427941229       -0.80451908672924
C           20.68723435167329        1.15605454317250       -0.61099895474668
C           21.33744257702229        0.12167113693379        0.08875684904268
C           20.69549404613116       -0.93645543099270        0.76223525408773
C           21.31979282194441       -2.00027456811205        1.46258722593666
C           20.33723748622738       -2.79527787038215        1.98776162122400
C           19.08545074476708       -2.24150177725789        1.61486380539034
N           19.34791792227644       -1.12461326745318        0.87400359749197
C           17.81463167054663       -2.74355767330545        1.94744970868777
C           17.78626665714759       -3.89688803344704        2.76109986593445
C           17.76734900979309       -4.88560592885276        3.46485855710510
C           17.74088198904188       -6.03580397914499        4.28546681680547
C           18.92333045078831       -6.66890811424169        4.68672870482441
C           18.84285112786607       -7.79152590849544        5.49104955990261
N           17.68903355905167       -8.30614459238492        5.90866007384502
C           16.56058981337968       -7.70997720825822        5.53190202172031
C           16.53144876887188       -6.58408357581984        4.72868752147654
C           16.58706669532587       -2.19805639636622        1.53221170640859
C           15.29678501985612       -2.75944360962285        1.89320663723391
C           14.36638675497638       -1.98954864249894        1.29285648136179
C           15.09158612949180       -0.96010415164882        0.56903014994294
N           16.43103627552610       -1.11752267972667        0.74206063877994
H           13.38821320387487       -0.00196742234801       -0.23664136474938
H           13.38925037553956        2.13152880066608       -1.82933424434147
H           15.30504724045255        3.70950085508861       -2.84766729452266
H           17.14284470487559        0.70804808321625       -0.52179192880153
H           15.94478108240775        6.20799786722980       -4.81678449396687
H           16.12267726189833        8.19775260272101       -6.30056719231615
H           20.19662804926882        8.40227437181172       -5.80078138118075
H           20.20582670147360        6.42052921540658       -4.29515230787938
H           20.58815222398372        3.91839447118001       -2.41913380517182
H           22.46118888086115        2.39272399038308       -1.22471832166465
H           22.38471451938336       -2.13856900979178        1.54675282412206
H           20.46126611403274       -3.68878603628396        2.57804543675315
H           18.64134399864371       -0.52343485783514        0.46308066248325
H           19.88470211148056       -6.28301342942085        4.36974484343445
H           19.74422763729789       -8.30280845017788        5.81669859188647
H           15.63741336010679       -8.15569020477517        5.89079251578087
H           15.58951055679405       -6.13009368367623        4.44563108140935
H           15.15561039615808       -3.62562334197879        2.52005772617430
H           13.29206614019564       -2.08277263603376        1.31725826033124
C           32.23950477131652       -0.19524185076189       -0.00305745418602
C           31.62404028483471       -1.01834410833646        0.93295553703547
C           32.25656072798127       -1.90590102438406        1.84629394385849
C           31.27958473280434       -2.50892817321399        2.59031628216193
C           30.02471885506323       -2.00576147609794        2.15302048488303
N           30.27766170525879       -1.11584015585874        1.15365177152763
C           28.75485543728917       -2.33576997761160        2.65849554236156
C           28.72050737518207       -3.28208952771456        3.70696624253601
C           28.68902194886484       -4.10688264151963        4.59651817847583
C           28.64409919702389       -5.06937923817553        5.63073291555402
C           29.80554943411803       -5.70541034446451        6.08393223550377
C           29.70432098907408       -6.64445743999880        7.09491444159286
N           28.54962450680441       -6.97752363871727        7.66604745132705
C           27.44096120739639       -6.37734505107361        7.24087931622733
C           27.43345157186157       -5.42629828212504        6.23626163216060
C           27.53254025475854       -1.81020053727806        2.20798188125782
C           26.25588959913761       -2.16154117752132        2.79707780763173
C           25.31820498355638       -1.48733677774706        2.09876742706668
N           27.35806800809022       -0.93955161482675        1.18386749460562
C           26.02462022606974       -0.73338294197004        1.08245415896562
C           25.37442105953428        0.07477138567347        0.13032919390938
C           26.01640693607853        0.85923354870443       -0.84833436411178
C           25.39212719805612        1.67145425170194       -1.82940153740689
C           26.37469627405861        2.27996932648415       -2.56256936398813
C           27.62646379780373        1.84870017231724       -2.05291074028536
N           27.36397381855522        0.99054044844777       -1.02339624536638
C           28.89730038644234        2.23364615820657       -2.51598413580963
C           28.92584943555764        3.16862915591782       -3.57333611685888
C           28.94508821670442        3.97648543689129       -4.47898087938222
C           28.97191418248861        4.91901999218274       -5.53157439568576
C           27.78979647252779        5.38689551794917       -6.11781189609202
C           27.87078580773221        6.31035903411547       -7.14462581249320
N           29.02480957125593        6.78306197305202       -7.60870971161048
C           30.15293362375814        6.34351022597953       -7.05661029296458
C           30.18155940330642        5.42083490927640       -6.02631562596614
C           30.12482063383090        1.76060825291721       -2.01964044583680
C           31.41511728396852        2.17971985230757       -2.53910035878384
C           32.34543217820251        1.49823186017843       -1.83989811216712
C           31.62018978563126        0.66701512664005       -0.89506405615347
N           30.28077511387551        0.85716209262905       -1.03187185041810
H           33.32342026833427       -0.23948603103708       -0.03142765454439
H           33.32225628597342       -2.05459148449832        1.91633659303429
H           31.40653177781300       -3.23671845970669        3.37572740994571
H           29.56893147833651       -0.59729515027600        0.64578220931579
H           30.76683883749176       -5.46483219694956        5.64636879207603
H           30.58899711105736       -7.15393954286178        7.46504696585699
H           26.51614561431890       -6.67289709117481        7.72807168386913
H           26.50691914932111       -4.96268658939354        5.91990924453252
H           26.12375121943826       -2.83022897079511        3.63258270432438
H           24.25075216840285       -1.47695875378615        2.24581795921002
H           24.32720722374516        1.77038454005707       -1.95756319202627
H           26.25067740384196        2.96413207361932       -3.38641115599896
H           28.07052605598487        0.51640885915865       -0.47067521897608
H           26.82829500446275        5.02859074561098       -5.77032845128912
H           26.96967633459858        6.68991634368855       -7.61775200671383
H           31.07627216664302        6.75012991964238       -7.45891427263897
H           31.12326565870839        5.08999800968762       -5.60534179379339
H           31.55634459877140        2.89720282547108       -3.33182962522855
H           33.41973270629713        1.53182336580219       -1.93058419436739
C           22.74730937135572        0.12392574705089        0.11813185768636
C           23.96456188376510        0.10390092200989        0.13591716554057

          :  Hamiltonian                  GFN1-xTB          :
         :: total energy            -206.363871418236 Eh    ::
         :: gradient norm              0.000774472320 Eh/a0 ::
         :: HOMO-LUMO gap              0.946859617891 eV    ::
         :: SCC energy              -209.917811066824 Eh    ::
         :: repulsion energy           3.650147537441 Eh    ::

    * Orbital Energies and Occupations

         #    Occupation            Energy/Eh            Energy/eV
      -------------------------------------------------------------
         1        2.0000           -0.8121083             -22.0986
       ...           ...                  ...                  ...
       177        2.0000           -0.4260616             -11.5937
       178        2.0000           -0.4247221             -11.5573
       179        2.0000           -0.4246744             -11.5560
       180        2.0000           -0.4227745             -11.5043
       181        2.0000           -0.4227623             -11.5039
       182        2.0000           -0.4208291             -11.4513
       183        2.0000           -0.4208278             -11.4513
       184        2.0000           -0.4203715             -11.4389
       185        2.0000           -0.4203709             -11.4389
       186        2.0000           -0.4071203             -11.0783
       187        2.0000           -0.4062532             -11.0547
       188        2.0000           -0.3958633             -10.7720
       189        2.0000           -0.3852964             -10.4844 (HOMO)
       190                         -0.3504999              -9.5376 (LUMO)
       191                         -0.3468592              -9.4385
       192                         -0.3452547              -9.3949
       193                         -0.3326358              -9.0515
       194                         -0.3173415              -8.6353
       195                         -0.3107687              -8.4564
       196                         -0.2902340              -7.8977
       197                         -0.2901268              -7.8948
       198                         -0.2848867              -7.7522
       199                         -0.2818390              -7.6692
       200                         -0.2697502              -7.3403
       ...                                ...                  ...
       404                          1.3460599              36.6282
      -------------------------------------------------------------
                  HL-Gap            0.0347965 Eh            0.9469 eV

Wiberg/Mayer (AO) data.
largest (>0.10) Wiberg bond orders for each atom

     #   Z sym  total        # sym  WBO       # sym  WBO       # sym  WBO
 ---------------------------------------------------------------------------
     1   6 C    3.925 --    39 C    1.378     2 C    1.340    41 H    0.971
     2   6 C    3.895 --     1 C    1.340     3 C    1.236     6 N    1.165
     3   6 C    3.953 --     4 C    1.586     2 C    1.236    42 H    0.977
     4   6 C    3.958 --     3 C    1.586     5 C    1.246    43 H    0.975
     5   6 C    3.890 --     7 C    1.257     4 C    1.246     6 N    1.191
     6   7 N    3.471 --     5 C    1.191     2 C    1.165    44 H    0.874
     7   6 C    3.935 --    16 C    1.281     5 C    1.257     8 C    1.161
     8   6 C    3.958 --     9 C    2.624     7 C    1.161
     9   6 C    3.932 --     8 C    2.624    10 C    1.142
    10   6 C    3.987 --    11 C    1.350    15 C    1.350     9 C    1.142
    11   6 C    3.973 --    12 C    1.457    10 C    1.350    45 H    0.974
                            14 C    0.104
    12   6 C    3.973 --    11 C    1.457    13 N    1.407    46 H    0.972
                            15 C    0.104
    13   7 N    2.994 --    12 C    1.407    14 C    1.407
    14   6 C    3.973 --    15 C    1.457    13 N    1.407    47 H    0.972
                            11 C    0.104
    15   6 C    3.973 --    14 C    1.457    10 C    1.350    48 H    0.974
                            12 C    0.104
    16   6 C    3.904 --    19 N    1.311     7 C    1.281    17 C    1.130
    17   6 C    3.964 --    18 C    1.705    16 C    1.130    49 H    0.974
    18   6 C    3.964 --    17 C    1.705    20 C    1.130    50 H    0.968
    19   7 N    3.015 --    20 C    1.324    16 C    1.311
    20   6 C    3.901 --    19 N    1.324    21 C    1.267    18 C    1.130
    21   6 C    3.934 --    20 C    1.267    22 C    1.251   119 C    1.179
    22   6 C    3.883 --    23 C    1.256    21 C    1.251    26 N    1.182
    23   6 C    3.958 --    24 C    1.573    22 C    1.256    51 H    0.969
    24   6 C    3.954 --    23 C    1.573    25 C    1.254    52 H    0.975
    25   6 C    3.890 --    27 C    1.260    24 C    1.254    26 N    1.180
    26   7 N    3.475 --    22 C    1.182    25 C    1.180    53 H    0.873
    27   6 C    3.922 --    36 C    1.269    25 C    1.260    28 C    1.164
    28   6 C    3.958 --    29 C    2.620    27 C    1.164
    29   6 C    3.927 --    28 C    2.620    30 C    1.143
    30   6 C    3.987 --    35 C    1.349    31 C    1.349    29 C    1.143
    31   6 C    3.972 --    32 C    1.457    30 C    1.349    54 H    0.974
                            34 C    0.103
    32   6 C    3.973 --    31 C    1.457    33 N    1.407    55 H    0.972
                            35 C    0.103
    33   7 N    2.993 --    32 C    1.407    34 C    1.407
    34   6 C    3.972 --    35 C    1.457    33 N    1.407    56 H    0.972
                            31 C    0.103
    35   6 C    3.972 --    34 C    1.457    30 C    1.349    57 H    0.974
                            32 C    0.103
    36   6 C    3.919 --    40 N    1.344    27 C    1.269    37 C    1.121
    37   6 C    3.966 --    38 C    1.721    36 C    1.121    58 H    0.975
    38   6 C    3.967 --    37 C    1.721    39 C    1.117    59 H    0.976
    39   6 C    3.919 --     1 C    1.378    40 N    1.282    38 C    1.117
    40   7 N    3.007 --    36 C    1.344    39 C    1.282
    41   1 H    1.001 --     1 C    0.971
    42   1 H    0.997 --     3 C    0.977
    43   1 H    1.002 --     4 C    0.975
    44   1 H    0.986 --     6 N    0.874
    45   1 H    1.002 --    11 C    0.974
    46   1 H    1.013 --    12 C    0.972
    47   1 H    1.013 --    14 C    0.972
    48   1 H    1.002 --    15 C    0.974
    49   1 H    1.003 --    17 C    0.974
    50   1 H    1.006 --    18 C    0.968
    51   1 H    1.006 --    23 C    0.969
    52   1 H    1.002 --    24 C    0.975
    53   1 H    0.987 --    26 N    0.873
    54   1 H    1.002 --    31 C    0.974
    55   1 H    1.013 --    32 C    0.972
    56   1 H    1.013 --    34 C    0.972
    57   1 H    1.002 --    35 C    0.974
    58   1 H    1.003 --    37 C    0.975
    59   1 H    0.998 --    38 C    0.976
    60   6 C    3.925 --    98 C    1.378    61 C    1.340   100 H    0.971
    61   6 C    3.895 --    60 C    1.340    62 C    1.236    65 N    1.165
    62   6 C    3.953 --    63 C    1.586    61 C    1.236   101 H    0.977
    63   6 C    3.958 --    62 C    1.586    64 C    1.246   102 H    0.975
    64   6 C    3.890 --    66 C    1.257    63 C    1.246    65 N    1.191
    65   7 N    3.471 --    64 C    1.191    61 C    1.165   103 H    0.874
    66   6 C    3.935 --    75 C    1.281    64 C    1.257    67 C    1.161
    67   6 C    3.958 --    68 C    2.624    66 C    1.161
    68   6 C    3.932 --    67 C    2.624    69 C    1.142
    69   6 C    3.987 --    70 C    1.350    74 C    1.350    68 C    1.142
    70   6 C    3.973 --    71 C    1.457    69 C    1.350   104 H    0.974
                            73 C    0.104
    71   6 C    3.973 --    70 C    1.457    72 N    1.407   105 H    0.972
                            74 C    0.104
    72   7 N    2.994 --    71 C    1.407    73 C    1.407
    73   6 C    3.973 --    74 C    1.457    72 N    1.407   106 H    0.972
                            70 C    0.104
    74   6 C    3.973 --    73 C    1.457    69 C    1.350   107 H    0.974
                            71 C    0.104
    75   6 C    3.904 --    78 N    1.311    66 C    1.281    76 C    1.130
    76   6 C    3.964 --    77 C    1.705    75 C    1.130   108 H    0.974
    77   6 C    3.964 --    76 C    1.705    79 C    1.130   109 H    0.968
    78   7 N    3.015 --    79 C    1.324    75 C    1.311
    79   6 C    3.901 --    78 N    1.324    80 C    1.267    77 C    1.130
    80   6 C    3.934 --    79 C    1.267    81 C    1.251   120 C    1.179
    81   6 C    3.883 --    82 C    1.256    80 C    1.251    85 N    1.183
    82   6 C    3.958 --    83 C    1.573    81 C    1.256   110 H    0.969
    83   6 C    3.954 --    82 C    1.573    84 C    1.254   111 H    0.975
    84   6 C    3.890 --    86 C    1.260    83 C    1.254    85 N    1.180
    85   7 N    3.475 --    81 C    1.183    84 C    1.180   112 H    0.873
    86   6 C    3.922 --    95 C    1.269    84 C    1.260    87 C    1.164
    87   6 C    3.958 --    88 C    2.620    86 C    1.164
    88   6 C    3.927 --    87 C    2.620    89 C    1.143
    89   6 C    3.987 --    94 C    1.349    90 C    1.349    88 C    1.143
    90   6 C    3.972 --    91 C    1.457    89 C    1.349   113 H    0.974
                            93 C    0.103
    91   6 C    3.973 --    90 C    1.457    92 N    1.407   114 H    0.972
                            94 C    0.103
    92   7 N    2.993 --    91 C    1.407    93 C    1.407
    93   6 C    3.972 --    94 C    1.457    92 N    1.407   115 H    0.972
                            90 C    0.103
    94   6 C    3.972 --    93 C    1.457    89 C    1.349   116 H    0.974
                            91 C    0.103
    95   6 C    3.919 --    99 N    1.344    86 C    1.269    96 C    1.121
    96   6 C    3.966 --    97 C    1.721    95 C    1.121   117 H    0.975
    97   6 C    3.967 --    96 C    1.721    98 C    1.117   118 H    0.976
    98   6 C    3.919 --    60 C    1.378    99 N    1.282    97 C    1.117
    99   7 N    3.007 --    95 C    1.344    98 C    1.282
   100   1 H    1.001 --    60 C    0.971
   101   1 H    0.997 --    62 C    0.977
   102   1 H    1.002 --    63 C    0.975
   103   1 H    0.986 --    65 N    0.874
   104   1 H    1.002 --    70 C    0.974
   105   1 H    1.013 --    71 C    0.972
   106   1 H    1.013 --    73 C    0.972
   107   1 H    1.002 --    74 C    0.974
   108   1 H    1.003 --    76 C    0.974
   109   1 H    1.006 --    77 C    0.968
   110   1 H    1.006 --    82 C    0.969
   111   1 H    1.002 --    83 C    0.975
   112   1 H    0.987 --    85 N    0.873
   113   1 H    1.002 --    90 C    0.974
   114   1 H    1.013 --    91 C    0.972
   115   1 H    1.013 --    93 C    0.972
   116   1 H    1.002 --    94 C    0.974
   117   1 H    1.003 --    96 C    0.975
   118   1 H    0.998 --    97 C    0.976
   119   6 C    3.933 --   120 C    2.577    21 C    1.179
   120   6 C    3.933 --   119 C    2.577    80 C    1.179
 ---------------------------------------------------------------------------

           -------------------------------------------------
          | TOTAL ENERGY             -206.363871418236 Eh   |
          | GRADIENT NORM               0.000774472320 Eh/α |
          | HOMO-LUMO GAP               0.946859617891 eV   |
           -------------------------------------------------

 * finished run on 2022/07/28 at 14:32:30.941
