   * xtb version 6.5.1 (b24c23e) compiled by 'conda@728c89f4b128' on 2022-07-12
          program call               : xtb Zn_PhCN_C2_3.xyz --gfn 1 --opt -T 48

   ID    Z sym.   atoms
    1   30 Zn     1, 59, 121
    2    6 C      2-6, 8-13, 15-19, 21-26, 28-33, 35-40, 60-64, 66-71, 73-77,
                  79-84, 86-91, 93-98, 117-120, 122-126, 128-133, 135-139,
                  141-146, 148-153, 155-160
    3    7 N      7, 14, 20, 27, 34, 41, 65, 72, 78, 85, 92, 99, 127, 134,
                  140, 147, 154, 161
    4    1 H      42-58, 100-116, 162-177

          :  Hamiltonian                  GFN1-xTB          :
 * total energy  :  -310.1098858 Eh     change       -0.2930847E-09 Eh
 * total energy  :  -310.2647013 Eh     change       -0.1548155E+00 Eh
 * total energy  :  -310.3774033 Eh     change       -0.1127020E+00 Eh
 * total energy  :  -310.4275725 Eh     change       -0.5016923E-01 Eh
 * total energy  :  -310.4504436 Eh     change       -0.2287107E-01 Eh
 * total energy  :  -310.4675369 Eh     change       -0.1709329E-01 Eh
 * total energy  :  -310.4807960 Eh     change       -0.1325915E-01 Eh
 * total energy  :  -310.4917811 Eh     change       -0.1098511E-01 Eh
 * total energy  :  -310.5002957 Eh     change       -0.8514616E-02 Eh
 * total energy  :  -310.5069421 Eh     change       -0.6646349E-02 Eh
 * total energy  :  -310.5454261 Eh     change       -0.7145199E-05 Eh
 * total energy  :  -310.5454397 Eh     change       -0.1361483E-04 Eh
 * total energy  :  -310.5454465 Eh     change       -0.6745702E-05 Eh
 * total energy  :  -310.5454558 Eh     change       -0.9297588E-05 Eh
 * total energy  :  -310.5454645 Eh     change       -0.8735292E-05 Eh
 * total energy  :  -310.5454724 Eh     change       -0.7893577E-05 Eh
 * total energy  :  -310.5454790 Eh     change       -0.6580711E-05 Eh
 * total energy  :  -310.5454859 Eh     change       -0.6920009E-05 Eh
 * total energy  :  -310.5454877 Eh     change       -0.1821970E-05 Eh
   *** GEOMETRY OPTIMIZATION CONVERGED AFTER 68 ITERATIONS ***

 final structure:
================
177
 xtb: 6.5.1 (b24c23e)
Zn          36.29370704207130        0.04183379238161        0.01468381983381
C           32.87953994026690        0.03439142142169        0.10492831503048
C           33.50274128189461        1.25760781112384        0.31923997922073
C           32.82197223474557        2.50133089043252        0.54881325139203
C           33.77562062651354        3.45363346408817        0.70028964211267
C           35.05194498690561        2.80024916289887        0.57414422271926
N           34.85105812771528        1.47229980093374        0.33804922190577
C           36.29922142669556        3.43219402557077        0.64068244276775
C           36.30054685990088        4.88962504684978        0.92036332796939
C           35.79646667060408        5.37466212767915        2.12949921648962
C           35.79560876580467        6.73116265935542        2.40018833229730
C           36.29663211929072        7.63386531827845        1.45743592163169
C           36.29396743742813        9.03072204983874        1.73124964795978
N           36.29054343580029       10.15990866764717        1.95292879680392
C           36.79914249141162        7.15415940439831        0.24419178145862
C           36.80190552151986        5.79554822522120       -0.01694508263809
C           37.54229172445750        2.81186554762118        0.47207845490507
C           38.81418538351197        3.47172623943172        0.56846294801213
C           39.76824308637410        2.52755784961632        0.36966235960810
N           37.75004910746041        1.48030534548423        0.22787424464898
C           39.09522537233444        1.27941768656986        0.16569537525770
C           39.74098266225693        0.04470466254718       -0.05357706518104
C           39.08876307988677       -1.18894125907118       -0.25940055306691
C           39.75500897832284       -2.43267765180036       -0.50720595579360
C           38.79548157015320       -3.37675891572417       -0.67779574389180
C           37.52747100395774       -2.72203415437619       -0.51696486959805
N           37.74253429373523       -1.39244308371144       -0.26813195731978
C           36.27975866085646       -3.34592203294296       -0.62916382711196
C           36.27130877105117       -4.80107220268485       -0.91958303547868
C           35.69952988159464       -5.27955640878944       -2.10096995197167
C           35.68698019664935       -6.63412786837724       -2.38085069143484
C           36.24480602488877       -7.54166586355918       -1.47540314348033
C           36.23046956983483       -8.93672537731410       -1.75784516604165
N           36.22024507987359      -10.06474766153203       -1.98555246913886
C           36.81573150582667       -7.06862107921761       -0.29011565285859
C           36.82920602443262       -5.71193093788779       -0.01966268871274
C           35.03516420833553       -2.71981298526438       -0.49227229178065
C           33.75673181008391       -3.37873526750903       -0.55045080038196
C           32.80869253071447       -2.43175605641940       -0.34147636323691
C           33.49551111895841       -1.18562379464995       -0.14533028274179
N           34.84169456467386       -1.39395444967919       -0.23926301999083
H           31.79441855390186        0.03184795152127        0.13515810312498
H           31.75025196248084        2.62001491538911        0.57956746384399
H           33.63242802272362        4.50870873625700        0.87043202210860
H           35.41721828740246        4.67659365525486        2.86736118291405
H           35.40842460585509        7.09897071638589        3.34323161521279
H           37.18447194244614        7.85144598173187       -0.49053977250313
H           37.18125098795468        5.42867841076494       -0.96403922944480
H           38.95935565577259        4.52051624199903        0.77113509748752
H           40.83669348354386        2.66245496910709        0.36004872200053
H           40.82304414489109       -2.56422208314027       -0.54803988210282
H           38.93441540235014       -4.42210153057923       -0.90149112797412
H           35.27593643503455       -4.57775357504807       -2.81063064837537
H           35.24641435178282       -6.99665288364974       -3.30226313577120
H           37.24535493263594       -7.76967940957182        0.41589476087006
H           37.26133677772366       -5.35059151537448        0.90670897009926
H           33.60904156356847       -4.43380987980986       -0.71668442325621
H           31.73749199390432       -2.55550616748558       -0.31276797302711
Zn          58.15175759091112       -0.01723830594408        0.03811314873711
C           61.56155437638762       -0.03171422753451        0.09603074932248
C           60.93286213188941       -1.24211240055555        0.36176956601878
C           61.60841706157230       -2.48156280195333        0.62723680356494
C           60.65072820423931       -3.41996625579891        0.83105488542821
C           59.37682973527834       -2.76224861790031        0.70208570612787
N           59.58356860438753       -1.44602333095429        0.41007594899205
C           58.12620760405107       -3.37988862490401        0.82454539468036
C           58.11522886420119       -4.82193428459120        1.17190117849911
C           58.65851617839644       -5.26289957856956        2.38100916682607
C           58.64652816059787       -6.60600497019672        2.71173131708897
C           58.09265296553116       -7.53974416043641        1.83076723114700
C           58.07986421001812       -8.92281833019429        2.16687668463075
N           58.06959644080820      -10.04073549808652        2.43991694699661
C           57.55095659295026       -7.10451831345704        0.61755910337182
C           57.56138740048880       -5.75903944652695        0.29644383900496
C           56.88558929916429       -2.75504546085918        0.65165711347355
C           55.60665852888908       -3.38500588417820        0.83210127521978
C           54.65950498564748       -2.44232298228038        0.59408010606868
N           56.69080919370769       -1.44138437157636        0.32045278787681
C           55.34788915117069       -1.22603587952882        0.27474603088576
C           54.71731967642892       -0.00096697496193       -0.01493853871076
C           55.36807395067321        1.21756704540856       -0.28713461117501
C           54.70116963008359        2.43977336082078       -0.62878258561068
C           55.66391519447211        3.37332843276242       -0.83856805467655
C           56.93075799559685        2.73188759056725       -0.61772819140245
N           56.71367291470222        1.42037492041819       -0.29187260240616
C           58.18191681695989        3.34533604758589       -0.75060118977393
C           58.19626157649532        4.78660823508876       -1.10095922283924
C           58.78503152252497        5.21867365727287       -2.29191949897172
C           58.79892700027048        6.56092693115500       -2.62582163758283
C           58.22559741905373        7.50280774261100       -1.76618586029300
C           58.24063751678866        8.88519660553149       -2.10500256917991
N           58.25334942493574       10.00220372409279       -2.38161790311705
C           57.63781697655431        7.07644673591822       -0.57144873001043
C           57.62273941840409        5.73173341037955       -0.24713239256166
C           59.42227108993668        2.71690432579906       -0.58542429245712
C           60.70540995435568        3.36371323963293       -0.67087265116437
C           61.64752867664247        2.41742408502220       -0.43370675541331
C           60.95274201480999        1.18392285208698       -0.19117907899375
N           59.60767911597741        1.39925734051305       -0.28580699484813
H           62.64697732290239       -0.03636282111216        0.11467301653973
H           62.67962933893511       -2.60739918611478        0.64476796966656
H           60.78978284015538       -4.46897374626631        1.03815887812576
H           59.07768041002471       -4.54059372546515        3.07248313643102
H           59.06409080084522       -6.93925911408475        3.65466677012197
H           57.12463720911288       -7.82591808805378       -0.06970618000114
H           57.15098992162601       -5.42689890098005       -0.65053797251265
H           55.45378243396444       -4.41278348646327        1.11952220779536
H           53.58779114213473       -2.55205536883369        0.64163528644184
H           53.63249147528407        2.55912535111258       -0.70975862121045
H           55.52957204888747        4.40213180100328       -1.13152587716908
H           59.21982587017663        4.49003250636032       -2.96689839728233
H           59.25217808796322        6.88728683947530       -3.55458117616298
H           57.19612573181017        7.80414289029924        0.09927694316442
H           57.17682638138784        5.40659593814449        0.68612401750009
H           60.86041954664925        4.41137420852866       -0.87339860944271
H           62.71972388376527        2.53429165395922       -0.41435649482662
C           41.15252544271117        0.04364582750759       -0.06626365534100
C           42.37105648214914        0.04412034444110       -0.06518332729241
C           52.09037731956830        0.01375455431177       -0.04301744493055
C           53.30675082237087        0.00640281290807       -0.03236597128498
Zn          47.23525214614263        0.03111756123889       -0.05960427574331
C           43.78231295892874        0.04073270387006       -0.06427618042345
C           44.43042342424326       -1.11343456700356       -0.55168988727332
C           43.75910349930479       -2.28048015167215       -1.03990890678643
C           44.71481968870245       -3.17966893631117       -1.38589790340173
C           45.98512559447889       -2.56307954415357       -1.12749105332889
N           45.77618005289801       -1.30812832753027       -0.62048994969086
C           47.22985754854808       -3.16983043839481       -1.32809028588213
C           47.22830413467083       -4.55124727462930       -1.87105613431951
C           46.71695217319472       -4.81600080707619       -3.14342842739054
C           46.72010014352399       -6.10317970946240       -3.65050692699067
C           47.23314672751574       -7.15608354546159       -2.88717245797694
C           47.23812491893890       -8.48193279595052       -3.40527574622701
N           47.24386397861991       -9.55401898542700       -3.82356244599014
C           47.74327532596018       -6.89698304997805       -1.61153139406534
C           47.74185562822480       -5.60645174139930       -1.11352037789619
C           48.47834048922132       -2.59628920480076       -1.06401270801719
C           49.74803928741805       -3.21362810263181       -1.32855608652685
C           50.70727686687525       -2.32221481163206       -0.97060925991450
N           48.68873179098498       -1.34175803871855       -0.55993559499400
C           50.03426022638374       -1.15105502435217       -0.49150678681960
C           50.68016924462959        0.01995633911373       -0.05144790554354
C           50.03966660325651        1.19608919185015        0.38264223778734
C           50.71782305440781        2.36445563029370        0.86131910178192
C           49.76258063319870        3.26229566255092        1.21373504889461
C           48.49018364334569        2.65154702521052        0.94670937268618
N           48.69501615360748        1.39502030260494        0.44534127904907
C           47.24432116554497        3.23194408363296        1.20813740678460
C           47.24967748670762        4.61348468144773        1.75094580513282
C           46.74042920071278        4.88107214455856        3.02351727990622
C           46.74939170828338        6.16859849566555        3.52980624354179
C           47.26609506834278        7.21889529191127        2.76536286349181
C           47.27449816415472        8.54562851860532        3.28119632479128
N           47.28431253993554        9.61820821996910        3.69835666464469
C           47.77520898105621        6.95670840790687        1.48992544283234
C           47.76812218120135        5.66588969249229        0.99280767989385
C           45.99662365602647        2.63207694257020        1.00525352655986
C           44.72910727168536        3.25526159891813        1.26166947448490
C           43.76914901586183        2.36160828604893        0.91288527767195
C           44.43527555697404        1.19129165310210        0.42518240232026
N           45.78193251758736        1.37859272091891        0.49704596296728
H           42.69058584595940       -2.39559527841959       -1.10821232471556
H           44.57122906311606       -4.17535520562890       -1.77322924874070
H           46.32952625460000       -4.00032658982112       -3.74347138601318
H           46.32703157140271       -6.29994043298582       -4.64110401125626
H           48.13833758336926       -7.71122276205919       -1.01535782856432
H           48.12872459930652       -5.41053046210078       -0.11979919924476
H           49.88699062222583       -4.19658797315775       -1.74895324668527
H           51.77749119624100       -2.43716554699819       -1.03551576403232
H           51.78847868818570        2.47362598170685        0.92892760029778
H           49.90576466263984        4.24563964975764        1.63179965143691
H           46.34982247813512        4.06744555003232        3.62430167489583
H           46.35789679178151        6.36760848498548        4.52059245732229
H           48.17372463596484        7.76885768491075        0.89319917639852
H           48.15409902623103        5.46753341842911       -0.00077706534639
H           44.59028791770935        4.25131452979431        1.64983574673428
H           42.70105965082033        2.48235329859423        0.97929751107441

          :  Hamiltonian                  GFN1-xTB          :
         :: total energy            -310.545487716408 Eh    ::
         :: gradient norm              0.000638226808 Eh/a0 ::
         :: HOMO-LUMO gap              0.941071682442 eV    ::
         :: SCC energy              -315.761264931747 Eh    ::
         :: repulsion energy           5.384040153063 Eh    ::

    * Orbital Energies and Occupations

         #    Occupation            Energy/Eh            Energy/eV
      -------------------------------------------------------------
         1        2.0000           -0.7724198             -21.0186
       ...           ...                  ...                  ...
       273        2.0000           -0.4327452             -11.7756
       274        2.0000           -0.4324706             -11.7681
       275        2.0000           -0.4322742             -11.7628
       276        2.0000           -0.4322320             -11.7616
       277        2.0000           -0.4321168             -11.7585
       278        2.0000           -0.4319458             -11.7538
       279        2.0000           -0.4300497             -11.7022
       280        2.0000           -0.4060203             -11.0484
       281        2.0000           -0.4048636             -11.0169
       282        2.0000           -0.4048479             -11.0165
       283        2.0000           -0.4042772             -11.0009
       284        2.0000           -0.3952443             -10.7551
       285        2.0000           -0.3857255             -10.4961 (HOMO)
       286                         -0.3511418              -9.5551 (LUMO)
       287                         -0.3398964              -9.2491
       288                         -0.3397870              -9.2461
       289                         -0.3392269              -9.2308
       290                         -0.3390391              -9.2257
       291                         -0.3294682              -8.9653
       292                         -0.3132060              -8.5228
       293                         -0.3092275              -8.4145
       294                         -0.3077635              -8.3747
       295                         -0.3029053              -8.2425
       296                         -0.3021751              -8.2226
       ...                                ...                  ...
       608                          1.3316461              36.2359
      -------------------------------------------------------------
                  HL-Gap            0.0345837 Eh            0.9411 eV

Wiberg/Mayer (AO) data.
largest (>0.10) Wiberg bond orders for each atom

     #   Z sym  total        # sym  WBO       # sym  WBO       # sym  WBO
 ---------------------------------------------------------------------------
     1  30 Zn   1.995 --     7 N    0.459    41 N    0.459    27 N    0.456
                            20 N    0.456
     2   6 C    3.927 --    40 C    1.358     3 C    1.358    42 H    0.971
     3   6 C    3.921 --     2 C    1.358     7 N    1.233     4 C    1.170
     4   6 C    3.960 --     5 C    1.660     3 C    1.170    43 H    0.975
     5   6 C    3.963 --     4 C    1.660     6 C    1.171    44 H    0.973
     6   6 C    3.918 --     8 C    1.314     7 N    1.245     5 C    1.171
     7   7 N    3.293 --     6 C    1.245     3 C    1.233     1 Zn   0.459
     8   6 C    3.931 --    17 C    1.321     6 C    1.314     9 C    1.029
     9   6 C    3.963 --    16 C    1.386    10 C    1.385     8 C    1.029
    10   6 C    3.987 --    11 C    1.464     9 C    1.385    45 H    0.971
                            15 C    0.102
    11   6 C    3.993 --    10 C    1.464    12 C    1.364    46 H    0.972
                            16 C    0.102
    12   6 C    3.984 --    15 C    1.364    11 C    1.364    13 C    1.098
    13   6 C    3.957 --    14 N    2.819    12 C    1.098
    14   7 N    2.973 --    13 C    2.819
    15   6 C    3.993 --    16 C    1.463    12 C    1.364    47 H    0.972
                            10 C    0.102
    16   6 C    3.988 --    15 C    1.463     9 C    1.386    48 H    0.971
                            11 C    0.102
    17   6 C    3.913 --     8 C    1.321    20 N    1.227    18 C    1.179
    18   6 C    3.959 --    19 C    1.645    17 C    1.179    49 H    0.973
    19   6 C    3.962 --    18 C    1.645    21 C    1.187    50 H    0.965
    20   7 N    3.296 --    21 C    1.261    17 C    1.227     1 Zn   0.456
    21   6 C    3.905 --    20 N    1.261    22 C    1.257    19 C    1.187
    22   6 C    3.939 --    23 C    1.258    21 C    1.257   117 C    1.181
    23   6 C    3.905 --    27 N    1.261    22 C    1.258    24 C    1.187
    24   6 C    3.962 --    25 C    1.645    23 C    1.187    51 H    0.965
    25   6 C    3.959 --    24 C    1.645    26 C    1.179    52 H    0.973
    26   6 C    3.913 --    28 C    1.321    27 N    1.227    25 C    1.179
    27   7 N    3.296 --    23 C    1.261    26 C    1.227     1 Zn   0.456
    28   6 C    3.931 --    26 C    1.321    37 C    1.314    29 C    1.029
    29   6 C    3.963 --    36 C    1.386    30 C    1.385    28 C    1.029
    30   6 C    3.987 --    31 C    1.464    29 C    1.385    53 H    0.971
                            35 C    0.102
    31   6 C    3.993 --    30 C    1.464    32 C    1.364    54 H    0.972
                            36 C    0.102
    32   6 C    3.984 --    35 C    1.364    31 C    1.364    33 C    1.098
    33   6 C    3.957 --    34 N    2.819    32 C    1.098
    34   7 N    2.973 --    33 C    2.819
    35   6 C    3.993 --    36 C    1.463    32 C    1.364    55 H    0.972
                            30 C    0.102
    36   6 C    3.988 --    35 C    1.463    29 C    1.386    56 H    0.971
                            31 C    0.102
    37   6 C    3.918 --    28 C    1.314    41 N    1.245    38 C    1.171
    38   6 C    3.963 --    39 C    1.660    37 C    1.171    57 H    0.973
    39   6 C    3.960 --    38 C    1.660    40 C    1.170    58 H    0.975
    40   6 C    3.921 --     2 C    1.358    41 N    1.233    39 C    1.170
    41   7 N    3.293 --    37 C    1.245    40 C    1.233     1 Zn   0.459
    42   1 H    1.001 --     2 C    0.971
    43   1 H    0.998 --     4 C    0.975
    44   1 H    1.004 --     5 C    0.973
    45   1 H    1.003 --    10 C    0.971
    46   1 H    1.000 --    11 C    0.972
    47   1 H    1.000 --    15 C    0.972
    48   1 H    1.004 --    16 C    0.971
    49   1 H    1.004 --    18 C    0.973
    50   1 H    1.007 --    19 C    0.965
    51   1 H    1.008 --    24 C    0.965
    52   1 H    1.004 --    25 C    0.973
    53   1 H    1.004 --    30 C    0.971
    54   1 H    1.000 --    31 C    0.972
    55   1 H    1.000 --    35 C    0.972
    56   1 H    1.004 --    36 C    0.971
    57   1 H    1.004 --    38 C    0.973
    58   1 H    0.998 --    39 C    0.975
    59  30 Zn   1.995 --    65 N    0.460    99 N    0.460    78 N    0.455
                            85 N    0.455
    60   6 C    3.929 --    98 C    1.358    61 C    1.358   100 H    0.971
    61   6 C    3.921 --    60 C    1.358    65 N    1.233    62 C    1.170
    62   6 C    3.960 --    63 C    1.660    61 C    1.170   101 H    0.975
    63   6 C    3.963 --    62 C    1.660    64 C    1.171   102 H    0.973
    64   6 C    3.919 --    66 C    1.314    65 N    1.245    63 C    1.171
    65   7 N    3.294 --    64 C    1.245    61 C    1.233    59 Zn   0.460
    66   6 C    3.932 --    75 C    1.320    64 C    1.314    67 C    1.031
    67   6 C    3.963 --    74 C    1.385    68 C    1.385    66 C    1.031
    68   6 C    3.987 --    69 C    1.464    67 C    1.385   103 H    0.971
                            73 C    0.102
    69   6 C    3.993 --    68 C    1.464    70 C    1.364   104 H    0.972
                            74 C    0.102
    70   6 C    3.984 --    73 C    1.364    69 C    1.364    71 C    1.098
    71   6 C    3.957 --    72 N    2.819    70 C    1.098
    72   7 N    2.972 --    71 C    2.819
    73   6 C    3.993 --    74 C    1.464    70 C    1.364   105 H    0.972
                            68 C    0.102
    74   6 C    3.987 --    73 C    1.464    67 C    1.385   106 H    0.971
                            69 C    0.102
    75   6 C    3.913 --    66 C    1.320    78 N    1.229    76 C    1.178
    76   6 C    3.960 --    77 C    1.646    75 C    1.178   107 H    0.973
    77   6 C    3.962 --    76 C    1.646    79 C    1.185   108 H    0.972
    78   7 N    3.297 --    79 C    1.259    75 C    1.229    59 Zn   0.455
    79   6 C    3.908 --    80 C    1.262    78 N    1.259    77 C    1.185
    80   6 C    3.939 --    79 C    1.262    81 C    1.262   120 C    1.172
    81   6 C    3.908 --    80 C    1.262    85 N    1.259    82 C    1.185
    82   6 C    3.962 --    83 C    1.646    81 C    1.185   109 H    0.972
    83   6 C    3.960 --    82 C    1.646    84 C    1.178   110 H    0.973
    84   6 C    3.913 --    86 C    1.320    85 N    1.229    83 C    1.178
    85   7 N    3.297 --    81 C    1.259    84 C    1.229    59 Zn   0.455
    86   6 C    3.932 --    84 C    1.320    95 C    1.314    87 C    1.031
    87   6 C    3.963 --    94 C    1.385    88 C    1.385    86 C    1.031
    88   6 C    3.987 --    89 C    1.464    87 C    1.385   111 H    0.971
                            93 C    0.102
    89   6 C    3.993 --    88 C    1.464    90 C    1.363   112 H    0.972
                            94 C    0.102
    90   6 C    3.984 --    93 C    1.364    89 C    1.363    91 C    1.098
    91   6 C    3.957 --    92 N    2.819    90 C    1.098
    92   7 N    2.972 --    91 C    2.819
    93   6 C    3.993 --    94 C    1.464    90 C    1.364   113 H    0.972
                            88 C    0.102
    94   6 C    3.987 --    93 C    1.464    87 C    1.385   114 H    0.971
                            89 C    0.102
    95   6 C    3.918 --    86 C    1.314    99 N    1.245    96 C    1.171
    96   6 C    3.963 --    97 C    1.660    95 C    1.171   115 H    0.973
    97   6 C    3.960 --    96 C    1.660    98 C    1.170   116 H    0.975
    98   6 C    3.921 --    60 C    1.358    99 N    1.233    97 C    1.170
    99   7 N    3.294 --    95 C    1.245    98 C    1.233    59 Zn   0.460
   100   1 H    1.001 --    60 C    0.971
   101   1 H    0.998 --    62 C    0.975
   102   1 H    1.004 --    63 C    0.973
   103   1 H    1.004 --    68 C    0.971
   104   1 H    1.000 --    69 C    0.972
   105   1 H    1.000 --    73 C    0.972
   106   1 H    1.004 --    74 C    0.971
   107   1 H    1.004 --    76 C    0.973
   108   1 H    1.004 --    77 C    0.972
   109   1 H    1.004 --    82 C    0.972
   110   1 H    1.004 --    83 C    0.973
   111   1 H    1.004 --    88 C    0.971
   112   1 H    1.000 --    89 C    0.972
   113   1 H    1.000 --    93 C    0.972
   114   1 H    1.004 --    94 C    0.971
   115   1 H    1.004 --    96 C    0.973
   116   1 H    0.998 --    97 C    0.975
   117   6 C    3.932 --   118 C    2.575    22 C    1.181
   118   6 C    3.934 --   117 C    2.575   122 C    1.182
   119   6 C    3.933 --   120 C    2.579   142 C    1.173
   120   6 C    3.930 --   119 C    2.579    80 C    1.172
   121  30 Zn   1.993 --   127 N    0.457   161 N    0.457   147 N    0.456
                           140 N    0.455
   122   6 C    3.929 --   160 C    1.256   123 C    1.256   118 C    1.182
   123   6 C    3.906 --   127 N    1.261   122 C    1.256   124 C    1.189
   124   6 C    3.960 --   125 C    1.642   123 C    1.189   162 H    0.965
   125   6 C    3.960 --   124 C    1.642   126 C    1.181   163 H    0.973
   126   6 C    3.912 --   128 C    1.319   127 N    1.226   125 C    1.181
   127   7 N    3.291 --   123 C    1.261   126 C    1.226   121 Zn   0.457
   128   6 C    3.927 --   126 C    1.319   137 C    1.318   129 C    1.028
   129   6 C    3.963 --   130 C    1.386   136 C    1.386   128 C    1.028
   130   6 C    3.988 --   131 C    1.463   129 C    1.386   164 H    0.971
                           135 C    0.102
   131   6 C    3.993 --   130 C    1.463   132 C    1.364   165 H    0.972
                           136 C    0.102
   132   6 C    3.984 --   131 C    1.364   135 C    1.364   133 C    1.098
   133   6 C    3.958 --   134 N    2.819   132 C    1.098
   134   7 N    2.973 --   133 C    2.819
   135   6 C    3.993 --   136 C    1.464   132 C    1.364   166 H    0.972
                           130 C    0.102
   136   6 C    3.987 --   135 C    1.464   129 C    1.386   167 H    0.971
                           131 C    0.102
   137   6 C    3.912 --   128 C    1.318   140 N    1.228   138 C    1.180
   138   6 C    3.961 --   139 C    1.644   137 C    1.180   168 H    0.973
   139   6 C    3.961 --   138 C    1.644   141 C    1.187   169 H    0.972
   140   7 N    3.291 --   141 C    1.260   137 C    1.228   121 Zn   0.455
   141   6 C    3.908 --   142 C    1.260   140 N    1.260   139 C    1.187
   142   6 C    3.928 --   143 C    1.260   141 C    1.260   119 C    1.173
   143   6 C    3.908 --   142 C    1.260   147 N    1.259   144 C    1.187
   144   6 C    3.961 --   145 C    1.644   143 C    1.187   170 H    0.972
   145   6 C    3.961 --   144 C    1.644   146 C    1.180   171 H    0.973
   146   6 C    3.912 --   148 C    1.318   147 N    1.228   145 C    1.180
   147   7 N    3.291 --   143 C    1.259   146 C    1.228   121 Zn   0.456
   148   6 C    3.927 --   157 C    1.319   146 C    1.318   149 C    1.028
   149   6 C    3.963 --   150 C    1.386   156 C    1.386   148 C    1.028
   150   6 C    3.988 --   151 C    1.463   149 C    1.386   172 H    0.971
                           155 C    0.102
   151   6 C    3.993 --   150 C    1.463   152 C    1.364   173 H    0.972
                           156 C    0.102
   152   6 C    3.985 --   151 C    1.364   155 C    1.364   153 C    1.098
   153   6 C    3.958 --   154 N    2.819   152 C    1.098
   154   7 N    2.973 --   153 C    2.819
   155   6 C    3.993 --   156 C    1.464   152 C    1.364   174 H    0.972
                           150 C    0.102
   156   6 C    3.988 --   155 C    1.464   149 C    1.386   175 H    0.971
                           151 C    0.102
   157   6 C    3.912 --   148 C    1.319   161 N    1.226   158 C    1.181
   158   6 C    3.960 --   159 C    1.642   157 C    1.181   176 H    0.973
   159   6 C    3.960 --   158 C    1.642   160 C    1.189   177 H    0.965
   160   6 C    3.906 --   161 N    1.261   122 C    1.256   159 C    1.189
   161   7 N    3.291 --   160 C    1.261   157 C    1.226   121 Zn   0.457
   162   1 H    1.008 --   124 C    0.965
   163   1 H    1.004 --   125 C    0.973
   164   1 H    1.004 --   130 C    0.971
   165   1 H    1.000 --   131 C    0.972
   166   1 H    1.000 --   135 C    0.972
   167   1 H    1.003 --   136 C    0.971
   168   1 H    1.004 --   138 C    0.973
   169   1 H    1.004 --   139 C    0.972
   170   1 H    1.004 --   144 C    0.972
   171   1 H    1.004 --   145 C    0.973
   172   1 H    1.003 --   150 C    0.971
   173   1 H    1.000 --   151 C    0.972
   174   1 H    1.000 --   155 C    0.972
   175   1 H    1.003 --   156 C    0.971
   176   1 H    1.004 --   158 C    0.973
   177   1 H    1.007 --   159 C    0.965
 ---------------------------------------------------------------------------

           -------------------------------------------------
          | TOTAL ENERGY             -310.545487716408 Eh   |
          | GRADIENT NORM               0.000638226808 Eh/α |
          | HOMO-LUMO GAP               0.941071682442 eV   |
           -------------------------------------------------

 * finished run on 2022/07/30 at 16:20:28.051
