   * xtb version 6.5.1 (b24c23e) compiled by 'conda@728c89f4b128' on 2022-07-12
          program call               : xtb H_C8_3.xyz --gfn 1 --opt -T 48

   ID    Z sym.   atoms
    1    6 C      1-5, 7-10, 12-17, 19-23, 38-42, 44-47, 49-54, 56-60, 75-95,
                  97-100, 102-107, 109-113
    2    7 N      6, 11, 18, 24, 43, 48, 55, 61, 96, 101, 108, 114
    3    1 H      25-37, 62-74, 115-126

          :  Hamiltonian                  GFN1-xTB          :
 * total energy  :  -217.5477800 Eh     change        0.3446502E-08 Eh
 * total energy  :  -218.1703250 Eh     change       -0.6225450E+00 Eh
 * total energy  :  -218.3468860 Eh     change       -0.1765610E+00 Eh
 * total energy  :  -218.4231204 Eh     change       -0.7623434E-01 Eh
 * total energy  :  -218.4480716 Eh     change       -0.2495121E-01 Eh
 * total energy  :  -218.4599839 Eh     change       -0.1191231E-01 Eh
 * total energy  :  -218.4665049 Eh     change       -0.6521007E-02 Eh
 * total energy  :  -218.4712995 Eh     change       -0.4794581E-02 Eh
 * total energy  :  -218.4779526 Eh     change       -0.6653193E-02 Eh
 * total energy  :  -218.4871754 Eh     change       -0.9222742E-02 Eh
 * total energy  :  -218.9214638 Eh     change        0.1413913E-03 Eh
 * total energy  :  -218.9216676 Eh     change       -0.2038616E-03 Eh
 * total energy  :  -218.9216515 Eh     change        0.1618618E-04 Eh
 * total energy  :  -218.9216812 Eh     change       -0.2971714E-04 Eh
 * total energy  :  -218.9215235 Eh     change        0.1576587E-03 Eh
 * total energy  :  -218.9216763 Eh     change       -0.1528164E-03 Eh
 * total energy  :  -218.9216923 Eh     change       -0.1593981E-04 Eh
 * total energy  :  -218.9216987 Eh     change       -0.6394780E-05 Eh
 * total energy  :  -218.9216993 Eh     change       -0.6657740E-06 Eh
   *** GEOMETRY OPTIMIZATION CONVERGED AFTER 81 ITERATIONS ***

 final structure:
================
126
 xtb: 6.5.1 (b24c23e)
C            7.32205202383588       -0.06216465419817       -0.00431100066508
C            7.94612916750154       -1.30149736481435       -0.06940387744068
C            7.33148476199014       -2.58472387350342       -0.13980340363238
C            8.32309074558106       -3.52366381636173       -0.19018947078113
C            9.57453769597616       -2.84402160991737       -0.15163107693648
N            9.29602030558789       -1.50980649414236       -0.07927275010136
C           10.84316317809049       -3.41153896187304       -0.18051553403743
C           12.06260236743614       -2.75108506686576       -0.14287003245738
C           13.34140845007437       -3.43845648129410       -0.17754009364209
C           14.29036924272125       -2.48096598366058       -0.12505785881860
N           12.25499108619483       -1.40561116568529       -0.07091662343446
C           13.58733684215390       -1.21224625665047       -0.05887307592664
C           14.24207654130482        0.03579383997758        0.00613085305606
C           13.59225171042331        1.28316341459560        0.06904710229245
C           14.20166636632141        2.56540084752255        0.13375353039053
C           13.20630621108427        3.50217841071209        0.17972969821506
C           11.95900766768322        2.81812580231101        0.14440123689496
N           12.24488735777442        1.48101745272223        0.07793708899349
C           10.69173674894250        3.38642553433217        0.17126673666765
C            9.47119070025760        2.72329354607818        0.13723310611760
C            8.18612429573854        3.40451343250768        0.16989031854544
C            7.24316971194763        2.44219831772258        0.12190332417799
C            7.95307571497867        1.17447522405810        0.05935759885028
N            9.29123468881761        1.38336436344077        0.07074513758983
H            6.23721583482738       -0.06954985956963       -0.00519430358486
H            6.26614930135807       -2.75204962131972       -0.15018613647694
H            8.21175366595600       -4.59476710786003       -0.24913504396265
H            9.99114687372412       -0.77206077169468       -0.03863250379941
H           10.87414116610201       -4.49484450442893       -0.23923262800772
H           13.46269757132101       -4.50884069523277       -0.23433002407785
H           15.36311408648043       -2.59146902940679       -0.12922473758944
H           15.26625088800314        2.73612323530031        0.14322941690287
H           13.31457780179871        4.57372846211959        0.23335016019671
H           11.55228157163101        0.74044658146571        0.03999349730254
H           10.66202326941674        4.46995038428909        0.22488838870058
H            8.05936721955228        4.47465985390281        0.22232050765785
H            6.16924918262288        2.54542889217733        0.12613860282054
C           51.62906380506273        0.05708432460393       -0.01287132763390
C           51.00420788118472        1.27781598324860       -0.23427565179603
C           51.61806313141633        2.54269053191011       -0.46384746758419
C           50.62588144229127        3.46729688677624       -0.63150279212601
C           49.37485908032583        2.79678147333163       -0.50958471243519
N           49.65419199364418        1.48220957548121       -0.27121765063618
C           48.10586520069478        3.35522716842164       -0.61009742846035
C           46.88690975044636        2.70361136061963       -0.49099062569861
C           45.60760571578280        3.38016578895065       -0.61206343022860
C           44.65935809191730        2.43604566059413       -0.44025851658639
N           46.69551941274602        1.37762680403205       -0.25091615727367
C           45.36332263059744        1.18620715576189       -0.21517393452400
C           44.70939217734764       -0.04421286659514        0.00620199154090
C           45.35990963685607       -1.27317516521793        0.22645018174807
C           44.75131064383005       -2.53715491878213        0.45376871635138
C           45.74726928739413       -3.45960107297311        0.61980183249897
C           46.99413921085907       -2.78463360624219        0.49862396830199
N           46.70740858533077       -1.46723595769158        0.26147579154876
C           48.26179922495866       -3.34359557734818        0.59992201890874
C           49.48187110534558       -2.68913669805266        0.48264771494438
C           50.76742951716440       -3.35923165428231        0.60448980872980
C           51.70968867214509       -2.41029426783995        0.43367163854271
C           50.99887249719242       -1.16183588194175        0.20760909464925
N           49.66086416190300       -1.36876848668965        0.24429344683913
H           52.71389543384866        0.06512749869347       -0.01406079339327
H           52.68329521558569        2.70826316404396       -0.49404340506490
H           50.73654310773658        4.52285089687275       -0.82307056694326
H           48.95949042136792        0.75483584614578       -0.13914512408414
H           48.07412358007779        4.42271080019972       -0.80355502235455
H           45.48551536964579        4.43486211368540       -0.80275841501240
H           43.58653864714708        2.54427560858202       -0.45876843991594
H           43.68683150345807       -2.70611670612108        0.48410337235224
H           45.63968357209720       -4.51561342092978        0.80976567292814
H           47.39956364666155       -0.73696841497250        0.13025786386650
H           48.29228889502382       -4.41122395727694        0.79234782397221
H           50.89496951708658       -4.41348872791289        0.79504076227621
H           52.78368422979077       -2.51107114879832        0.45257111247104
C           15.64564023325174        0.04902285024739        0.00589939477191
C           16.87055362858837        0.06088095720907        0.00554184628575
C           18.21254558395955        0.06903618389049        0.00582467790161
C           19.44364018806646        0.07435407256583        0.00337877733116
C           20.78087067636564        0.07579525619174        0.00286391016010
C           22.01204714182618        0.07227851938007        0.00011232989197
C           23.35378794659771        0.06451344236437       -0.00173086493934
C           24.57892872464497        0.05296359615409       -0.00111120425567
C           34.37242389252501       -0.05856306855972        0.00156565946157
C           35.59759383548628       -0.06724455088864        0.00431448729216
C           36.93934688151762       -0.07271331707441        0.00581489128071
C           38.17053670077663       -0.07594702353855        0.00818060218104
C           39.50778069069460       -0.07573097042202        0.01001773463539
C           40.73888208062831       -0.07362260886493        0.01166944010537
C           42.08088900830286       -0.06759483703289        0.01072398729155
C           43.30581462506730       -0.05765044353075        0.00887140085204
C           25.98144019304507        0.04159564794369       -0.00198975261183
C           26.63425710297490        1.28976567820488       -0.01639155193102
C           26.03296269670091        2.57607011805747       -0.02984398639859
C           27.03557090952468        3.50747770956236       -0.04373607885331
C           28.27708848426888        2.81430028025051       -0.03905572916024
N           27.98302068369406        1.47831949161210       -0.02187842237317
C           29.54808987032622        3.37875022906331       -0.05103811333912
C           30.77141700727682        2.72641030685272       -0.04549774101917
C           32.04458173935127        3.42486979569133       -0.05975948243603
C           33.00155558281980        2.47388027340512       -0.04599792405532
N           30.97481884082784        1.38083111045489       -0.02446581553620
C           32.30893327979896        1.19861301815246       -0.02342952082444
C           32.96989312669749       -0.04754397957435       -0.00077465024943
C           32.31715055211202       -1.29558633440681        0.02086127255572
C           32.91842938805671       -2.58175480039251        0.04438189817915
C           31.91580895806305       -3.51316322401737        0.05704727200683
C           30.67428953065238       -2.82012640283320        0.04171976864657
N           30.96837569813643       -1.48420823553730        0.02061920467495
C           29.40327525378234       -3.38465246974637        0.04601364210178
C           28.17993440802340       -2.73243294738724        0.03316718367840
C           26.90676906817302       -3.43103755281083        0.03915636365058
C           25.94977494775872       -2.48005988433624        0.02576157232286
C           26.64238076279416       -1.20466872030071        0.01166196024694
N           27.97650050481838       -1.38680666640520        0.01580649197904
H           24.96960517109710        2.75430271307646       -0.02889557189819
H           26.93447949253952        4.58099141353874       -0.05608998714628
H           28.66733378765006        0.72908249347395       -0.01473862245221
H           29.57528868312593        4.46387698857740       -0.06633028392420
H           32.15702543883688        4.49756517977959       -0.07765947162536
H           34.07338620816333        2.59283812208850       -0.05015239329582
H           33.98178914821910       -2.75989850409234        0.05047476457254
H           32.01690620056075       -4.58659256867854        0.07543673117908
H           30.28407221597867       -0.73506975207260        0.00616486265532
H           29.37606867013616       -4.46977543070540        0.06182146472400
H           26.79433872636746       -4.50380973162261        0.05197778158736
H           24.87793981811277       -2.59908481198879        0.02512831322413

          :  Hamiltonian                  GFN1-xTB          :
         :: total energy            -218.921699333734 Eh    ::
         :: gradient norm              0.000296279383 Eh/a0 ::
         :: HOMO-LUMO gap              0.891272139743 eV    ::
         :: SCC energy              -222.880848563095 Eh    ::
         :: repulsion energy           4.056326802325 Eh    ::

    * Orbital Energies and Occupations

         #    Occupation            Energy/Eh            Energy/eV
      -------------------------------------------------------------
         1        2.0000           -0.8062522             -21.9392
       ...           ...                  ...                  ...
       189        2.0000           -0.4174842             -11.3603
       190        2.0000           -0.4172220             -11.3532
       191        2.0000           -0.4171085             -11.3501
       192        2.0000           -0.4159603             -11.3189
       193        2.0000           -0.4118132             -11.2060
       194        2.0000           -0.4084345             -11.1141
       195        2.0000           -0.4083529             -11.1118
       196        2.0000           -0.4013481             -10.9212
       197        2.0000           -0.4000170             -10.8850
       198        2.0000           -0.3999718             -10.8838
       199        2.0000           -0.3905211             -10.6266
       200        2.0000           -0.3854274             -10.4880
       201        2.0000           -0.3792446             -10.3198 (HOMO)
       202                         -0.3464909              -9.4285 (LUMO)
       203                         -0.3382083              -9.2031
       204                         -0.3335791              -9.0771
       205                         -0.3324845              -9.0474
       206                         -0.3318199              -9.0293
       207                         -0.3316085              -9.0235
       208                         -0.3100141              -8.4359
       209                         -0.3016020              -8.2070
       210                         -0.3014582              -8.2031
       211                         -0.2995092              -8.1501
       212                         -0.2952536              -8.0343
       ...                                ...                  ...
       428                          1.6045979              43.6633
      -------------------------------------------------------------
                  HL-Gap            0.0327536 Eh            0.8913 eV

Wiberg/Mayer (AO) data.
largest (>0.10) Wiberg bond orders for each atom

     #   Z sym  total        # sym  WBO       # sym  WBO       # sym  WBO
 ---------------------------------------------------------------------------
     1   6 C    3.930 --    23 C    1.364     2 C    1.349    25 H    0.972
     2   6 C    3.903 --     1 C    1.349     3 C    1.225     6 N    1.172
     3   6 C    3.954 --     4 C    1.602     2 C    1.225    26 H    0.977
     4   6 C    3.958 --     3 C    1.602     5 C    1.227    27 H    0.977
     5   6 C    3.897 --     7 C    1.342     4 C    1.227     6 N    1.175
     6   7 N    3.472 --     5 C    1.175     2 C    1.172    28 H    0.873
     7   6 C    3.945 --     8 C    1.380     5 C    1.342    29 H    0.971
     8   6 C    3.915 --     7 C    1.380    11 N    1.277     9 C    1.119
     9   6 C    3.965 --    10 C    1.717     8 C    1.119    30 H    0.976
    10   6 C    3.964 --     9 C    1.717    12 C    1.123    31 H    0.975
    11   7 N    3.026 --    12 C    1.354     8 C    1.277
    12   6 C    3.908 --    11 N    1.354    13 C    1.250    10 C    1.123
    13   6 C    3.942 --    14 C    1.252    12 C    1.250    75 C    1.196
    14   6 C    3.884 --    13 C    1.252    15 C    1.244    18 N    1.193
    15   6 C    3.959 --    16 C    1.590    14 C    1.244    32 H    0.975
    16   6 C    3.953 --    15 C    1.590    17 C    1.232    33 H    0.977
    17   6 C    3.898 --    19 C    1.351    16 C    1.232    18 N    1.161
    18   7 N    3.476 --    14 C    1.193    17 C    1.161    34 H    0.873
    19   6 C    3.929 --    20 C    1.363    17 C    1.351    35 H    0.971
    20   6 C    3.930 --    19 C    1.363    24 N    1.309    21 C    1.112
    21   6 C    3.967 --    22 C    1.730    20 C    1.112    36 H    0.976
    22   6 C    3.966 --    21 C    1.730    23 C    1.113    37 H    0.976
    23   6 C    3.929 --     1 C    1.364    24 N    1.307    22 C    1.113
    24   7 N    3.016 --    20 C    1.309    23 C    1.307
    25   1 H    1.002 --     1 C    0.972
    26   1 H    0.998 --     3 C    0.977
    27   1 H    0.998 --     4 C    0.977
    28   1 H    0.986 --     6 N    0.873
    29   1 H    1.002 --     7 C    0.971
    30   1 H    0.998 --     9 C    0.976
    31   1 H    1.002 --    10 C    0.975
    32   1 H    1.001 --    15 C    0.975
    33   1 H    0.998 --    16 C    0.977
    34   1 H    0.987 --    18 N    0.873
    35   1 H    1.002 --    19 C    0.971
    36   1 H    0.998 --    21 C    0.976
    37   1 H    0.998 --    22 C    0.976
    38   6 C    3.930 --    60 C    1.364    39 C    1.349    62 H    0.972
    39   6 C    3.903 --    38 C    1.349    40 C    1.225    43 N    1.172
    40   6 C    3.954 --    41 C    1.602    39 C    1.225    63 H    0.977
    41   6 C    3.958 --    40 C    1.602    42 C    1.227    64 H    0.977
    42   6 C    3.897 --    44 C    1.342    41 C    1.227    43 N    1.175
    43   7 N    3.472 --    42 C    1.175    39 C    1.172    65 H    0.873
    44   6 C    3.945 --    45 C    1.380    42 C    1.342    66 H    0.971
    45   6 C    3.915 --    44 C    1.380    48 N    1.277    46 C    1.119
    46   6 C    3.965 --    47 C    1.717    45 C    1.119    67 H    0.976
    47   6 C    3.964 --    46 C    1.717    49 C    1.123    68 H    0.975
    48   7 N    3.026 --    49 C    1.354    45 C    1.277
    49   6 C    3.908 --    48 N    1.354    50 C    1.250    47 C    1.123
    50   6 C    3.942 --    51 C    1.252    49 C    1.250    90 C    1.196
    51   6 C    3.884 --    50 C    1.252    52 C    1.244    55 N    1.193
    52   6 C    3.959 --    53 C    1.590    51 C    1.244    69 H    0.975
    53   6 C    3.953 --    52 C    1.590    54 C    1.232    70 H    0.977
    54   6 C    3.898 --    56 C    1.351    53 C    1.232    55 N    1.161
    55   7 N    3.476 --    51 C    1.193    54 C    1.161    71 H    0.873
    56   6 C    3.929 --    57 C    1.363    54 C    1.351    72 H    0.971
    57   6 C    3.930 --    56 C    1.363    61 N    1.309    58 C    1.112
    58   6 C    3.967 --    59 C    1.730    57 C    1.112    73 H    0.976
    59   6 C    3.966 --    58 C    1.730    60 C    1.113    74 H    0.976
    60   6 C    3.929 --    38 C    1.364    61 N    1.307    59 C    1.113
    61   7 N    3.016 --    57 C    1.309    60 C    1.307
    62   1 H    1.002 --    38 C    0.972
    63   1 H    0.998 --    40 C    0.977
    64   1 H    0.998 --    41 C    0.977
    65   1 H    0.986 --    43 N    0.873
    66   1 H    1.002 --    44 C    0.971
    67   1 H    0.998 --    46 C    0.976
    68   1 H    1.002 --    47 C    0.975
    69   1 H    1.001 --    52 C    0.975
    70   1 H    0.998 --    53 C    0.977
    71   1 H    0.987 --    55 N    0.873
    72   1 H    1.002 --    56 C    0.971
    73   1 H    0.998 --    58 C    0.976
    74   1 H    0.998 --    59 C    0.976
    75   6 C    3.876 --    76 C    2.434    13 C    1.196    78 C    0.186
    76   6 C    3.933 --    75 C    2.434    77 C    1.347
    77   6 C    3.891 --    78 C    2.331    76 C    1.347    80 C    0.182
    78   6 C    3.924 --    77 C    2.331    79 C    1.373    75 C    0.186
    79   6 C    3.922 --    80 C    2.330    78 C    1.373    82 C    0.186
    80   6 C    3.892 --    79 C    2.330    81 C    1.349    77 C    0.182
    81   6 C    3.929 --    82 C    2.431    80 C    1.349
    82   6 C    3.877 --    81 C    2.431    91 C    1.200    79 C    0.186
    83   6 C    3.877 --    84 C    2.431   103 C    1.200    86 C    0.186
    84   6 C    3.929 --    83 C    2.431    85 C    1.349
    85   6 C    3.892 --    86 C    2.330    84 C    1.349    88 C    0.182
    86   6 C    3.922 --    85 C    2.330    87 C    1.373    83 C    0.186
    87   6 C    3.924 --    88 C    2.331    86 C    1.373    90 C    0.186
    88   6 C    3.891 --    87 C    2.331    89 C    1.347    85 C    0.182
    89   6 C    3.933 --    90 C    2.435    88 C    1.347
    90   6 C    3.876 --    89 C    2.435    50 C    1.196    87 C    0.186
    91   6 C    3.929 --   113 C    1.249    92 C    1.247    82 C    1.200
    92   6 C    3.885 --    93 C    1.249    91 C    1.247    96 N    1.193
    93   6 C    3.956 --    94 C    1.583    92 C    1.249   115 H    0.975
    94   6 C    3.954 --    93 C    1.583    95 C    1.238   116 H    0.977
    95   6 C    3.894 --    97 C    1.339    94 C    1.238    96 N    1.163
    96   7 N    3.473 --    92 C    1.193    95 C    1.163   117 H    0.873
    97   6 C    3.932 --    98 C    1.382    95 C    1.339   118 H    0.971
    98   6 C    3.917 --    97 C    1.382   101 N    1.275    99 C    1.119
    99   6 C    3.965 --   100 C    1.717    98 C    1.119   119 H    0.976
   100   6 C    3.963 --    99 C    1.717   102 C    1.125   120 H    0.975
   101   7 N    3.014 --   102 C    1.353    98 C    1.275
   102   6 C    3.908 --   101 N    1.353   103 C    1.249   100 C    1.125
   103   6 C    3.929 --   102 C    1.249   104 C    1.247    83 C    1.200
   104   6 C    3.885 --   105 C    1.249   103 C    1.247   108 N    1.193
   105   6 C    3.956 --   106 C    1.583   104 C    1.249   121 H    0.975
   106   6 C    3.954 --   105 C    1.583   107 C    1.238   122 H    0.977
   107   6 C    3.894 --   109 C    1.339   106 C    1.238   108 N    1.163
   108   7 N    3.473 --   104 C    1.193   107 C    1.163   123 H    0.873
   109   6 C    3.932 --   110 C    1.382   107 C    1.339   124 H    0.971
   110   6 C    3.917 --   109 C    1.382   114 N    1.275   111 C    1.119
   111   6 C    3.965 --   112 C    1.717   110 C    1.119   125 H    0.976
   112   6 C    3.963 --   111 C    1.717   113 C    1.125   126 H    0.975
   113   6 C    3.908 --   114 N    1.353    91 C    1.249   112 C    1.125
   114   7 N    3.014 --   113 C    1.353   110 C    1.275
   115   1 H    1.001 --    93 C    0.975
   116   1 H    0.998 --    94 C    0.977
   117   1 H    0.986 --    96 N    0.873
   118   1 H    1.002 --    97 C    0.971
   119   1 H    0.998 --    99 C    0.976
   120   1 H    1.002 --   100 C    0.975
   121   1 H    1.001 --   105 C    0.975
   122   1 H    0.998 --   106 C    0.977
   123   1 H    0.986 --   108 N    0.873
   124   1 H    1.002 --   109 C    0.971
   125   1 H    0.998 --   111 C    0.976
   126   1 H    1.002 --   112 C    0.975
 ---------------------------------------------------------------------------

           -------------------------------------------------
          | TOTAL ENERGY             -218.921699333734 Eh   |
          | GRADIENT NORM               0.000296279383 Eh/α |
          | HOMO-LUMO GAP               0.891272139743 eV   |
           -------------------------------------------------

 * finished run on 2022/07/26 at 16:55:41.578
