   * xtb version 6.5.1 (b24c23e) compiled by 'conda@728c89f4b128' on 2022-07-12
          program call               : xtb Co_PhCN_C8_3.xyz --gfn 1 --opt -T 48

   ID    Z sym.   atoms
    1   27 Co     1, 59, 133
    2    6 C      2-6, 8-13, 15-19, 21-26, 28-33, 35-40, 60-64, 66-71, 73-77,
                  79-84, 86-91, 93-98, 117-132, 134-138, 140-145, 147-151,
                  153-158, 160-165, 167-172
    3    7 N      7, 14, 20, 27, 34, 41, 65, 72, 78, 85, 92, 99, 139, 146,
                  152, 159, 166, 173
    4    1 H      42-58, 100-116, 174-189

          :  Hamiltonian                  GFN1-xTB          :
 * total energy  :  -342.8151309 Eh     change        0.1980084E-08 Eh
 * total energy  :  -343.1789384 Eh     change       -0.3638074E+00 Eh
 * total energy  :  -343.2995068 Eh     change       -0.1205684E+00 Eh
 * total energy  :  -343.3610993 Eh     change       -0.6159251E-01 Eh
 * total energy  :  -343.4156534 Eh     change       -0.5455406E-01 Eh
 * total energy  :  -343.4760055 Eh     change       -0.6035215E-01 Eh
 * total energy  :  -343.5334764 Eh     change       -0.5747085E-01 Eh
 * total energy  :  -343.5690484 Eh     change       -0.3557201E-01 Eh
 * total energy  :  -343.5970224 Eh     change       -0.2797400E-01 Eh
 * total energy  :  -343.6180905 Eh     change       -0.2106814E-01 Eh
 * total energy  :  -343.7473471 Eh     change       -0.7097575E-05 Eh
 * total energy  :  -343.7473580 Eh     change       -0.1097270E-04 Eh
 * total energy  :  -343.7473699 Eh     change       -0.1182295E-04 Eh
 * total energy  :  -343.7473737 Eh     change       -0.3805087E-05 Eh
 * total energy  :  -343.7473800 Eh     change       -0.6323119E-05 Eh
 * total energy  :  -343.7473846 Eh     change       -0.4577420E-05 Eh
 * total energy  :  -343.7473905 Eh     change       -0.5958433E-05 Eh
 * total energy  :  -343.7473957 Eh     change       -0.5225162E-05 Eh
 * total energy  :  -343.7473996 Eh     change       -0.3869533E-05 Eh
   *** GEOMETRY OPTIMIZATION CONVERGED AFTER 82 ITERATIONS ***

 final structure:
================
189
 xtb: 6.5.1 (b24c23e)
Co          28.71312704406169        0.02169071358061        0.05014238831291
C           25.34395639711718        0.02500124526966        0.18829987792980
C           25.99816706403463        1.23556864659392        0.10339021053794
C           25.33639762783449        2.50245318643576        0.03056619599413
C           26.29657037750446        3.44962367775931        0.14908578678364
C           27.54217842259203        2.75856855322175        0.31368828740776
N           27.35592225601404        1.40383238297187        0.21192710433896
C           28.73866442728859        3.37218650493360        0.66211017678864
C           28.75354296652867        4.82854094793575        0.92332614201376
C           27.94676562265602        5.37939907175048        1.92189435151476
C           27.96279831022396        6.74016315621753        2.16962714876337
C           28.78613440786465        7.58055284953423        1.41433367591293
C           28.80218772787526        8.98198510962204        1.66402129920406
N           28.81532211334143       10.11499641877811        1.86525151777339
C           29.59402236216196        7.03447888843120        0.41244608650563
C           29.57800248276505        5.67197884675645        0.17469695110467
C           29.91997553508953        2.65509706127501        0.78467652892995
C           31.16285843759293        3.21603816557165        1.22182200789763
C           32.10733647549080        2.26117819934925        1.04194445925944
N           30.09336388967777        1.34381285682921        0.40596873383614
C           31.43828315912019        1.12050745288983        0.50171157113426
C           32.10485359235861        0.00069703164272       -0.00376082208883
C           31.41028393954254       -1.10150269182475       -0.51061683020206
C           32.04707618350810       -2.23315620987494       -1.10568068152129
C           31.08114178333378       -3.16255079939485       -1.30407936683334
C           29.85972487633937       -2.60006642250126       -0.81122791028043
N           30.06459756950179       -1.30530598464100       -0.39134017994566
C           28.67813868188058       -3.30989661286520       -0.65690583340768
C           28.65870881303783       -4.75551803322473       -0.97167803046058
C           27.78197616092717       -5.25921286925035       -1.93561166970657
C           27.76196703986719       -6.61007196050356       -2.23254723552679
C           28.61863245095673       -7.48800812054696       -1.56173327850031
C           28.59827249304380       -8.87955391019290       -1.86138792941110
N           28.58174702784097      -10.00436467054318       -2.10395296775760
C           29.49537836803598       -6.98951151619610       -0.59352707999473
C           29.51466346485095       -5.63663285306421       -0.30638743443156
C           27.51309522311293       -2.70318529782558       -0.20375394982079
C           26.28388359403742       -3.39777653745895        0.04621755630979
C           25.34401146723771       -2.45454625505229        0.29123254543255
C           26.00123203268509       -1.18646002201708        0.19809275617801
N           27.34295515857500       -1.35300666270984       -0.04065567669959
H           24.26163424118468        0.02564639044539        0.23947062868821
H           24.27254958662530        2.62987260392851       -0.09099649274193
H           26.18480167584822        4.52162571028871        0.13306198952261
H           27.31677937986599        4.72956972538087        2.51871796675054
H           27.33909327636110        7.15948865971649        2.95038231864331
H           30.23117068788779        7.68331553307690       -0.17700966130649
H           30.19710461584584        5.25345416881983       -0.61074608058510
H           31.28542245433770        4.21204369705931        1.61504428846392
H           33.16549953193999        2.31258968169365        1.24147915644756
H           33.09937713737246       -2.29448817331952       -1.33175770372067
H           31.17666779582538       -4.14344215617132       -1.74036936178618
H           27.12433324384669       -4.58009315425421       -2.46631957341913
H           27.08366060845533       -6.99257633800295       -2.98620679187448
H           30.15775776114767       -7.66771928408555       -0.06847346917537
H           30.18644378266847       -5.25577650214956        0.45453969058109
H           26.16901110611221       -4.46949784218320        0.03233792066586
H           24.29545444688693       -2.58484319913557        0.50646889348434
Co          65.75919094671697        0.00720261348569        0.07438357172467
C           69.12978978045619        0.00816661245671        0.20332434329930
C           68.47473585562827       -1.20450523798865        0.18573683590777
C           69.13672191487554       -2.47338305626991        0.18013683848607
C           68.17645737597340       -3.41347095191260        0.34361860926542
C           66.93015618171830       -2.71548255138852        0.46946864395704
N           67.11659559444006       -1.36706912557174        0.29903032297879
C           65.73370988923998       -3.31180590189910        0.84370119241462
C           65.71750829488144       -4.75462147731700        1.17276544356432
C           66.51677201685115       -5.25760060778597        2.20207145378138
C           66.49898535940956       -6.60526458070692        2.51331670190909
C           65.68131758235799       -7.48050290741302        1.79220824158861
C           65.66244100173245       -8.86842747457858        2.10804179703752
N           65.64525361925584       -9.99068122336232        2.36193261545300
C           64.88116342451059       -6.98245983337338        0.75953742215668
C           64.89887715405982       -5.63257773996882        0.45830305490025
C           64.55245978767543       -2.58927181192932        0.93177702366087
C           63.31037807926715       -3.12990697362727        1.39559754319300
C           62.36602937498547       -2.18319538289812        1.17707884879701
N           64.37920616548463       -1.29642058608115        0.49526149794417
C           63.03383163644359       -1.06744080346664        0.58574855799146
C           62.36648415343527        0.02976281278641        0.03720264586865
C           63.05800104873379        1.10600363161492       -0.52327525712544
C           62.41766092884365        2.20908497649607       -1.16622213753415
C           63.38382699346773        3.12364187170476       -1.42285360690363
C           64.60944424090691        2.58260063207095       -0.91690293006842
N           64.40644331207980        1.31141686141015       -0.42977475013143
C           65.79487791762065        3.29576943494226       -0.81602041224298
C           65.81578728718564        4.72143794409330       -1.21226093113880
C           66.68118218830993        5.16451945464907       -2.21539052281071
C           66.70370901039362        6.49613717298333       -2.58908841334116
C           65.86088674134150        7.41567044286275       -1.95760454415611
C           65.88496757792576        8.78774397547519       -2.33611107852012
N           65.90652036443636        9.89718171365256       -2.64067480749386
C           64.99548607243082        6.97804617168153       -0.95052385777407
C           64.97379830030685        5.64383181273185       -0.58636010161844
C           66.96208389338987        2.71207561099800       -0.34091676000780
C           68.19404256091465        3.41730388601536       -0.13882582902581
C           69.13300327121598        2.48848760905177        0.15835062708694
C           68.47334684637786        1.21834329171852        0.14308303471530
N           67.13092281661108        1.37290037381218       -0.10044347987119
H           70.21209118733459        0.00967691486020        0.25415429243344
H           70.20094266025923       -2.60639554960039        0.06811570006194
H           68.28829319571963       -4.48489189183451        0.38260331308660
H           67.14235639417387       -4.58021230387471        2.77229555031677
H           67.11673464695114       -6.98722803068550        3.31763983303125
H           64.24849336902896       -7.65853188018766        0.19642155331054
H           64.28521070981058       -5.25145577069676       -0.35012584691491
H           63.18850661312870       -4.10784144124843        1.83204002332817
H           61.30837971153566       -2.22512296515748        1.38156992652799
H           61.36289067661360        2.26261969949292       -1.38261456967138
H           63.28581988839040        4.08178975139458       -1.90656652259646
H           67.32812779451508        4.45254948764369       -2.71534359359328
H           67.37324917210280        6.83134469219600       -3.37254522479149
H           64.34395674537168        7.68883451944246       -0.45587767034398
H           64.31095403102773        5.31075411766798        0.20424958508384
H           68.31084213289499        4.48604632697452       -0.21725558301537
H           70.18272368883282        2.62909799803200        0.36116639998858
C           33.50640117189354       -0.01148612083844       -0.01358382198249
C           34.73183896923648       -0.01876548859356       -0.02079202279694
C           36.07275830053407       -0.02393737996226       -0.02743211327395
C           37.30474483217303       -0.02519086117898       -0.03182615615746
C           38.64064593860650       -0.02435320114550       -0.03631080781221
C           39.87272479988570       -0.02043258131367       -0.03928376008365
C           41.21321549155022       -0.01529803225759       -0.04228539249759
C           42.43906585290409       -0.00697154618789       -0.04265129337229
C           52.02899298508279        0.04381130332738       -0.00874708280035
C           53.25407732888122        0.04882521162762        0.00012657234353
C           54.59601012527317        0.05154438087355        0.00783695115065
C           55.82720845394992        0.05441326331572        0.01619713358487
C           57.16468991708872        0.05528668488854        0.02499546885849
C           58.39567392480912        0.05509532089838        0.02953207771603
C           59.73828246992534        0.05073296047299        0.03400470559448
C           60.96277285374222        0.04282687129289        0.03440328390609
Co          47.23325638180995        0.01132506124261       -0.00997648064726
C           43.83936858835288        0.00119563804607       -0.04389137109842
C           44.52981348484928       -1.20502977830034       -0.20392360631381
C           43.89024355882330       -2.47590346537849       -0.32664950293992
C           44.85231952354038       -3.36133949349356       -0.68535487523724
C           46.07384750782639       -2.62247144020418       -0.79004127132165
N           45.87311015276158       -1.31141482452098       -0.42665213089399
C           47.25552927061776       -3.12667389478144       -1.31636128487982
C           47.26572815672593       -4.49796473495264       -1.87099520382497
C           46.40452031610916       -4.84614688281330       -2.91441935411163
C           46.41262051519016       -6.12684616890059       -3.43680857150258
C           47.28191732329626       -7.09045032697852       -2.91689253211584
C           47.28899750217645       -8.41076828001023       -3.44932823969381
N           47.29365333378285       -9.47914096406496       -3.87673067860297
C           48.14329066878170       -6.74806637705365       -1.87025712538612
C           48.13523087059316       -5.46344366333470       -1.35757151950406
C           48.42860896751513       -2.38361407229470       -1.33326662509032
C           49.66118386926380       -2.83081267497773       -1.90786285297937
C           50.61150402718074       -1.93902015591013       -1.53484885246707
N           48.60920854532986       -1.18388791366677       -0.68577249975762
C           49.95354345418849       -0.94584078639468       -0.74722227279168
C           50.62711632826976        0.03912715163943       -0.01849301806216
C           49.93631980486369        1.01959216604152        0.70034069018256
C           50.57430172800471        2.01967174140494        1.49530842857019
C           49.61168088757016        2.90649030124944        1.84922631425273
C           48.39165513281677        2.44781301519784        1.25771153649580
N           48.59279675388152        1.25185611527590        0.61053648387195
C           47.21088630927306        3.17861685142459        1.22348496234012
C           47.20199363443333        4.55177232241555        1.77363037630993
C           46.33128425853911        4.89376407241613        2.81120379271898
C           46.32499971112206        6.17523293065874        3.33182588173290
C           47.18920373782666        7.14561843498022        2.81597115551854
C           47.18415387857262        8.46620771474773        3.34779487845359
N           47.17788190996415        9.53308784815250        3.77868120140788
C           48.05953271133561        6.80950254201670        1.77476219851788
C           48.06599360987508        5.52411346080646        1.26401856671864
C           46.03953187730510        2.65721889816320        0.69189490236138
C           44.80810782190047        3.37934657877343        0.58341982634530
C           43.85769679451118        2.47884226162320        0.23232487132054
C           44.51459723241133        1.21612111535974        0.11435021737563
N           45.85785122143765        1.34315158766741        0.32706848312043
H           42.83876462418406       -2.65051792051842       -0.16514981689853
H           44.75347784217188       -4.41938151225203       -0.86540329298456
H           45.73763929966930       -4.09839335040902       -3.32849296401715
H           45.74655594203027       -6.38760708520095       -4.25087762443655
H           48.81560258373847       -7.49355488039042       -1.46205618573022
H           48.79547788875003       -5.20535879534620       -0.53732632596398
H           49.77506023174420       -3.71517411242830       -2.51327204785216
H           51.66634556225657       -1.94424847621927       -1.75712910657031
H           51.62517390679848        2.03270194710002        1.73545906874109
H           49.70919910800746        3.79321547078504        2.45407086858486
H           45.66877483770438        4.14062628569973        3.22256090104549
H           45.65199477490394        6.43115871504509        4.14173305239798
H           48.72783845543363        7.56027907311198        1.36970671123855
H           48.73393944362758        5.27040418645159        0.44866988180857
H           44.69526583120271        4.43670085624129        0.75909367611445
H           42.80349435051924        2.63783649010526        0.07254774762350

          :  Hamiltonian                  GFN1-xTB          :
         :: total energy            -343.747399619909 Eh    ::
         :: gradient norm              0.000724865991 Eh/a0 ::
         :: HOMO-LUMO gap              0.002193842712 eV    ::
         :: SCC energy              -349.835585517916 Eh    ::
         :: repulsion energy           6.259472276992 Eh    ::

    * Orbital Energies and Occupations

         #    Occupation            Energy/Eh            Energy/eV
      -------------------------------------------------------------
         1        2.0000           -0.7866154             -21.4049
       ...           ...                  ...                  ...
       308        2.0000           -0.4082078             -11.1079
       309        2.0000           -0.4077417             -11.0952
       310        1.9999           -0.4060311             -11.0487
       311        1.9998           -0.4051102             -11.0236
       312        1.9998           -0.4049144             -11.0183
       313        1.9997           -0.4046889             -11.0121
       314        1.9997           -0.4045682             -11.0089
       315        1.9997           -0.4044262             -11.0050
       316        1.9996           -0.4042846             -11.0011
       317        1.9884           -0.4010483             -10.9131
       318        1.7611           -0.3980249             -10.8308
       319        1.1176           -0.3962427             -10.7823
       320        1.0866           -0.3961777             -10.7805 (HOMO)
       321        1.0480           -0.3960971             -10.7784 (LUMO)
       322                         -0.3559514              -9.6859
       323                         -0.3466220              -9.4321
       324                         -0.3445764              -9.3764
       325                         -0.3440455              -9.3620
       326                         -0.3422033              -9.3118
       327                         -0.3407028              -9.2710
       328                         -0.3263040              -8.8792
       329                         -0.3173395              -8.6352
       330                         -0.3166209              -8.6157
       331                         -0.3142142              -8.5502
       ...                                ...                  ...
       671                          1.5907603              43.2868
      -------------------------------------------------------------
                  HL-Gap            0.0000806 Eh            0.0022 eV

Wiberg/Mayer (AO) data.
largest (>0.10) Wiberg bond orders for each atom

     #   Z sym  total        # sym  WBO       # sym  WBO       # sym  WBO
 ---------------------------------------------------------------------------
     1  27 Co   3.033 --     7 N    0.638    41 N    0.638    27 N    0.633
                            20 N    0.633
     2   6 C    3.928 --    40 C    1.366     3 C    1.364    42 H    0.969
     3   6 C    3.923 --     2 C    1.364     7 N    1.200     4 C    1.175
     4   6 C    3.958 --     5 C    1.649     3 C    1.175    43 H    0.975
     5   6 C    3.963 --     4 C    1.649     6 C    1.176    44 H    0.973
     6   6 C    3.920 --     8 C    1.317     7 N    1.213     5 C    1.176
     7   7 N    3.345 --     6 C    1.213     3 C    1.200     1 Co   0.638
     8   6 C    3.931 --    17 C    1.329     6 C    1.317     9 C    1.033
     9   6 C    3.963 --    10 C    1.384    16 C    1.384     8 C    1.033
    10   6 C    3.987 --    11 C    1.464     9 C    1.384    45 H    0.971
                            15 C    0.102
    11   6 C    3.993 --    10 C    1.464    12 C    1.364    46 H    0.972
                            16 C    0.102
    12   6 C    3.984 --    11 C    1.364    15 C    1.364    13 C    1.098
    13   6 C    3.958 --    14 N    2.820    12 C    1.098
    14   7 N    2.973 --    13 C    2.820
    15   6 C    3.993 --    16 C    1.464    12 C    1.364    47 H    0.972
                            10 C    0.102
    16   6 C    3.986 --    15 C    1.464     9 C    1.384    48 H    0.971
                            11 C    0.102
    17   6 C    3.916 --     8 C    1.329    20 N    1.194    18 C    1.182
    18   6 C    3.958 --    19 C    1.637    17 C    1.182    49 H    0.973
    19   6 C    3.961 --    18 C    1.637    21 C    1.190    50 H    0.973
    20   7 N    3.347 --    21 C    1.229    17 C    1.194     1 Co   0.633
    21   6 C    3.901 --    22 C    1.257    20 N    1.229    19 C    1.190
    22   6 C    3.933 --    21 C    1.257    23 C    1.256   117 C    1.197
    23   6 C    3.901 --    22 C    1.256    27 N    1.231    24 C    1.190
    24   6 C    3.960 --    25 C    1.637    23 C    1.190    51 H    0.973
    25   6 C    3.957 --    24 C    1.637    26 C    1.181    52 H    0.973
    26   6 C    3.916 --    28 C    1.331    27 N    1.192    25 C    1.181
    27   7 N    3.346 --    23 C    1.231    26 C    1.192     1 Co   0.633
    28   6 C    3.931 --    26 C    1.331    37 C    1.315    29 C    1.034
    29   6 C    3.963 --    30 C    1.384    36 C    1.384    28 C    1.034
    30   6 C    3.986 --    31 C    1.464    29 C    1.384    53 H    0.971
                            35 C    0.102
    31   6 C    3.993 --    30 C    1.464    32 C    1.364    54 H    0.972
                            36 C    0.102
    32   6 C    3.984 --    31 C    1.364    35 C    1.364    33 C    1.098
    33   6 C    3.958 --    34 N    2.820    32 C    1.098
    34   7 N    2.973 --    33 C    2.820
    35   6 C    3.993 --    36 C    1.464    32 C    1.364    55 H    0.972
                            30 C    0.102
    36   6 C    3.987 --    35 C    1.464    29 C    1.384    56 H    0.971
                            31 C    0.102
    37   6 C    3.919 --    28 C    1.315    41 N    1.215    38 C    1.176
    38   6 C    3.963 --    39 C    1.649    37 C    1.176    57 H    0.973
    39   6 C    3.959 --    38 C    1.649    40 C    1.174    58 H    0.975
    40   6 C    3.923 --     2 C    1.366    41 N    1.198    39 C    1.174
    41   7 N    3.346 --    37 C    1.215    40 C    1.198     1 Co   0.638
    42   1 H    0.999 --     2 C    0.969
    43   1 H    0.997 --     4 C    0.975
    44   1 H    1.003 --     5 C    0.973
    45   1 H    1.004 --    10 C    0.971
    46   1 H    1.000 --    11 C    0.972
    47   1 H    1.000 --    15 C    0.972
    48   1 H    1.004 --    16 C    0.971
    49   1 H    1.003 --    18 C    0.973
    50   1 H    1.001 --    19 C    0.973
    51   1 H    1.001 --    24 C    0.973
    52   1 H    1.003 --    25 C    0.973
    53   1 H    1.003 --    30 C    0.971
    54   1 H    1.000 --    31 C    0.972
    55   1 H    1.000 --    35 C    0.972
    56   1 H    1.004 --    36 C    0.971
    57   1 H    1.003 --    38 C    0.973
    58   1 H    0.997 --    39 C    0.975
    59  27 Co   3.043 --    65 N    0.642    99 N    0.641    85 N    0.637
                            78 N    0.636
    60   6 C    3.934 --    98 C    1.367    61 C    1.365   100 H    0.969
    61   6 C    3.923 --    60 C    1.365    65 N    1.200    62 C    1.174
    62   6 C    3.958 --    63 C    1.649    61 C    1.174   101 H    0.975
    63   6 C    3.963 --    62 C    1.649    64 C    1.175   102 H    0.973
    64   6 C    3.920 --    66 C    1.321    65 N    1.210    63 C    1.175
    65   7 N    3.349 --    64 C    1.210    61 C    1.200    59 Co   0.642
    66   6 C    3.937 --    75 C    1.327    64 C    1.321    67 C    1.032
    67   6 C    3.963 --    68 C    1.385    74 C    1.384    66 C    1.032
    68   6 C    3.987 --    69 C    1.464    67 C    1.385   103 H    0.971
                            73 C    0.102
    69   6 C    3.993 --    68 C    1.464    70 C    1.364   104 H    0.972
                            74 C    0.102
    70   6 C    3.984 --    69 C    1.364    73 C    1.364    71 C    1.098
    71   6 C    3.958 --    72 N    2.820    70 C    1.098
    72   7 N    2.973 --    71 C    2.820
    73   6 C    3.993 --    74 C    1.464    70 C    1.364   105 H    0.972
                            68 C    0.102
    74   6 C    3.986 --    73 C    1.464    67 C    1.384   106 H    0.971
                            69 C    0.102
    75   6 C    3.916 --    66 C    1.327    78 N    1.196    76 C    1.182
    76   6 C    3.958 --    77 C    1.637    75 C    1.182   107 H    0.973
    77   6 C    3.961 --    76 C    1.637    79 C    1.190   108 H    0.973
    78   7 N    3.352 --    79 C    1.225    75 C    1.196    59 Co   0.636
    79   6 C    3.902 --    80 C    1.263    78 N    1.225    77 C    1.190
    80   6 C    3.941 --    79 C    1.263    81 C    1.262   132 C    1.187
    81   6 C    3.902 --    80 C    1.262    85 N    1.227    82 C    1.190
    82   6 C    3.960 --    83 C    1.637    81 C    1.190   109 H    0.973
    83   6 C    3.958 --    82 C    1.637    84 C    1.181   110 H    0.973
    84   6 C    3.916 --    86 C    1.330    85 N    1.193    83 C    1.181
    85   7 N    3.351 --    81 C    1.227    84 C    1.193    59 Co   0.637
    86   6 C    3.937 --    84 C    1.330    95 C    1.318    87 C    1.033
    87   6 C    3.963 --    88 C    1.384    94 C    1.384    86 C    1.033
    88   6 C    3.986 --    89 C    1.464    87 C    1.384   111 H    0.971
                            93 C    0.102
    89   6 C    3.993 --    88 C    1.464    90 C    1.364   112 H    0.972
                            94 C    0.102
    90   6 C    3.984 --    93 C    1.364    89 C    1.364    91 C    1.098
    91   6 C    3.958 --    92 N    2.820    90 C    1.098
    92   7 N    2.973 --    91 C    2.820
    93   6 C    3.993 --    94 C    1.464    90 C    1.364   113 H    0.972
                            88 C    0.102
    94   6 C    3.987 --    93 C    1.464    87 C    1.384   114 H    0.971
                            89 C    0.102
    95   6 C    3.920 --    86 C    1.318    99 N    1.212    96 C    1.176
    96   6 C    3.963 --    97 C    1.649    95 C    1.176   115 H    0.973
    97   6 C    3.959 --    96 C    1.649    98 C    1.174   116 H    0.975
    98   6 C    3.923 --    60 C    1.367    99 N    1.197    97 C    1.174
    99   7 N    3.350 --    95 C    1.212    98 C    1.197    59 Co   0.641
   100   1 H    0.999 --    60 C    0.969
   101   1 H    0.997 --    62 C    0.975
   102   1 H    1.003 --    63 C    0.973
   103   1 H    1.004 --    68 C    0.971
   104   1 H    1.000 --    69 C    0.972
   105   1 H    1.000 --    73 C    0.972
   106   1 H    1.003 --    74 C    0.971
   107   1 H    1.003 --    76 C    0.973
   108   1 H    1.001 --    77 C    0.973
   109   1 H    1.001 --    82 C    0.973
   110   1 H    1.003 --    83 C    0.973
   111   1 H    1.003 --    88 C    0.971
   112   1 H    1.000 --    89 C    0.972
   113   1 H    1.000 --    93 C    0.972
   114   1 H    1.004 --    94 C    0.971
   115   1 H    1.003 --    96 C    0.973
   116   1 H    0.997 --    97 C    0.975
   117   6 C    3.868 --   118 C    2.426    22 C    1.197   120 C    0.184
   118   6 C    3.931 --   117 C    2.426   119 C    1.354
   119   6 C    3.884 --   120 C    2.319   118 C    1.354   122 C    0.179
   120   6 C    3.919 --   119 C    2.319   121 C    1.381   117 C    0.184
   121   6 C    3.917 --   122 C    2.317   120 C    1.381   124 C    0.184
   122   6 C    3.885 --   121 C    2.317   123 C    1.356   119 C    0.179
   123   6 C    3.925 --   124 C    2.421   122 C    1.356
   124   6 C    3.870 --   123 C    2.421   134 C    1.202   121 C    0.184
   125   6 C    3.872 --   126 C    2.431   154 C    1.196   128 C    0.184
   126   6 C    3.927 --   125 C    2.431   127 C    1.348
   127   6 C    3.888 --   128 C    2.329   126 C    1.348   130 C    0.180
   128   6 C    3.919 --   127 C    2.329   129 C    1.371   125 C    0.184
   129   6 C    3.923 --   130 C    2.332   128 C    1.371   132 C    0.185
   130   6 C    3.886 --   129 C    2.332   131 C    1.344   127 C    0.180
   131   6 C    3.935 --   132 C    2.439   130 C    1.344
   132   6 C    3.871 --   131 C    2.439    80 C    1.187   129 C    0.185
   133  27 Co   3.034 --   152 N    0.631   173 N    0.631   159 N    0.627
                           139 N    0.627
   134   6 C    3.922 --   172 C    1.252   135 C    1.251   124 C    1.202
   135   6 C    3.902 --   134 C    1.251   139 N    1.233   136 C    1.193
   136   6 C    3.958 --   137 C    1.633   135 C    1.193   174 H    0.973
   137   6 C    3.959 --   136 C    1.633   138 C    1.184   175 H    0.973
   138   6 C    3.914 --   140 C    1.323   139 N    1.196   137 C    1.184
   139   7 N    3.339 --   135 C    1.233   138 C    1.196   133 Co   0.627
   140   6 C    3.926 --   138 C    1.323   149 C    1.321   141 C    1.035
   141   6 C    3.963 --   142 C    1.384   148 C    1.383   140 C    1.035
   142   6 C    3.985 --   143 C    1.464   141 C    1.384   176 H    0.971
                           147 C    0.102
   143   6 C    3.993 --   142 C    1.464   144 C    1.364   177 H    0.972
                           148 C    0.102
   144   6 C    3.984 --   143 C    1.364   147 C    1.364   145 C    1.098
   145   6 C    3.958 --   146 N    2.820   144 C    1.098
   146   7 N    2.973 --   145 C    2.820
   147   6 C    3.993 --   148 C    1.464   144 C    1.364   178 H    0.972
                           142 C    0.102
   148   6 C    3.985 --   147 C    1.464   141 C    1.383   179 H    0.971
                           143 C    0.102
   149   6 C    3.914 --   140 C    1.321   152 N    1.198   150 C    1.184
   150   6 C    3.959 --   151 C    1.634   149 C    1.184   180 H    0.973
   151   6 C    3.959 --   150 C    1.634   153 C    1.192   181 H    0.973
   152   7 N    3.339 --   153 C    1.230   149 C    1.198   133 Co   0.631
   153   6 C    3.903 --   154 C    1.256   152 N    1.230   151 C    1.192
   154   6 C    3.923 --   153 C    1.256   155 C    1.255   125 C    1.196
   155   6 C    3.903 --   154 C    1.255   159 N    1.230   156 C    1.193
   156   6 C    3.960 --   157 C    1.632   155 C    1.193   182 H    0.973
   157   6 C    3.959 --   156 C    1.632   158 C    1.185   183 H    0.973
   158   6 C    3.914 --   160 C    1.319   159 N    1.199   157 C    1.185
   159   7 N    3.340 --   155 C    1.230   158 C    1.199   133 Co   0.627
   160   6 C    3.926 --   169 C    1.325   158 C    1.319   161 C    1.034
   161   6 C    3.963 --   162 C    1.384   168 C    1.384   160 C    1.034
   162   6 C    3.987 --   163 C    1.464   161 C    1.384   184 H    0.971
                           167 C    0.102
   163   6 C    3.993 --   162 C    1.464   164 C    1.364   185 H    0.972
                           168 C    0.102
   164   6 C    3.984 --   163 C    1.364   167 C    1.364   165 C    1.098
   165   6 C    3.958 --   166 N    2.820   164 C    1.098
   166   7 N    2.973 --   165 C    2.820
   167   6 C    3.993 --   168 C    1.464   164 C    1.364   186 H    0.972
                           162 C    0.102
   168   6 C    3.985 --   167 C    1.464   161 C    1.384   187 H    0.971
                           163 C    0.102
   169   6 C    3.914 --   160 C    1.325   173 N    1.195   170 C    1.183
   170   6 C    3.959 --   171 C    1.634   169 C    1.183   188 H    0.973
   171   6 C    3.958 --   170 C    1.634   172 C    1.192   189 H    0.973
   172   6 C    3.902 --   134 C    1.252   173 N    1.234   171 C    1.192
   173   7 N    3.338 --   172 C    1.234   169 C    1.195   133 Co   0.631
   174   1 H    1.001 --   136 C    0.973
   175   1 H    1.003 --   137 C    0.973
   176   1 H    1.004 --   142 C    0.971
   177   1 H    1.000 --   143 C    0.972
   178   1 H    1.000 --   147 C    0.972
   179   1 H    1.004 --   148 C    0.971
   180   1 H    1.003 --   150 C    0.973
   181   1 H    1.001 --   151 C    0.973
   182   1 H    1.001 --   156 C    0.973
   183   1 H    1.003 --   157 C    0.973
   184   1 H    1.004 --   162 C    0.971
   185   1 H    1.000 --   163 C    0.972
   186   1 H    1.000 --   167 C    0.972
   187   1 H    1.004 --   168 C    0.971
   188   1 H    1.003 --   170 C    0.973
   189   1 H    1.001 --   171 C    0.973
 ---------------------------------------------------------------------------

           -------------------------------------------------
          | TOTAL ENERGY             -343.747399619909 Eh   |
          | GRADIENT NORM               0.000724865991 Eh/α |
          | HOMO-LUMO GAP               0.002193842712 eV   |
           -------------------------------------------------

 * finished run on 2022/07/30 at 09:08:28.968
