   * xtb version 6.5.1 (b24c23e) compiled by 'conda@728c89f4b128' on 2022-07-12
          program call               : xtb Co_PhNO2_C6_3.xyz --gfn 1 --opt -T 48

   ID    Z sym.   atoms
    1   27 Co     1, 61, 133
    2    6 C      2-6, 8-12, 16-20, 22-27, 29-33, 37-42, 62-66, 68-72, 76-80,
                  82-87, 89-93, 97-102, 121-132, 134-138, 140-144, 148-152,
                  154-159, 161-165, 169-174
    3    7 N      7, 13, 21, 28, 34, 43, 67, 73, 81, 88, 94, 103, 139, 145,
                  153, 160, 166, 175
    4    8 O      14, 15, 35, 36, 74, 75, 95, 96, 146, 147, 167, 168
    5    1 H      44-60, 104-120, 176-191

          :  Hamiltonian                  GFN1-xTB          :
 * total energy  :  -377.8690972 Eh     change        0.8176926E-08 Eh
 * total energy  :  -378.1120705 Eh     change       -0.2429733E+00 Eh
 * total energy  :  -378.2441409 Eh     change       -0.1320704E+00 Eh
 * total energy  :  -378.2973731 Eh     change       -0.5323216E-01 Eh
 * total energy  :  -378.3563475 Eh     change       -0.5897446E-01 Eh
 * total energy  :  -378.4134348 Eh     change       -0.5708729E-01 Eh
 * total energy  :  -378.4524612 Eh     change       -0.3902632E-01 Eh
 * total energy  :  -378.4778408 Eh     change       -0.2537959E-01 Eh
 * total energy  :  -378.4993784 Eh     change       -0.2153761E-01 Eh
 * total energy  :  -378.5153513 Eh     change       -0.1597296E-01 Eh
 * total energy  :  -378.6557350 Eh     change       -0.6745906E-05 Eh
 * total energy  :  -378.6557382 Eh     change       -0.3166691E-05 Eh
 * total energy  :  -378.6557394 Eh     change       -0.1145948E-05 Eh
 * total energy  :  -378.6557353 Eh     change        0.4045008E-05 Eh
 * total energy  :  -378.6557452 Eh     change       -0.9846987E-05 Eh
 * total energy  :  -378.6557339 Eh     change        0.1129151E-04 Eh
 * total energy  :  -378.6557496 Eh     change       -0.1574178E-04 Eh
 * total energy  :  -378.6557507 Eh     change       -0.1126495E-05 Eh
 * total energy  :  -378.6557548 Eh     change       -0.4110999E-05 Eh
   *** GEOMETRY OPTIMIZATION CONVERGED AFTER 75 ITERATIONS ***

 final structure:
================
191
 xtb: 6.5.1 (b24c23e)
Co          29.80458957813324       -0.00029754073935       -0.08425311867397
C           26.43607873823188       -0.00182186765208       -0.24793847706554
C           27.08734607728114       -1.21137490746504       -0.13443926447912
C           26.42163675747852       -2.47502107577857       -0.04101164345964
C           27.38043297839247       -3.42655632113068       -0.12761090971467
C           28.62939060110280       -2.74173411115516       -0.29505501248007
N           28.44578798315137       -1.38460479262872       -0.22517458890360
C           29.82859111286746       -3.36526255183612       -0.61399398185941
C           29.84513314675284       -4.82698842522092       -0.83869163931316
C           30.66672873014978       -5.64918049550914       -0.06125071594213
C           30.68959481750056       -7.01647389214581       -0.26677819124139
C           29.88798242116649       -7.56643360123234       -1.26303797876947
N           29.91181826726099       -9.00155550923256       -1.48662267396145
O           29.20338299598585       -9.44217396082731       -2.35504230547420
O           30.63899143295008       -9.66211201668749       -0.79031292282229
C           29.06521041516384       -6.76550797786559       -2.04978603165964
C           29.04541776470326       -5.39990036642143       -1.83234450466562
C           31.01317110616942       -2.65400093770194       -0.74405528475698
C           32.25759103737946       -3.22843691485901       -1.15933931634317
C           33.20162663497910       -2.26937524259927       -1.00328099545632
N           31.18481076715386       -1.33299686532617       -0.40265553039474
C           32.53092889339667       -1.11315983829939       -0.49902710365088
C           33.19625157294033        0.02046019527812       -0.02696740935938
C           32.50323208234584        1.13597420252946        0.44903213161134
C           33.14163056331397        2.28088775961302        1.01660889853923
C           32.17599788898026        3.21349727589381        1.19879398634883
C           30.95332336349359        2.63948982419136        0.72218379087739
N           31.15658029240042        1.33661168503047        0.32942767294790
C           29.76915768966446        3.34408971051154        0.56131148063988
C           29.74870928330993        4.79348762446761        0.85517002674295
C           28.87480555773866        5.30502729059180        1.81945188159576
C           28.85409981287603        6.65866012803490        2.10172756075946
C           29.71023607448242        7.50972154274983        1.40869397154611
N           29.69109102509083        8.93280826006033        1.69944078665997
O           28.92023118451536        9.31968476103526        2.53985532901543
O           30.44733640972326        9.63800521451583        1.08219824550285
C           30.58430628351270        7.02151589210468        0.44164454398615
C           30.60152665968367        5.66542023114686        0.17131168931454
C           28.60356717120091        2.73006846296242        0.12057265246063
C           27.37516374420341        3.42140582928857       -0.14329904894222
C           26.43757874187186        2.47514026630654       -0.38329894367867
C           27.09476752385995        1.20833900803574       -0.27095286320998
N           28.43523453395720        1.37796991342349       -0.02669685415036
H           25.35434280002639       -0.00183358712723       -0.30861786060452
H           25.35636829451404       -2.59729830806176        0.07211730434857
H           27.26579788375515       -4.49759087558351       -0.08764814271644
H           31.27762101506682       -5.20956986649835        0.71855677043747
H           31.31798220490465       -7.66228404301729        0.33468309042620
H           28.45513902685288       -7.21778787708229       -2.82242968427323
H           28.41999381632301       -4.76403686230229       -2.44802574088267
H           32.38150235569182       -4.23502307655519       -1.52405219298203
H           34.26046279427573       -2.32692954829291       -1.19713206800922
H           34.19457866642932        2.34752193072863        1.23781829445702
H           32.27272284179249        4.20328133514648        1.61414201030538
H           28.22163293194179        4.63013014392933        2.36019998293248
H           28.18579934258490        7.06361393965767        2.85211194996520
H           31.23683530106426        7.70574940411371       -0.08723576657033
H           31.26842637638157        5.27444069607349       -0.58822818377135
H           27.25979163795778        4.49312881593328       -0.14252484964216
H           25.39027266234577        2.60226962900709       -0.60581380536198
Co          61.70966092731950        0.05875715805617       -0.04627543234026
C           65.07620135613590        0.11423761544164       -0.20710281392018
C           64.42852627095836        1.19297318412235        0.35628888504845
C           65.09645555678834        2.32779467864970        0.91736228695310
C           64.13998129730162        3.24649658525455        1.18888984815820
C           62.89031431852158        2.67811282054196        0.77393063554899
N           63.07077454715511        1.39209647320573        0.33437554746594
C           61.69365287902480        3.38012321897994        0.70212428534708
C           61.68209438190364        4.82195514006617        1.03043628046815
C           60.85450020097015        5.30536728059833        2.04872092084861
C           60.83736208154154        6.65241733037599        2.36083795518926
C           61.65076049418926        7.52548205294432        1.64412153512880
N           61.63343679077807        8.94215318002564        1.96490313556902
O           62.35277323797079        9.66700045480938        1.32678991990406
O           60.90069779233826        9.30429918220326        2.84926222218964
C           62.47945366087881        7.06535905639309        0.62479273546903
C           62.49344019554304        5.71553085087101        0.32437419305461
C           60.50808276202860        2.77041922601985        0.31641828696645
C           59.26519788060412        3.45911380972449        0.13743882789346
C           58.31889627661108        2.51067525746335       -0.06471374023848
N           60.33295060675428        1.41603932478590        0.15397232151137
C           58.98682148995506        1.24885959178181       -0.01388259667971
C           58.31999507138122        0.02130033749114        0.02376605652359
C           59.01376751549349       -1.19151666304345        0.06048186395207
C           58.37735957348639       -2.46504360071381        0.17745848701266
C           59.34024918576364       -3.39919656648125       -0.01245980092750
C           60.55900990823062       -2.68984679409154       -0.26369313619796
N           60.35721166178222       -1.33404930790391       -0.14359345728839
C           61.73605805684451       -3.28284914107975       -0.69693497162684
C           61.75090380146060       -4.73569875452769       -0.97229940368603
C           62.64113055507468       -5.57393428612192       -0.29393203269861
C           62.65784595367555       -6.93339245340313       -0.54701879496366
C           61.78080365466204       -7.45887978263956       -1.49159503646181
N           61.79685967210295       -8.88560110080405       -1.76437546323549
O           62.58372893282645       -9.56129112339304       -1.15256562005627
O           61.02242736649094       -9.30451776936969       -2.58591745367019
C           60.88924414529468       -6.64146849410160       -2.18034636183112
C           60.87644720514292       -5.28424194128570       -1.91559407141704
C           62.89970965755546       -2.54835661284540       -0.89100169689016
C           64.12244924297056       -3.08900203035157       -1.40982391753816
C           65.06331373811881       -2.12460910104208       -1.27841198808395
C           64.41320461056509       -0.99475092884624       -0.68682150288240
N           63.07356631817376       -1.24204604712197       -0.51566394760675
H           66.15787067249767        0.13458123140283       -0.26570444387552
H           66.16149568944273        2.39541849562058        1.07114689952874
H           64.25681556566211        4.22479068772750        1.62608357638988
H           60.23462130268458        4.61340733937753        2.60682355171195
H           60.20429895061638        7.03539161603495        3.15220974744261
H           63.09905782153664        7.76642280947733        0.07860956468174
H           63.12364296987666        5.34709346992928       -0.47664662111237
H           59.14356070991217        4.52971032156990        0.16263257004319
H           57.26025393026978        2.63713670799387       -0.22381799271081
H           57.32742992994827       -2.60866487051408        0.37517830102110
H           59.24401371239383       -4.47240374900919        0.01064639377040
H           63.31054809382908       -5.15409969765552        0.44779864462315
H           63.33917189992221       -7.59190982535601       -0.02181048038526
H           60.22020584152096       -7.07462296625224       -2.91414214476793
H           60.19635791203171       -4.63515710555354       -2.45475019630434
H           64.23267665794462       -4.08014279907541       -1.81894396748744
H           66.10837856464654       -2.15963260654466       -1.54134673135628
C           38.39569443380933        0.04153651668431        0.00686027895510
C           37.16690112349113        0.04511257033676       -0.00299469777828
C           35.82333487923309        0.03972130856452       -0.00585526507725
C           34.59935362948853        0.03207949731153       -0.01456668720025
C           39.73887120493819        0.04014008044024        0.01111374598716
C           40.96333805451356        0.03594870229376        0.01184616265968
C           54.35112604675668       -0.01155530849133        0.04265234415050
C           53.12176318690340       -0.01551672544975        0.04647117621454
C           51.77946822366872       -0.01836446267952        0.04365768778237
C           50.55457439285967       -0.01644376164459        0.03852152053960
C           55.69368968848622       -0.00178105275633        0.04271746459550
C           56.91821420678028        0.00633078714096        0.03621928973416
Co          45.75954208576476        0.00748346969763       -0.02488081585646
C           42.36504326616294        0.02816868031543        0.00795064852425
C           43.04101089086671       -1.15175724268551        0.33213250003026
C           42.38390222452024       -2.36156970690596        0.71276804303182
C           43.33317119044155       -3.32871423295019        0.73268882367225
C           44.56447110771530       -2.70432336483703        0.35358425200161
N           44.38411801297112       -1.35245295363010        0.18032158912094
C           45.74023948202044       -3.39054465512650        0.07963068171865
C           45.72882043302723       -4.86919588219626        0.10973587612651
C           46.57548890473888       -5.56432563706889        0.97856760284881
C           46.56473182957325       -6.94683185569875        1.01330619249620
C           45.70486061907670       -7.64035004885441        0.16663626183687
N           45.69179583762657       -9.09306797490630        0.19710573229885
O           44.93568734371010       -9.65893856823665       -0.54968329333820
O           46.43806372783155       -9.64065739147861        0.96705858579914
C           44.85685229883092       -6.96748144258084       -0.70823357410603
C           44.86998830499230       -5.58476278829619       -0.73016878002754
C           46.92574816937427       -2.73254352075803       -0.21830385636794
C           48.15330727502405       -3.38731023713930       -0.55593844365820
C           49.11491832791401       -2.43197427816507       -0.56324167866086
N           47.12261961395064       -1.37701607447260       -0.09624749416866
C           48.46845641949743       -1.19898194901639       -0.24454124934361
C           49.15389816597455       -0.01043188730905        0.02722550658441
C           48.47562875387916        1.18690345714312        0.27636924783379
C           49.13084873213479        2.41843868800711        0.58363365231331
C           48.18231021519127        3.38524528163601        0.53381747827008
C           46.95328921331652        2.73810224560344        0.18682851430332
N           47.13406641834417        1.37756094541728        0.10272802981916
C           45.78018364915928        3.40514198795906       -0.13936586113742
C           45.79352676263619        4.88218860569257       -0.21279990198909
C           46.65893201660106        5.53450056871179       -1.09639282397873
C           46.67143166954588        6.91500759482532       -1.17688803056926
C           45.81599391602769        7.64999674570958       -0.36126453514655
N           45.82605473215881        9.10090153826079       -0.44101203482694
O           46.58866987703199        9.61035024308012       -1.22113394252980
O           45.07065426411488        9.70340222518837        0.27717652275961
C           44.95079228368095        7.02032454004946        0.52876933868761
C           44.94105827489746        5.63900940916033        0.59677453794236
C           44.59532191720901        2.72924825925430       -0.39890350661008
C           43.36949474930609        3.36127435591428       -0.78294141460385
C           42.40715050392937        2.40811020151978       -0.73096930574511
C           43.05169106076053        1.19792404768992       -0.33137975006888
N           44.39734345307006        1.38484297022776       -0.18978784108371
H           41.33022956591577       -2.44566331071314        0.92412578554928
H           43.21989097296277       -4.37191503159694        0.97853689196726
H           47.23149467548482       -5.01215075959445        1.64132597502426
H           47.21152070775035       -7.49454443011942        1.68814110392624
H           44.20026059749330       -7.53118648598016       -1.36004086900901
H           44.22288251753356       -5.04885721907244       -1.41468725969068
H           48.25623163304586       -4.44103203002056       -0.75751509818451
H           50.16994435823895       -2.53797956711129       -0.75738835520673
H           50.18302303989689        2.51562186205914        0.79682898826205
H           48.29456216210497        4.44215124824385        0.71244759317453
H           47.31130831747749        4.94992852309523       -1.73450083497123
H           47.33277140451177        7.42944153129586       -1.86367249842422
H           44.29847174631348        7.61594135374540        1.15599921584554
H           44.28049632734217        5.13695672159006        1.29396563210333
H           43.26777808818899        4.39960082245624       -1.05320587635471
H           41.35287609474520        2.50180316613056       -0.93524400623889

          :  Hamiltonian                  GFN1-xTB          :
         :: total energy            -378.655754846442 Eh    ::
         :: gradient norm              0.000864344568 Eh/a0 ::
         :: HOMO-LUMO gap              0.000607312592 eV    ::
         :: SCC energy              -384.085045889525 Eh    ::
         :: repulsion energy           5.601290047253 Eh    ::

    * Orbital Energies and Occupations

         #    Occupation            Energy/Eh            Energy/eV
      -------------------------------------------------------------
         1        2.0000           -0.9260906             -25.2002
       ...           ...                  ...                  ...
       324        2.0000           -0.4209692             -11.4552
       325        2.0000           -0.4208351             -11.4515
       326        2.0000           -0.4207019             -11.4479
       327        1.9998           -0.4177626             -11.3679
       328        1.9998           -0.4176336             -11.3644
       329        1.9997           -0.4173331             -11.3562
       330        1.9997           -0.4172477             -11.3539
       331        1.9997           -0.4171503             -11.3512
       332        1.9997           -0.4170559             -11.3487
       333        1.9989           -0.4159271             -11.3180
       334        1.6826           -0.4103727             -11.1668
       335        1.1198           -0.4089256             -11.1274
       336        1.1055           -0.4088957             -11.1266 (HOMO)
       337        1.0948           -0.4088733             -11.1260 (LUMO)
       338                         -0.3684507             -10.0261
       339                         -0.3621228              -9.8539
       340                         -0.3600620              -9.7978
       341                         -0.3593848              -9.7794
       342                         -0.3590890              -9.7713
       343                         -0.3535675              -9.6211
       344                         -0.3529812              -9.6051
       345                         -0.3516103              -9.5678
       346                         -0.3510743              -9.5532
       347                         -0.3462314              -9.4214
       ...                                ...                  ...
       679                          1.5526677              42.2502
      -------------------------------------------------------------
                  HL-Gap            0.0000223 Eh            0.0006 eV

Wiberg/Mayer (AO) data.
largest (>0.10) Wiberg bond orders for each atom

     #   Z sym  total        # sym  WBO       # sym  WBO       # sym  WBO
 ---------------------------------------------------------------------------
     1  27 Co   3.033 --    43 N    0.639     7 N    0.639    21 N    0.634
                            28 N    0.633
     2   6 C    3.931 --    42 C    1.368     3 C    1.365    44 H    0.969
     3   6 C    3.921 --     2 C    1.365     7 N    1.200     4 C    1.173
     4   6 C    3.958 --     5 C    1.651     3 C    1.173    45 H    0.974
     5   6 C    3.962 --     4 C    1.651     6 C    1.174    46 H    0.973
     6   6 C    3.921 --     8 C    1.318     7 N    1.212     5 C    1.174
     7   7 N    3.347 --     6 C    1.212     3 C    1.200     1 Co   0.639
     8   6 C    3.932 --    18 C    1.326     6 C    1.318     9 C    1.036
     9   6 C    3.985 --    17 C    1.383    10 C    1.383     8 C    1.036
    10   6 C    3.985 --    11 C    1.464     9 C    1.383    47 H    0.971
                            16 C    0.102
    11   6 C    3.987 --    10 C    1.464    12 C    1.387    48 H    0.965
                            17 C    0.102
    12   6 C    3.941 --    16 C    1.387    11 C    1.387    13 N    0.920
    13   7 N    3.866 --    15 O    1.455    14 O    1.454    12 C    0.920
    14   8 O    1.829 --    13 N    1.454    15 O    0.252
    15   8 O    1.829 --    13 N    1.455    14 O    0.252
    16   6 C    3.987 --    17 C    1.464    12 C    1.387    49 H    0.965
                            10 C    0.102
    17   6 C    3.986 --    16 C    1.464     9 C    1.383    50 H    0.971
                            11 C    0.102
    18   6 C    3.916 --     8 C    1.326    21 N    1.197    19 C    1.181
    19   6 C    3.958 --    20 C    1.638    18 C    1.181    51 H    0.973
    20   6 C    3.961 --    19 C    1.638    22 C    1.189    52 H    0.973
    21   7 N    3.349 --    22 C    1.226    18 C    1.197     1 Co   0.634
    22   6 C    3.901 --    23 C    1.262    21 N    1.226    20 C    1.189
    23   6 C    3.937 --    22 C    1.262    24 C    1.260   124 C    1.189
    24   6 C    3.901 --    23 C    1.260    28 N    1.228    25 C    1.189
    25   6 C    3.961 --    26 C    1.638    24 C    1.189    53 H    0.973
    26   6 C    3.957 --    25 C    1.638    27 C    1.180    54 H    0.973
    27   6 C    3.916 --    29 C    1.329    28 N    1.194    26 C    1.180
    28   7 N    3.348 --    24 C    1.228    27 C    1.194     1 Co   0.633
    29   6 C    3.932 --    27 C    1.329    39 C    1.316    30 C    1.035
    30   6 C    3.985 --    31 C    1.383    38 C    1.383    29 C    1.035
    31   6 C    3.986 --    32 C    1.464    30 C    1.383    55 H    0.971
                            37 C    0.102
    32   6 C    3.987 --    31 C    1.464    33 C    1.387    56 H    0.965
                            38 C    0.102
    33   6 C    3.941 --    37 C    1.387    32 C    1.387    34 N    0.920
    34   7 N    3.866 --    36 O    1.455    35 O    1.455    33 C    0.920
    35   8 O    1.829 --    34 N    1.455    36 O    0.252
    36   8 O    1.829 --    34 N    1.455    35 O    0.252
    37   6 C    3.987 --    38 C    1.464    33 C    1.387    57 H    0.965
                            31 C    0.102
    38   6 C    3.986 --    37 C    1.464    30 C    1.383    58 H    0.971
                            32 C    0.102
    39   6 C    3.920 --    29 C    1.316    43 N    1.215    40 C    1.175
    40   6 C    3.963 --    41 C    1.651    39 C    1.175    59 H    0.973
    41   6 C    3.959 --    40 C    1.651    42 C    1.173    60 H    0.974
    42   6 C    3.921 --     2 C    1.368    43 N    1.197    41 C    1.173
    43   7 N    3.348 --    39 C    1.215    42 C    1.197     1 Co   0.639
    44   1 H    0.999 --     2 C    0.969
    45   1 H    0.997 --     4 C    0.974
    46   1 H    1.002 --     5 C    0.973
    47   1 H    1.003 --    10 C    0.971
    48   1 H    1.006 --    11 C    0.965
    49   1 H    1.006 --    16 C    0.965
    50   1 H    1.004 --    17 C    0.971
    51   1 H    1.002 --    19 C    0.973
    52   1 H    1.000 --    20 C    0.973
    53   1 H    1.000 --    25 C    0.973
    54   1 H    1.003 --    26 C    0.973
    55   1 H    1.003 --    31 C    0.971
    56   1 H    1.006 --    32 C    0.965
    57   1 H    1.006 --    37 C    0.965
    58   1 H    1.004 --    38 C    0.971
    59   1 H    1.002 --    40 C    0.973
    60   1 H    0.997 --    41 C    0.974
    61  27 Co   3.033 --    67 N    0.638   103 N    0.638    88 N    0.632
                            81 N    0.632
    62   6 C    3.929 --   102 C    1.367    63 C    1.364   104 H    0.969
    63   6 C    3.921 --    62 C    1.364    67 N    1.200    64 C    1.173
    64   6 C    3.958 --    65 C    1.650    63 C    1.173   105 H    0.974
    65   6 C    3.962 --    64 C    1.650    66 C    1.174   106 H    0.973
    66   6 C    3.920 --    68 C    1.317    67 N    1.213    65 C    1.174
    67   7 N    3.346 --    66 C    1.213    63 C    1.200    61 Co   0.638
    68   6 C    3.930 --    78 C    1.327    66 C    1.317    69 C    1.036
    69   6 C    3.985 --    77 C    1.383    70 C    1.382    68 C    1.036
    70   6 C    3.985 --    71 C    1.464    69 C    1.382   107 H    0.971
                            76 C    0.102
    71   6 C    3.987 --    70 C    1.464    72 C    1.387   108 H    0.965
                            77 C    0.102
    72   6 C    3.941 --    76 C    1.387    71 C    1.387    73 N    0.920
    73   7 N    3.866 --    74 O    1.455    75 O    1.455    72 C    0.920
    74   8 O    1.829 --    73 N    1.455    75 O    0.252
    75   8 O    1.829 --    73 N    1.455    74 O    0.252
    76   6 C    3.987 --    77 C    1.464    72 C    1.387   109 H    0.964
                            70 C    0.102
    77   6 C    3.986 --    76 C    1.464    69 C    1.383   110 H    0.971
                            71 C    0.102
    78   6 C    3.916 --    68 C    1.327    81 N    1.196    79 C    1.181
    79   6 C    3.957 --    80 C    1.637    78 C    1.181   111 H    0.973
    80   6 C    3.961 --    79 C    1.637    82 C    1.189   112 H    0.973
    81   7 N    3.347 --    82 C    1.228    78 C    1.196    61 Co   0.632
    82   6 C    3.900 --    83 C    1.259    81 N    1.228    80 C    1.189
    83   6 C    3.934 --    82 C    1.259    84 C    1.257   132 C    1.195
    84   6 C    3.900 --    83 C    1.257    88 N    1.230    85 C    1.190
    85   6 C    3.959 --    86 C    1.637    84 C    1.190   113 H    0.973
    86   6 C    3.957 --    85 C    1.637    87 C    1.180   114 H    0.973
    87   6 C    3.916 --    89 C    1.329    88 N    1.194    86 C    1.180
    88   7 N    3.346 --    84 C    1.230    87 C    1.194    61 Co   0.632
    89   6 C    3.930 --    87 C    1.329    99 C    1.314    90 C    1.036
    90   6 C    3.985 --    91 C    1.383    98 C    1.383    89 C    1.036
    91   6 C    3.985 --    92 C    1.464    90 C    1.383   115 H    0.971
                            97 C    0.102
    92   6 C    3.987 --    91 C    1.464    93 C    1.387   116 H    0.964
                            98 C    0.102
    93   6 C    3.941 --    97 C    1.387    92 C    1.387    94 N    0.920
    94   7 N    3.866 --    95 O    1.455    96 O    1.455    93 C    0.920
    95   8 O    1.829 --    94 N    1.455    96 O    0.252
    96   8 O    1.829 --    94 N    1.455    95 O    0.252
    97   6 C    3.987 --    98 C    1.464    93 C    1.387   117 H    0.964
                            91 C    0.102
    98   6 C    3.986 --    97 C    1.464    90 C    1.383   118 H    0.971
                            92 C    0.102
    99   6 C    3.920 --    89 C    1.314   103 N    1.216   100 C    1.175
   100   6 C    3.963 --   101 C    1.650    99 C    1.175   119 H    0.973
   101   6 C    3.959 --   100 C    1.650   102 C    1.173   120 H    0.974
   102   6 C    3.921 --    62 C    1.367   103 N    1.197   101 C    1.173
   103   7 N    3.346 --    99 C    1.216   102 C    1.197    61 Co   0.638
   104   1 H    0.999 --    62 C    0.969
   105   1 H    0.997 --    64 C    0.974
   106   1 H    1.002 --    65 C    0.973
   107   1 H    1.004 --    70 C    0.971
   108   1 H    1.006 --    71 C    0.965
   109   1 H    1.006 --    76 C    0.964
   110   1 H    1.004 --    77 C    0.971
   111   1 H    1.002 --    79 C    0.973
   112   1 H    1.000 --    80 C    0.973
   113   1 H    1.000 --    85 C    0.973
   114   1 H    1.002 --    86 C    0.973
   115   1 H    1.003 --    91 C    0.971
   116   1 H    1.006 --    92 C    0.964
   117   1 H    1.006 --    97 C    0.964
   118   1 H    1.004 --    98 C    0.971
   119   1 H    1.002 --   100 C    0.973
   120   1 H    0.997 --   101 C    0.974
   121   6 C    3.920 --   122 C    2.359   125 C    1.340   124 C    0.188
   122   6 C    3.917 --   121 C    2.359   123 C    1.338   126 C    0.188
   123   6 C    3.932 --   124 C    2.445   122 C    1.338
   124   6 C    3.882 --   123 C    2.445    23 C    1.189   121 C    0.188
   125   6 C    3.926 --   126 C    2.439   121 C    1.340
   126   6 C    3.884 --   125 C    2.439   134 C    1.196   122 C    0.188
   127   6 C    3.917 --   128 C    2.352   131 C    1.344   130 C    0.188
   128   6 C    3.920 --   127 C    2.352   129 C    1.345   132 C    0.188
   129   6 C    3.925 --   130 C    2.433   128 C    1.345
   130   6 C    3.883 --   129 C    2.433   155 C    1.200   127 C    0.188
   131   6 C    3.930 --   132 C    2.438   127 C    1.344
   132   6 C    3.881 --   131 C    2.438    83 C    1.195   128 C    0.188
   133  27 Co   3.012 --   139 N    0.628   160 N    0.628   175 N    0.625
                           153 N    0.625
   134   6 C    3.921 --   135 C    1.257   174 C    1.255   126 C    1.196
   135   6 C    3.902 --   134 C    1.257   139 N    1.231   136 C    1.191
   136   6 C    3.960 --   137 C    1.635   135 C    1.191   176 H    0.973
   137   6 C    3.959 --   136 C    1.635   138 C    1.183   177 H    0.973
   138   6 C    3.914 --   140 C    1.320   139 N    1.199   137 C    1.183
   139   7 N    3.338 --   135 C    1.231   138 C    1.199   133 Co   0.628
   140   6 C    3.923 --   150 C    1.322   138 C    1.320   141 C    1.036
   141   6 C    3.985 --   142 C    1.383   149 C    1.383   140 C    1.036
   142   6 C    3.986 --   143 C    1.463   141 C    1.383   178 H    0.971
                           148 C    0.102
   143   6 C    3.987 --   142 C    1.463   144 C    1.388   179 H    0.964
                           149 C    0.102
   144   6 C    3.942 --   143 C    1.388   148 C    1.388   145 N    0.920
   145   7 N    3.866 --   146 O    1.455   147 O    1.455   144 C    0.920
   146   8 O    1.831 --   145 N    1.455   147 O    0.252
   147   8 O    1.830 --   145 N    1.455   146 O    0.252
   148   6 C    3.987 --   149 C    1.463   144 C    1.388   180 H    0.964
                           142 C    0.102
   149   6 C    3.986 --   148 C    1.463   141 C    1.383   181 H    0.971
                           143 C    0.102
   150   6 C    3.915 --   140 C    1.322   153 N    1.197   151 C    1.183
   151   6 C    3.958 --   152 C    1.634   150 C    1.183   182 H    0.973
   152   6 C    3.960 --   151 C    1.634   154 C    1.192   183 H    0.973
   153   7 N    3.338 --   154 C    1.234   150 C    1.197   133 Co   0.625
   154   6 C    3.901 --   155 C    1.252   153 N    1.234   152 C    1.192
   155   6 C    3.920 --   156 C    1.254   154 C    1.252   130 C    1.200
   156   6 C    3.901 --   155 C    1.254   160 N    1.232   157 C    1.191
   157   6 C    3.960 --   158 C    1.635   156 C    1.191   184 H    0.973
   158   6 C    3.959 --   157 C    1.635   159 C    1.183   185 H    0.973
   159   6 C    3.915 --   161 C    1.322   160 N    1.197   158 C    1.183
   160   7 N    3.338 --   156 C    1.232   159 C    1.197   133 Co   0.628
   161   6 C    3.923 --   159 C    1.322   171 C    1.321   162 C    1.036
   162   6 C    3.985 --   170 C    1.383   163 C    1.383   161 C    1.036
   163   6 C    3.986 --   164 C    1.463   162 C    1.383   186 H    0.971
                           169 C    0.102
   164   6 C    3.987 --   163 C    1.463   165 C    1.388   187 H    0.964
                           170 C    0.102
   165   6 C    3.941 --   169 C    1.388   164 C    1.388   166 N    0.919
   166   7 N    3.866 --   168 O    1.456   167 O    1.455   165 C    0.919
   167   8 O    1.830 --   166 N    1.455   168 O    0.252
   168   8 O    1.831 --   166 N    1.456   167 O    0.252
   169   6 C    3.987 --   170 C    1.463   165 C    1.388   188 H    0.964
                           163 C    0.102
   170   6 C    3.986 --   169 C    1.463   162 C    1.383   189 H    0.971
                           164 C    0.102
   171   6 C    3.914 --   161 C    1.321   175 N    1.198   172 C    1.183
   172   6 C    3.959 --   173 C    1.634   171 C    1.183   190 H    0.973
   173   6 C    3.960 --   172 C    1.634   174 C    1.191   191 H    0.973
   174   6 C    3.902 --   134 C    1.255   175 N    1.232   173 C    1.191
   175   7 N    3.338 --   174 C    1.232   171 C    1.198   133 Co   0.625
   176   1 H    1.000 --   136 C    0.973
   177   1 H    1.002 --   137 C    0.973
   178   1 H    1.003 --   142 C    0.971
   179   1 H    1.006 --   143 C    0.964
   180   1 H    1.006 --   148 C    0.964
   181   1 H    1.003 --   149 C    0.971
   182   1 H    1.002 --   151 C    0.973
   183   1 H    1.000 --   152 C    0.973
   184   1 H    1.000 --   157 C    0.973
   185   1 H    1.002 --   158 C    0.973
   186   1 H    1.003 --   163 C    0.971
   187   1 H    1.006 --   164 C    0.964
   188   1 H    1.006 --   169 C    0.964
   189   1 H    1.003 --   170 C    0.971
   190   1 H    1.002 --   172 C    0.973
   191   1 H    1.000 --   173 C    0.973
 ---------------------------------------------------------------------------

           -------------------------------------------------
          | TOTAL ENERGY             -378.655754846442 Eh   |
          | GRADIENT NORM               0.000864344568 Eh/α |
          | HOMO-LUMO GAP               0.000607312592 eV   |
           -------------------------------------------------

 * finished run on 2022/07/30 at 01:53:21.072
