   * xtb version 6.5.1 (b24c23e) compiled by 'conda@728c89f4b128' on 2022-07-12
          program call               : xtb Ni_Ph3OH_C6_2.xyz --gfn 1 --opt -T 48

   ID    Z sym.   atoms
    1   28 Ni     1, 63
    2    6 C      2-6, 8-11, 13, 15, 17-20, 22-27, 29-32, 34, 36, 38-42,
                  64-68, 70-73, 75, 77, 79-82, 84-89, 91-94, 96, 98, 100-104,
                  125-130
    3    7 N      7, 21, 28, 43, 69, 83, 90, 105
    4    8 O      12, 14, 16, 33, 35, 37, 74, 76, 78, 95, 97, 99
    5    1 H      44-62, 106-124
########################################################################
[WARNING] Please study the warnings concerning your input carefully
-1- prog_main_parseArguments: Unknown option '-T' provided
########################################################################

          :  Hamiltonian                  GFN1-xTB          :
 * total energy  :  -258.3781017 Eh     change       -0.2967738E-08 Eh
 * total energy  :  -258.4910809 Eh     change       -0.1129792E+00 Eh
 * total energy  :  -258.5533162 Eh     change       -0.6223527E-01 Eh
 * total energy  :  -258.5747668 Eh     change       -0.2145057E-01 Eh
 * total energy  :  -258.5864412 Eh     change       -0.1167446E-01 Eh
 * total energy  :  -258.5926979 Eh     change       -0.6256675E-02 Eh
 * total energy  :  -258.5960738 Eh     change       -0.3375882E-02 Eh
 * total energy  :  -258.5979953 Eh     change       -0.1921549E-02 Eh
 * total energy  :  -258.5988740 Eh     change       -0.8786558E-03 Eh
 * total energy  :  -258.5996292 Eh     change       -0.7552365E-03 Eh
 * total energy  :  -258.6030649 Eh     change       -0.1339511E-03 Eh
 * total energy  :  -258.6031522 Eh     change       -0.8725338E-04 Eh
 * total energy  :  -258.6032205 Eh     change       -0.6827814E-04 Eh
 * total energy  :  -258.6032482 Eh     change       -0.2775546E-04 Eh
 * total energy  :  -258.6032973 Eh     change       -0.4904633E-04 Eh
 * total energy  :  -258.6033076 Eh     change       -0.1029732E-04 Eh
 * total energy  :  -258.6033243 Eh     change       -0.1672645E-04 Eh
 * total energy  :  -258.6033364 Eh     change       -0.1212342E-04 Eh
 * total energy  :  -258.6033374 Eh     change       -0.9648973E-06 Eh
   *** GEOMETRY OPTIMIZATION CONVERGED AFTER 44 ITERATIONS ***

 final structure:
================
130
 xtb: 6.5.1 (b24c23e)
Ni          14.71397737851171        0.06417499647931        0.01565048759616
C           11.31958978269602        0.08612380581319       -0.11013352982710
C           11.97123455751704        1.29878254830562       -0.03331626496824
C           11.28818033389972        2.55506927747432        0.01878082943340
C           12.24228097762850        3.51304729540660        0.07145513633070
C           13.50831843083286        2.84068754979948        0.04300891620600
N           13.33151783603744        1.48010097393585       -0.00526147213233
C           14.73035571198493        3.49899185364023        0.07675098566467
C           14.73929670964921        4.98351109622174        0.09918837727438
C           14.23231044268155        5.70199328124924       -0.98328033659335
C           14.24856223773899        7.09194610393225       -0.96557629088601
O           13.76623109271821        7.80079568896177       -2.01519214248148
C           14.76592785004630        7.76716079725179        0.14108224165322
O           14.76647434417946        9.13740672753143        0.13126164869764
C           15.26732336635494        7.04888740283874        1.22356691377577
O           15.75427757792925        7.78094471723590        2.27434551430298
C           15.25957208747031        5.65950710553920        1.20574616771137
C           15.94514958207329        2.82757620128242        0.09159663602125
C           17.21458346086990        3.48926358497421        0.09070868530884
C           18.16093604054344        2.52096532273964        0.12244686926376
N           16.11423003578192        1.46076313625120        0.10003297162399
C           17.46839675427032        1.27228350870786        0.13087187488681
C           18.12715144692438        0.04072495416812        0.16504320925178
C           17.45093386630712       -1.18158591360058        0.14142539847628
C           18.12626939483093       -2.43997562241571        0.15507220374089
C           17.16902149769290       -3.39487772833443        0.08373849994920
C           15.90972386904719       -2.71558249330390        0.03690996114829
N           16.09585051322073       -1.35118251824336        0.07007773035356
C           14.69087703918157       -3.36950717279292       -0.07270359612566
C           14.68363432367492       -4.85417542218975       -0.11572361053571
C           15.10035576381778       -5.58784865722786        0.99445336314154
C           15.09361322062336       -6.97739709557853        0.95292205947854
O           15.48973723740225       -7.70148548549270        2.02785822945909
C           14.67701525858843       -7.63620773466647       -0.20495150928801
O           14.68634792220113       -9.00649790290538       -0.21845562353083
C           14.26428957130293       -6.90224850466926       -1.31393936189404
O           13.87389515374273       -7.61875406484411       -2.41473562473817
C           14.26133676704384       -5.51322349435620       -1.27269176922532
C           13.47898851887312       -2.69559346922626       -0.14171959232102
C           12.20729046615397       -3.35351521669909       -0.21401409360392
C           11.26370020721567       -2.38345451995857       -0.22277922985250
C           11.95891814500011       -1.13505169901624       -0.14934096701294
N           13.31607518535815       -1.33317484880871       -0.10088637781141
H           10.23620777058591        0.09302222054599       -0.14035177740304
H           10.21568694773067        2.66763362713926        0.01837096322798
H           12.11428437881575        4.58151297784661        0.13162658279498
H           13.84101805700819        5.18797247507304       -1.85166825348852
H           13.86677033807681        8.74639837659238       -1.81638503221189
H           15.15785447990457        9.44211262615333        0.96540000526810
H           16.08071319781670        7.20189424215438        2.97552206687193
H           15.64109331246888        5.10648284322260        2.05601629490113
H           17.35433203963761        4.55740505702486        0.05962316297376
H           19.23372053169175        2.62660358259702        0.13274540843099
H           19.19638640853126       -2.56009199257806        0.20442223033998
H           17.29435473456016       -4.46477770354892        0.05548584730069
H           15.41593809750921       -5.08624285423550        1.90010550981753
H           15.41490130994843       -8.64410125370530        1.80505762361213
H           14.37200719570359       -9.29893004603494       -1.08875124793837
H           13.60930850496294       -7.02906500507637       -3.13283296457790
H           13.94935736410101       -4.94740117855946       -2.14268186308906
H           12.06808986479441       -4.42208274108771       -0.24122173119566
H           10.19083570089573       -2.48362721678645       -0.26648573270702
Ni          30.71167980750961       -0.06656504847016        0.01355935720678
C           34.10591574648232       -0.07455374515410       -0.11676463669383
C           33.45396668187345       -1.28786082065497       -0.17960468425898
C           34.13668460608496       -2.54206463296056       -0.27140379758761
C           33.18231577337377       -3.49948108451860       -0.32920637515300
C           31.91646987813079       -2.82792404463641       -0.28070398116594
N           32.09364486941470       -1.47080867264915       -0.17274259880175
C           30.69427492693887       -3.48549781315534       -0.32139414071799
C           30.68492143889050       -4.96307053421487       -0.46693689731030
C           31.18941385777786       -5.55479827232513       -1.62462512925577
C           31.17275425803371       -6.93788497643891       -1.76380607102167
O           31.65259889423157       -7.52383540827623       -2.88772993226212
C           30.65762436785860       -7.73362659002794       -0.73925156920311
O           30.65674395604809       -9.09403036774441       -0.90357343928773
C           30.15876771717465       -7.14207613572488        0.41845269152529
O           29.67397396427625       -7.98798000770100        1.38104152563909
C           30.16679673109384       -5.75955043355750        0.55741309258656
C           29.47965396274523       -2.81991662324587       -0.22980506611642
C           28.21010972463874       -3.47711937879644       -0.30482196116046
C           27.26395214898763       -2.51848839792218       -0.16339678450898
N           29.31084199074382       -1.46288349703300       -0.06617647765632
C           27.95671666779803       -1.27884051626469       -0.01414740375182
C           27.29812900882630       -0.05894006961918        0.15924343505724
C           27.97454184101829        1.15805690542996        0.27417789613670
C           27.29956608092182        2.40696141101245        0.43069746974376
C           28.25708532229835        3.36354089947329        0.46806060902821
C           29.51614536759221        2.69359958349905        0.34405330880038
N           29.32968400932623        1.33426862560946        0.22275941745130
C           30.73514476825146        3.35536227563374        0.30924697269125
C           30.74277350420866        4.83540014294923        0.43506834469369
C           30.33028673291162        5.43799703237718        1.62296444578110
C           30.33758319517563        6.82325038503479        1.73977778865948
O           29.94582089442438        7.42038146187054        2.89158248496030
C           30.75021803498575        7.60945725207557        0.66280854233456
O           30.74143741729642        8.97240127464178        0.80528997190924
C           31.15851504983455        7.00639392982640       -0.52398372965386
O           31.54499174869832        7.84347691792010       -1.53763189618450
C           31.16119525222962        5.62167076608782       -0.64095739958931
C           31.94687343192335        2.69332661959520        0.16469884470146
C           33.21866507183564        3.35500387350839        0.16797230088515
C           34.16218478894272        2.39192738334874        0.05095502115458
C           33.46678952158270        1.14332820696532       -0.01768050451085
N           32.10961446579441        1.33492772404868        0.05199063519288
H           35.18932536399791       -0.07828818616893       -0.14646745612390
H           35.20915062423649       -2.65416183834173       -0.28430606324934
H           33.30994310612549       -4.56785130567805       -0.39189849198420
H           31.57908649622201       -4.94609421180773       -2.43026481106822
H           31.55220162159728       -8.48582498756045       -2.79665484703904
H           30.26722777192566       -9.49086519298874       -0.10820586111806
H           29.34958813435123       -7.49171747473209        2.14393497236750
H           29.78717579725406       -5.30590692925783        1.46540271470617
H           28.07020328096925       -4.53490804691327       -0.45624412009044
H           26.19115612064842       -2.62449504251957       -0.16449835787655
H           26.22949055818476        2.52095110575105        0.49373886764772
H           28.13222739614799        4.42976783524147        0.56177057350805
H           30.01755500456473        4.83660102350195        2.46671761471963
H           30.02039798056709        8.38221557540289        2.77722614899872
H           31.05240495830769        9.36193680825065       -0.02735649464157
H           31.80628086085653        7.33932772261629       -2.31926618049302
H           31.46999587931645        5.15843651283488       -1.57069819207937
H           33.35784893538820        4.41984424228405        0.26125836941074
H           35.23509891155906        2.49618240164977        0.01987754755319
C           23.32643090175002       -0.02324898528210        0.24617687457551
C           22.09884013768449       -0.00578180763172        0.24745443093699
C           20.75429194794140        0.01246746382389        0.23371246037369
C           19.53146392996021        0.02953072152474        0.20732985750103
C           24.67098277132524       -0.03857386467548        0.22985512043307
C           25.89381883678650       -0.05254354148292        0.20257003181241

          :  Hamiltonian                  GFN1-xTB          :
         :: total energy            -258.603337397850 Eh    ::
         :: gradient norm              0.000809503464 Eh/a0 ::
         :: HOMO-LUMO gap              1.198184287729 eV    ::
         :: SCC energy              -262.071372306306 Eh    ::
         :: repulsion energy           3.582138465357 Eh    ::

    * Orbital Energies and Occupations

         #    Occupation            Energy/Eh            Energy/eV
      -------------------------------------------------------------
         1        2.0000           -0.8130109             -22.1232
       ...           ...                  ...                  ...
       213        2.0000           -0.4112524             -11.1907
       214        2.0000           -0.3991692             -10.8619
       215        2.0000           -0.3991642             -10.8618
       216        2.0000           -0.3986992             -10.8492
       217        2.0000           -0.3986975             -10.8491
       218        2.0000           -0.3979920             -10.8299
       219        2.0000           -0.3979900             -10.8299
       220        2.0000           -0.3969836             -10.8025
       221        2.0000           -0.3969816             -10.8024
       222        2.0000           -0.3969058             -10.8004
       223        2.0000           -0.3969032             -10.8003
       224        2.0000           -0.3942102             -10.7270
       225        2.0000           -0.3843296             -10.4581 (HOMO)
       226                         -0.3402971              -9.2600 (LUMO)
       227                         -0.3306553              -8.9976
       228                         -0.3306435              -8.9973
       229                         -0.3293239              -8.9614
       230                         -0.3292828              -8.9602
       231                         -0.3287657              -8.9462
       232                         -0.3004300              -8.1751
       233                         -0.2925033              -7.9594
       234                         -0.2859150              -7.7801
       235                         -0.2636777              -7.1750
       236                         -0.2556934              -6.9578
       ...                                ...                  ...
       454                          1.5809513              43.0199
      -------------------------------------------------------------
                  HL-Gap            0.0440325 Eh            1.1982 eV

Wiberg/Mayer (AO) data.
largest (>0.10) Wiberg bond orders for each atom

     #   Z sym  total        # sym  WBO       # sym  WBO       # sym  WBO
 ---------------------------------------------------------------------------
     1  28 Ni   3.005 --     7 N    0.664    43 N    0.663    28 N    0.661
                            21 N    0.660
     2   6 C    3.934 --     3 C    1.364    42 C    1.363    44 H    0.970
     3   6 C    3.924 --     2 C    1.364     7 N    1.214     4 C    1.175
     4   6 C    3.960 --     5 C    1.650     3 C    1.175    45 H    0.975
     5   6 C    3.963 --     4 C    1.650     6 C    1.177    46 H    0.973
     6   6 C    3.919 --     8 C    1.324     7 N    1.221     5 C    1.177
     7   7 N    3.402 --     6 C    1.221     3 C    1.214     1 Ni   0.664
     8   6 C    3.939 --    18 C    1.330     6 C    1.324     9 C    1.023
     9   6 C    3.989 --    10 C    1.400    17 C    1.388     8 C    1.023
    10   6 C    3.978 --     9 C    1.400    11 C    1.379    47 H    0.970
    11   6 C    3.918 --    10 C    1.379    13 C    1.325    12 O    1.053
    12   8 O    2.049 --    11 C    1.053    48 H    0.847
    13   6 C    3.905 --    15 C    1.341    11 C    1.325    14 O    1.021
    14   8 O    2.021 --    13 C    1.021    49 H    0.846
    15   6 C    3.905 --    17 C    1.383    13 C    1.341    16 O    1.014
    16   8 O    2.025 --    15 C    1.014    50 H    0.860
    17   6 C    3.974 --     9 C    1.388    15 C    1.383    51 H    0.970
    18   6 C    3.914 --     8 C    1.330    21 N    1.206    19 C    1.184
    19   6 C    3.959 --    20 C    1.635    18 C    1.184    52 H    0.973
    20   6 C    3.961 --    19 C    1.635    22 C    1.192    53 H    0.973
    21   7 N    3.406 --    22 C    1.240    18 C    1.206     1 Ni   0.660
    22   6 C    3.904 --    23 C    1.263    21 N    1.240    20 C    1.192
    23   6 C    3.944 --    24 C    1.263    22 C    1.263   128 C    1.184
    24   6 C    3.904 --    23 C    1.263    28 N    1.240    25 C    1.190
    25   6 C    3.961 --    26 C    1.637    24 C    1.190    54 H    0.973
    26   6 C    3.959 --    25 C    1.637    27 C    1.183    55 H    0.973
    27   6 C    3.914 --    29 C    1.332    28 N    1.205    26 C    1.183
    28   7 N    3.406 --    24 C    1.240    27 C    1.205     1 Ni   0.661
    29   6 C    3.939 --    27 C    1.332    39 C    1.324    30 C    1.020
    30   6 C    3.989 --    31 C    1.401    38 C    1.389    29 C    1.020
    31   6 C    3.978 --    30 C    1.401    32 C    1.379    56 H    0.970
    32   6 C    3.918 --    31 C    1.379    34 C    1.325    33 O    1.053
    33   8 O    2.049 --    32 C    1.053    57 H    0.847
    34   6 C    3.906 --    36 C    1.342    32 C    1.325    35 O    1.020
    35   8 O    2.021 --    34 C    1.020    58 H    0.846
    36   6 C    3.905 --    38 C    1.383    34 C    1.342    37 O    1.014
    37   8 O    2.025 --    36 C    1.014    59 H    0.861
    38   6 C    3.974 --    30 C    1.389    36 C    1.383    60 H    0.970
    39   6 C    3.919 --    29 C    1.324    43 N    1.221    40 C    1.178
    40   6 C    3.963 --    41 C    1.648    39 C    1.178    61 H    0.973
    41   6 C    3.959 --    40 C    1.648    42 C    1.176    62 H    0.975
    42   6 C    3.924 --     2 C    1.363    43 N    1.214    41 C    1.176
    43   7 N    3.402 --    39 C    1.221    42 C    1.214     1 Ni   0.663
    44   1 H    1.000 --     2 C    0.970
    45   1 H    0.997 --     4 C    0.975
    46   1 H    1.005 --     5 C    0.973
    47   1 H    0.999 --    10 C    0.970
    48   1 H    0.878 --    12 O    0.847
    49   1 H    0.876 --    14 O    0.846
    50   1 H    0.881 --    16 O    0.860
    51   1 H    1.000 --    17 C    0.970
    52   1 H    1.005 --    19 C    0.973
    53   1 H    1.002 --    20 C    0.973
    54   1 H    1.002 --    25 C    0.973
    55   1 H    1.005 --    26 C    0.973
    56   1 H    0.999 --    31 C    0.970
    57   1 H    0.878 --    33 O    0.847
    58   1 H    0.876 --    35 O    0.846
    59   1 H    0.881 --    37 O    0.861
    60   1 H    1.000 --    38 C    0.970
    61   1 H    1.005 --    40 C    0.973
    62   1 H    0.998 --    41 C    0.975
    63  28 Ni   3.005 --    69 N    0.664   105 N    0.663    90 N    0.661
                            83 N    0.660
    64   6 C    3.934 --    65 C    1.364   104 C    1.363   106 H    0.970
    65   6 C    3.924 --    64 C    1.364    69 N    1.214    66 C    1.175
    66   6 C    3.960 --    67 C    1.650    65 C    1.175   107 H    0.975
    67   6 C    3.963 --    66 C    1.650    68 C    1.177   108 H    0.973
    68   6 C    3.919 --    70 C    1.324    69 N    1.221    67 C    1.177
    69   7 N    3.402 --    68 C    1.221    65 C    1.214    63 Ni   0.664
    70   6 C    3.939 --    80 C    1.330    68 C    1.324    71 C    1.023
    71   6 C    3.989 --    72 C    1.400    79 C    1.388    70 C    1.023
    72   6 C    3.978 --    71 C    1.400    73 C    1.379   109 H    0.970
    73   6 C    3.918 --    72 C    1.379    75 C    1.325    74 O    1.053
    74   8 O    2.049 --    73 C    1.053   110 H    0.847
    75   6 C    3.905 --    77 C    1.341    73 C    1.325    76 O    1.021
    76   8 O    2.021 --    75 C    1.021   111 H    0.846
    77   6 C    3.905 --    79 C    1.383    75 C    1.341    78 O    1.014
    78   8 O    2.025 --    77 C    1.014   112 H    0.860
    79   6 C    3.974 --    71 C    1.388    77 C    1.383   113 H    0.970
    80   6 C    3.914 --    70 C    1.330    83 N    1.206    81 C    1.184
    81   6 C    3.959 --    82 C    1.635    80 C    1.184   114 H    0.973
    82   6 C    3.961 --    81 C    1.635    84 C    1.192   115 H    0.973
    83   7 N    3.406 --    84 C    1.240    80 C    1.206    63 Ni   0.660
    84   6 C    3.904 --    85 C    1.263    83 N    1.240    82 C    1.192
    85   6 C    3.944 --    86 C    1.263    84 C    1.263   130 C    1.184
    86   6 C    3.904 --    85 C    1.263    90 N    1.240    87 C    1.190
    87   6 C    3.961 --    88 C    1.637    86 C    1.190   116 H    0.973
    88   6 C    3.959 --    87 C    1.637    89 C    1.183   117 H    0.973
    89   6 C    3.914 --    91 C    1.332    90 N    1.205    88 C    1.183
    90   7 N    3.406 --    86 C    1.240    89 C    1.205    63 Ni   0.661
    91   6 C    3.939 --    89 C    1.332   101 C    1.324    92 C    1.020
    92   6 C    3.989 --    93 C    1.401   100 C    1.389    91 C    1.020
    93   6 C    3.978 --    92 C    1.401    94 C    1.379   118 H    0.970
    94   6 C    3.918 --    93 C    1.379    96 C    1.325    95 O    1.053
    95   8 O    2.049 --    94 C    1.053   119 H    0.847
    96   6 C    3.906 --    98 C    1.342    94 C    1.325    97 O    1.020
    97   8 O    2.021 --    96 C    1.020   120 H    0.846
    98   6 C    3.905 --   100 C    1.383    96 C    1.342    99 O    1.014
    99   8 O    2.025 --    98 C    1.014   121 H    0.861
   100   6 C    3.974 --    92 C    1.389    98 C    1.383   122 H    0.970
   101   6 C    3.919 --    91 C    1.324   105 N    1.221   102 C    1.178
   102   6 C    3.963 --   103 C    1.648   101 C    1.178   123 H    0.973
   103   6 C    3.959 --   102 C    1.648   104 C    1.176   124 H    0.975
   104   6 C    3.924 --    64 C    1.363   105 N    1.214   103 C    1.176
   105   7 N    3.402 --   101 C    1.221   104 C    1.214    63 Ni   0.663
   106   1 H    1.000 --    64 C    0.970
   107   1 H    0.997 --    66 C    0.975
   108   1 H    1.005 --    67 C    0.973
   109   1 H    0.999 --    72 C    0.970
   110   1 H    0.878 --    74 O    0.847
   111   1 H    0.876 --    76 O    0.846
   112   1 H    0.881 --    78 O    0.860
   113   1 H    1.000 --    79 C    0.970
   114   1 H    1.005 --    81 C    0.973
   115   1 H    1.002 --    82 C    0.973
   116   1 H    1.002 --    87 C    0.973
   117   1 H    1.005 --    88 C    0.973
   118   1 H    0.999 --    93 C    0.970
   119   1 H    0.878 --    95 O    0.847
   120   1 H    0.876 --    97 O    0.846
   121   1 H    0.881 --    99 O    0.861
   122   1 H    1.000 --   100 C    0.970
   123   1 H    1.005 --   102 C    0.973
   124   1 H    0.998 --   103 C    0.975
   125   6 C    3.928 --   126 C    2.375   129 C    1.331   128 C    0.191
   126   6 C    3.928 --   125 C    2.375   127 C    1.331   130 C    0.191
   127   6 C    3.938 --   128 C    2.456   126 C    1.331
   128   6 C    3.892 --   127 C    2.456    23 C    1.184   125 C    0.191
   129   6 C    3.938 --   130 C    2.456   125 C    1.331
   130   6 C    3.892 --   129 C    2.456    85 C    1.184   126 C    0.191
 ---------------------------------------------------------------------------

           -------------------------------------------------
          | TOTAL ENERGY             -258.603337397850 Eh   |
          | GRADIENT NORM               0.000809503464 Eh/α |
          | HOMO-LUMO GAP               1.198184287729 eV   |
           -------------------------------------------------

 * finished run on 2022/07/30 at 06:36:59.701
