   * xtb version 6.5.1 (b24c23e) compiled by 'conda@728c89f4b128' on 2022-07-12
          program call               : xtb Fe_Ph2Me_C6_3.xyz --gfn 1 --opt -T 48

   ID    Z sym.   atoms
    1   26 Fe     1, 69, 149
    2    6 C      2-6, 8-11, 13-31, 34-41, 70-74, 76-79, 81-99, 102-109,
                  137-148, 150-154, 156-159, 161-179, 182-189
    3    7 N      7, 12, 32, 33, 75, 80, 100, 101, 155, 160, 180, 181
    4    1 H      42-68, 110-136, 190-215

          :  Hamiltonian                  GFN1-xTB          :
 * total energy  :  -343.0377040 Eh     change        0.2993653E-07 Eh
 * total energy  :  -343.4796275 Eh     change       -0.4419235E+00 Eh
 * total energy  :  -343.6110300 Eh     change       -0.1314026E+00 Eh
 * total energy  :  -343.7136480 Eh     change       -0.1026180E+00 Eh
 * total energy  :  -343.7875007 Eh     change       -0.7385273E-01 Eh
 * total energy  :  -343.8293271 Eh     change       -0.4182635E-01 Eh
 * total energy  :  -343.8554356 Eh     change       -0.2610855E-01 Eh
 * total energy  :  -343.8725510 Eh     change       -0.1711531E-01 Eh
 * total energy  :  -343.8816785 Eh     change       -0.9127551E-02 Eh
 * total energy  :  -343.8896335 Eh     change       -0.7954971E-02 Eh
 * total energy  :  -343.9333569 Eh     change       -0.1581395E-04 Eh
 * total energy  :  -343.9333735 Eh     change       -0.1661863E-04 Eh
 * total energy  :  -343.9333938 Eh     change       -0.2031946E-04 Eh
 * total energy  :  -343.9334150 Eh     change       -0.2112318E-04 Eh
 * total energy  :  -343.9334300 Eh     change       -0.1501691E-04 Eh
 * total energy  :  -343.9334396 Eh     change       -0.9579388E-05 Eh
 * total energy  :  -343.9334472 Eh     change       -0.7661930E-05 Eh
 * total energy  :  -343.9334547 Eh     change       -0.7500391E-05 Eh
 * total energy  :  -343.9334572 Eh     change       -0.2505311E-05 Eh
   *** GEOMETRY OPTIMIZATION CONVERGED AFTER 68 ITERATIONS ***

 final structure:
================
215
 xtb: 6.5.1 (b24c23e)
Fe          28.43877668956950        0.09646854079816       -0.25834624574777
C           25.10010580685729        0.28113416266431       -0.76920347233824
C           25.73046596048550        1.39181906197776       -0.24605310868376
C           25.04127835336461        2.58962784007358        0.12788340410302
C           25.97592383044941        3.43796842635801        0.61772640857973
C           27.24066916743736        2.77001336113984        0.50754705312297
N           27.07072099367065        1.50415386162752        0.01418588539285
C           28.46340901530344        3.36474955148317        0.80059189574274
C           29.67630983108059        2.71333245179250        0.62193832265475
C           30.95147122040344        3.35132612285247        0.76108961116866
C           31.88992425599865        2.41523654402995        0.48061452604476
N           29.83866487440434        1.39959195019639        0.25390399207564
C           31.18630733923690        1.20660574198277        0.18589377339290
C           31.83033515986017       -0.01604428020821       -0.04371686276319
C           31.13762211458709       -1.21709293446148       -0.24568722404236
C           31.78979196837972       -2.48290691671893       -0.36939582410893
C           30.81526147222263       -3.40367514841310       -0.56320673648887
C           29.57102208837163       -2.69299053544872       -0.57368298720085
C           28.35459589157163       -3.27774975378565       -0.89378301388885
C           28.32308786793483       -4.73777976403995       -1.15530955325313
C           28.03476712949581       -5.21914817290313       -2.43030804683792
C           28.01677051340640       -6.58815698444889       -2.68050564873621
C           27.69175435349599       -7.09876129672205       -4.05827766215188
C           28.28386797016534       -7.47378893048837       -1.64225996660168
C           28.57312159357721       -7.00706896711036       -0.36211154384525
C           28.87460007433213       -7.98186813922860        0.74392064850519
C           28.59496166709721       -5.63786734983610       -0.12527594674397
C           27.17853507526719       -2.54693584481185       -1.02796108915930
C           25.92345577205652       -3.11238453908418       -1.43092877253299
C           25.02262206051524       -2.10175540698004       -1.43799514189947
C           25.72084948055997       -0.92738213826071       -1.00949898854646
N           27.04040810978630       -1.21011145760490       -0.77097309160213
N           29.78650358446547       -1.35255883761957       -0.35490492867287
C           28.48490082364097        4.77062798206677        1.26966677833202
C           27.98559833471569        5.79315191875473        0.46368140658287
C           28.01548717662549        7.11337902276437        0.89892089974595
C           27.49783988314335        8.21724142239360        0.01681940930416
C           28.55007945833622        7.40736583614660        2.15005351519877
C           29.05476608711471        6.39842324325606        2.96480276545604
C           29.61503983233307        6.72551192614350        4.32256926531862
C           29.02047895857506        5.08153087440795        2.51878417011443
H           24.03473517127685        0.34832140592389       -0.95975626522141
H           23.97709085699196        2.73770256838747        0.03435540661064
H           25.83363985273254        4.42872993556308        1.01763967375415
H           31.09895253454704        4.38680238414761        1.02110753484827
H           32.96318297118791        2.51712562643731        0.47796311667604
H           32.85601331520510       -2.63199807004419       -0.31213506961013
H           30.92025515281870       -4.46603141258009       -0.71143640376426
H           27.84307547375828       -4.51835117540160       -3.23544456492139
H           28.10091505809880       -8.09753177637431       -4.21053459730235
H           26.60840080064440       -7.15010285138018       -4.18895401919373
H           28.09270960965737       -6.43220122839947       -4.82235276668079
H           28.26991637070289       -8.54237603779329       -1.83092910301634
H           28.88856042934140       -7.48218104269659        1.71232589271720
H           28.12757513389453       -8.77646082539628        0.76868043008179
H           29.85087295695986       -8.44285058445871        0.57955872395546
H           28.81093649577210       -5.26013715324504        0.86805051939536
H           25.76338469353148       -4.15100006968811       -1.67068726284875
H           23.97363185726749       -2.13328265502654       -1.68655393679149
H           27.59023239528241        5.55443281406578       -0.51753263255329
H           27.02065316484325        8.99639914854623        0.61190265527026
H           26.77737171099941        7.83304289003840       -0.70531332305665
H           28.32467554724693        8.67093715119328       -0.53435800049594
H           28.57593168109991        8.43665044271363        2.49290234717564
H           28.81577642767305        6.71323039024441        5.06711851849877
H           30.06690100112407        7.71770279647645        4.32689481464508
H           30.36650140923413        5.99354612447205        4.61912158725313
H           29.39992868538335        4.28464516517838        3.14896117016906
Fe          60.39158560429667        0.11227336487004       -0.09372841733321
C           63.73901927877743        0.56012499051112       -0.45262927502318
C           63.08743528942029       -0.21475359652224       -1.38976242522524
C           63.75841917308590       -0.90108928550688       -2.45187177075440
C           62.80778060493226       -1.57910719172066       -3.13683508072810
C           61.55207176391924       -1.28004234535389       -2.51118624610898
N           61.74006354616778       -0.45870780195613       -1.43095736935908
C           60.32488333592688       -1.73156029437480       -2.98192335835878
C           59.11816161760465       -1.39841255671701       -2.38212722308520
C           57.83931210262131       -1.75446528189463       -2.92114821319179
C           56.90556017603665       -1.23969581351985       -2.08611987189601
N           58.96318934012721       -0.65650121857445       -1.23553177467158
C           57.61541263977267       -0.57872405097039       -1.03615945161633
C           56.97977270486686        0.01770050969346        0.05650376077431
C           57.67808406670633        0.59668676696422        1.11982357659725
C           57.03485402579457        1.11657661172558        2.28562533426068
C           58.01622055753091        1.57927470424304        3.09620315437315
C           59.25667403189650        1.35062894214067        2.41641804251356
C           60.48456212843529        1.78695044479157        2.89342800696440
C           60.52554293040750        2.45979901673119        4.21570134978715
C           60.85607181908049        3.80969699591904        4.30857346039236
C           60.88232235777879        4.44644117000347        5.54594337381039
C           61.25124706735650        5.90258768845118        5.63689696456284
C           60.58171978028683        3.71944901507743        6.69253082467319
C           60.25147966716514        2.36843520928463        6.61528303934267
C           59.91389239141400        1.60342179602476        7.86645156262778
C           60.22143836737708        1.74470091216801        5.37376857392102
C           61.66611306397104        1.65301411918483        2.17465018086273
C           62.93644338867033        2.14163149308730        2.62744394585313
C           63.84039426763598        1.83105386033390        1.66901608534038
C           63.12755982403236        1.12772653422960        0.64567309863355
N           61.79612769071422        1.03847032707603        0.95733996933415
N           59.03172933279486        0.74499795703927        1.20308063676753
C           60.29331303269608       -2.57604146879147       -4.20081910311223
C           60.74423265963772       -2.07135465633711       -5.41978242597394
C           60.70654798224341       -2.85720103341154       -6.56629352512317
C           61.17019872696739       -2.30090145755124       -7.88545872192030
C           60.21412671723080       -4.15668776304598       -6.48670792163565
C           59.75948782746429       -4.67409310386807       -5.27759078492244
C           59.24639394889984       -6.08660799393276       -5.19894131613347
C           59.80056144827372       -3.87845517726945       -4.13748437628749
H           64.80930888094886        0.69439668208978       -0.56222408213098
H           64.82271463618439       -0.87037755806340       -2.62370147869299
H           62.93316608757065       -2.22733653128363       -3.98888170294616
H           57.68597962348886       -2.31433627987281       -3.82919834150951
H           55.83147229387948       -1.29895995615475       -2.15764437149141
H           55.96916215571625        1.11627873581049        2.44904936215329
H           57.91906875070084        2.04933507343175        4.06119402545992
H           61.07530652924640        4.36933096289015        3.40587904037268
H           60.85656768079480        6.34850653924919        6.54987872985174
H           62.33826988625118        6.01041121810881        5.64634216736628
H           60.86489925338086        6.45348539729463        4.77887891431450
H           60.60184609988441        4.21010075263019        7.66029136209735
H           59.88882810077311        0.53098304908625        7.67413121110846
H           60.64743251616238        1.80381374796568        8.64857724711116
H           58.93359799215442        1.90979782185735        8.23786576528880
H           59.97309361259253        0.69169949957797        5.29907353273755
H           63.10274247996042        2.65050466995621        3.56304718113141
H           64.89994278596345        2.03141275031609        1.64870788825267
H           61.10915182539872       -1.05147933839030       -5.47252598560064
H           61.64630662463143       -3.07598840577511       -8.48667342592300
H           61.87725378864980       -1.48471265359595       -7.73677443676563
H           60.31607332909212       -1.91434077804384       -8.44615976071073
H           60.18255572263690       -4.77303291361818       -7.37934373256491
H           60.07213631816516       -6.77076174285320       -4.99047807556588
H           58.78796585160819       -6.38596617720582       -6.14172961128837
H           58.51135700561557       -6.18871774882089       -4.40033624387598
H           59.45950689718881       -4.27357408821881       -3.18683780892961
C           37.02619716528451       -0.09192860283277       -0.00773050303683
C           35.79552519356941       -0.08213468466720       -0.01567615292295
C           34.45541425728532       -0.06453424685466       -0.02344129079604
C           33.22947060878082       -0.04541091656065       -0.02944534143399
C           38.36630390283297       -0.09699333907257       -0.00376918762465
C           39.59253630686476       -0.09664800158955       -0.00128915642267
C           53.00833252124566       -0.01855053919249        0.15034563951547
C           51.78000327445326       -0.02756556684872        0.15733304361159
C           50.43598301827529       -0.04081311450432        0.15212927998180
C           49.21198700565438       -0.04941365927616        0.13800103952531
C           54.35251547982703       -0.00722385016733        0.13027943959025
C           55.57596948834139        0.00149194431651        0.10319800057490
Fe          44.40045692415867       -0.07426228925240        0.05312670877305
C           40.99117170758954       -0.09156035679313        0.00016482870178
C           41.65783865622463        1.14018154786640        0.05302668943322
C           40.98382735754620        2.39756509575614        0.13309175328865
C           41.93472693960775        3.35552768967439        0.00641067807848
C           43.18520236734690        2.67671709298594       -0.15526148691235
N           43.00211733446537        1.31719814783716       -0.08259263477615
C           44.39027805717627        3.31488068201002       -0.41879592530836
C           45.60225375654142        2.63820578971898       -0.49450895404157
C           46.85416115659311        3.26567170692743       -0.79428650988420
C           47.81263003573961        2.32068160081270       -0.63396280374208
N           45.79073935143904        1.30728675922689       -0.21498374419755
C           47.14128818696881        1.11837987345458       -0.25262957719561
C           47.80910670123066       -0.05762927900990        0.10685668266373
C           47.13831826541941       -1.24442600476609        0.42177983286807
C           47.80356338228589       -2.44517448272097        0.81816625565975
C           46.85231064287628       -3.40810625292874        0.89427316105220
C           45.61097865871355       -2.79066004086977        0.53620412477956
C           44.41186318930320       -3.47920073063690        0.38866574137717
C           44.42099142170854       -4.95265064888493        0.54615829708445
C           43.66915442886203       -5.55700685343212        1.55241503537240
C           43.67939062607536       -6.93927200338910        1.70764696673590
C           42.88843383196359       -7.58258026802981        2.81434571867874
C           44.44353744885743       -7.71659078872984        0.84293557178072
C           45.19557443054801       -7.12803393623875       -0.17011112493745
C           46.02785517442882       -7.98035960452885       -1.08942617202238
C           45.18479430945847       -5.74493860786649       -0.31044613095800
C           43.20802214878088       -2.84582184104403        0.11066035930366
C           41.96439763266677       -3.53049848216048       -0.07848243116609
C           41.00518422410143       -2.57760502154648       -0.17608294841235
C           41.66842311182056       -1.31714815221022       -0.06177285040277
N           43.01445539561405       -1.48575867389791        0.06437106961646
N           45.79638226709434       -1.45338009090586        0.29072377625113
C           44.38414182840814        4.78245933201025       -0.62386135163713
C           45.10452153269386        5.61754543400519        0.22827598530595
C           45.09886757882626        6.99567962638807        0.03707145182813
C           45.88946473966141        7.88796263317291        0.95530841794695
C           44.37315683013605        7.53399705854951       -1.02058574685777
C           43.64941947632625        6.71260362796599       -1.88097701046074
C           42.88577750546777        7.30673368373882       -3.03335246251821
C           43.65568480301440        5.33783631353618       -1.67565789178585
H           39.92036156538754        2.51681554302176        0.26401451027137
H           41.81113816769513        4.42607813643442        0.02479291048555
H           46.97482864310933        4.29550674834784       -1.08822069758008
H           48.87938917367142        2.41487245747030       -0.75818222746163
H           48.86182416779744       -2.52639907646404        1.00746096909099
H           46.97037083386441       -4.44309884713429        1.17084580813973
H           43.08663231222771       -4.93930782964317        2.22710438661409
H           42.59003744713917       -8.59492113632126        2.54142384215565
H           43.49715139828090       -7.63989433183054        3.71965407956244
H           41.99579301274845       -6.99990769066265        3.04281437769782
H           44.45145389811887       -8.79569416192617        0.95733103944854
H           46.22368661467472       -7.46355549131564       -2.02890787251408
H           45.52529572905654       -8.92411122925829       -1.30306765807294
H           46.98698478277232       -8.20683426363621       -0.61815536592264
H           45.75647392102585       -5.27452487488747       -1.10288155368277
H           41.84988793002995       -4.60103903572449       -0.12804514762461
H           39.94286566461267       -2.70184022437659       -0.31170239831273
H           45.65546269310967        5.18723008282904        1.05736717329845
H           45.49217009806660        8.90295529569077        0.95012071889941
H           46.93088524879776        7.92729194399174        0.62781793758397
H           45.87097765692601        7.50614027671494        1.97644285059083
H           44.36770111470518        8.60800627254805       -1.17571107915648
H           42.45644664165503        8.27030725209234       -2.75755935880856
H           42.08426897136077        6.64117147825097       -3.35384910956598
H           43.55692535209392        7.46529598815047       -3.88053444754201
H           43.10522971531652        4.68567553660564       -2.34479182627954

          :  Hamiltonian                  GFN1-xTB          :
         :: total energy            -343.933457256161 Eh    ::
         :: gradient norm              0.000463316470 Eh/a0 ::
         :: HOMO-LUMO gap              0.078303884802 eV    ::
         :: SCC energy              -349.681772728469 Eh    ::
         :: repulsion energy           5.933061089013 Eh    ::

    * Orbital Energies and Occupations

         #    Occupation            Energy/Eh            Energy/eV
      -------------------------------------------------------------
         1        2.0000           -0.7693000             -20.9337
       ...           ...                  ...                  ...
       310        2.0000           -0.3930944             -10.6966
       311        2.0000           -0.3928578             -10.6902
       312        1.9970           -0.3875962             -10.5470
       313        1.9928           -0.3867583             -10.5242
       314        1.9912           -0.3865733             -10.5192
       315        1.9657           -0.3852676             -10.4837
       316        1.9582           -0.3850760             -10.4785
       317        1.9557           -0.3850190             -10.4769
       318        1.9515           -0.3849314             -10.4745
       319        1.9494           -0.3848891             -10.4734
       320        1.9340           -0.3846286             -10.4663
       321        1.9332           -0.3846168             -10.4660
       322        1.5944           -0.3827208             -10.4144 (HOMO)
       323        0.3195           -0.3798432             -10.3361 (LUMO)
       324        0.2425           -0.3795388             -10.3278
       325        0.2149           -0.3794090             -10.3242
       326                         -0.3413155              -9.2877
       327                         -0.3308570              -9.0031
       328                         -0.3285525              -8.9404
       329                         -0.3269526              -8.8968
       330                         -0.3258381              -8.8665
       331                         -0.3234485              -8.8015
       332                         -0.3062971              -8.3348
       333                         -0.2987460              -8.1293
       ...                                ...                  ...
       715                          1.5770430              42.9135
      -------------------------------------------------------------
                  HL-Gap            0.0028776 Eh            0.0783 eV

Wiberg/Mayer (AO) data.
largest (>0.10) Wiberg bond orders for each atom

     #   Z sym  total        # sym  WBO       # sym  WBO       # sym  WBO
 ---------------------------------------------------------------------------
     1  26 Fe   3.151 --     7 N    0.668    32 N    0.665    33 N    0.662
                            12 N    0.659
     2   6 C    3.922 --    31 C    1.363     3 C    1.361    42 H    0.970
     3   6 C    3.925 --     2 C    1.361     7 N    1.211     4 C    1.174
     4   6 C    3.959 --     5 C    1.648     3 C    1.174    43 H    0.975
     5   6 C    3.962 --     4 C    1.648     6 C    1.176    44 H    0.972
     6   6 C    3.921 --     8 C    1.313     7 N    1.225     5 C    1.176
     7   7 N    3.380 --     6 C    1.225     3 C    1.211     1 Fe   0.668
     8   6 C    3.925 --     9 C    1.331     6 C    1.313    34 C    1.028
     9   6 C    3.917 --     8 C    1.331    12 N    1.202    10 C    1.181
    10   6 C    3.958 --    11 C    1.637     9 C    1.181    45 H    0.973
    11   6 C    3.960 --    10 C    1.637    13 C    1.189    46 H    0.973
    12   7 N    3.379 --    13 C    1.246     9 C    1.202     1 Fe   0.659
    13   6 C    3.904 --    14 C    1.248    12 N    1.246    11 C    1.189
    14   6 C    3.922 --    13 C    1.248    15 C    1.246   140 C    1.209
    15   6 C    3.904 --    33 N    1.250    14 C    1.246    16 C    1.189
    16   6 C    3.961 --    17 C    1.638    15 C    1.189    47 H    0.973
    17   6 C    3.957 --    16 C    1.638    18 C    1.179    48 H    0.973
    18   6 C    3.917 --    19 C    1.337    33 N    1.198    17 C    1.179
    19   6 C    3.925 --    18 C    1.337    28 C    1.311    20 C    1.022
    20   6 C    3.988 --    21 C    1.402    27 C    1.392    19 C    1.022
                            24 C    0.103
    21   6 C    3.986 --    22 C    1.411    20 C    1.402    49 H    0.972
                            25 C    0.104
    22   6 C    3.988 --    24 C    1.421    21 C    1.411    23 C    1.020
                            27 C    0.103
    23   6 C    3.995 --    22 C    1.020    50 H    0.984    52 H    0.981
                            51 H    0.971
    24   6 C    3.989 --    22 C    1.421    25 C    1.410    53 H    0.972
                            20 C    0.103
    25   6 C    3.988 --    27 C    1.422    24 C    1.410    26 C    1.020
                            21 C    0.104
    26   6 C    3.995 --    25 C    1.020    54 H    0.985    55 H    0.978
                            56 H    0.973
    27   6 C    3.986 --    25 C    1.422    20 C    1.392    57 H    0.972
                            22 C    0.103
    28   6 C    3.920 --    19 C    1.311    32 N    1.227    29 C    1.176
    29   6 C    3.962 --    30 C    1.649    28 C    1.176    58 H    0.972
    30   6 C    3.959 --    29 C    1.649    31 C    1.173    59 H    0.975
    31   6 C    3.925 --     2 C    1.363    32 N    1.209    30 C    1.173
    32   7 N    3.379 --    28 C    1.227    31 C    1.209     1 Fe   0.665
    33   7 N    3.379 --    15 C    1.250    18 C    1.198     1 Fe   0.662
    34   6 C    3.988 --    41 C    1.396    35 C    1.394     8 C    1.028
                            38 C    0.103
    35   6 C    3.986 --    36 C    1.418    34 C    1.394    60 H    0.971
                            39 C    0.103
    36   6 C    3.988 --    35 C    1.418    38 C    1.414    37 C    1.020
                            41 C    0.103
    37   6 C    3.995 --    36 C    1.020    62 H    0.984    61 H    0.981
                            63 H    0.971
    38   6 C    3.988 --    39 C    1.416    36 C    1.414    64 H    0.972
                            34 C    0.103
    39   6 C    3.988 --    41 C    1.417    38 C    1.416    40 C    1.020
                            35 C    0.103
    40   6 C    3.995 --    39 C    1.020    67 H    0.983    66 H    0.982
                            65 H    0.971
    41   6 C    3.986 --    39 C    1.417    34 C    1.396    68 H    0.972
                            36 C    0.103
    42   1 H    1.001 --     2 C    0.970
    43   1 H    0.998 --     4 C    0.975
    44   1 H    1.005 --     5 C    0.972
    45   1 H    1.005 --    10 C    0.973
    46   1 H    1.002 --    11 C    0.973
    47   1 H    1.002 --    16 C    0.973
    48   1 H    1.005 --    17 C    0.973
    49   1 H    1.002 --    21 C    0.972
    50   1 H    1.004 --    23 C    0.984
    51   1 H    1.006 --    23 C    0.971
    52   1 H    1.004 --    23 C    0.981
    53   1 H    1.000 --    24 C    0.972
    54   1 H    1.004 --    26 C    0.985
    55   1 H    1.005 --    26 C    0.978
    56   1 H    1.006 --    26 C    0.973
    57   1 H    1.002 --    27 C    0.972
    58   1 H    1.005 --    29 C    0.972
    59   1 H    0.998 --    30 C    0.975
    60   1 H    1.003 --    35 C    0.971
    61   1 H    1.004 --    37 C    0.981
    62   1 H    1.004 --    37 C    0.984
    63   1 H    1.006 --    37 C    0.971
    64   1 H    1.000 --    38 C    0.972
    65   1 H    1.006 --    40 C    0.971
    66   1 H    1.004 --    40 C    0.982
    67   1 H    1.004 --    40 C    0.983
    68   1 H    1.002 --    41 C    0.972
    69  26 Fe   3.234 --   100 N    0.681    75 N    0.678    80 N    0.675
                           101 N    0.673
    70   6 C    3.938 --    99 C    1.364    71 C    1.362   110 H    0.970
    71   6 C    3.925 --    70 C    1.362    75 N    1.211    72 C    1.174
    72   6 C    3.959 --    73 C    1.648    71 C    1.174   111 H    0.975
    73   6 C    3.962 --    72 C    1.648    74 C    1.175   112 H    0.972
    74   6 C    3.921 --    76 C    1.318    75 N    1.220    73 C    1.175
    75   7 N    3.390 --    74 C    1.220    71 C    1.211    69 Fe   0.678
    76   6 C    3.942 --    77 C    1.330    74 C    1.318   102 C    1.025
    77   6 C    3.916 --    76 C    1.330    80 N    1.202    78 C    1.180
    78   6 C    3.959 --    79 C    1.639    77 C    1.180   113 H    0.973
    79   6 C    3.960 --    78 C    1.639    81 C    1.187   114 H    0.973
    80   7 N    3.392 --    81 C    1.238    77 C    1.202    69 Fe   0.675
    81   6 C    3.907 --    82 C    1.261    80 N    1.238    79 C    1.187
    82   6 C    3.944 --    81 C    1.261    83 C    1.260   148 C    1.185
    83   6 C    3.907 --    82 C    1.260   101 N    1.240    84 C    1.187
    84   6 C    3.960 --    85 C    1.640    83 C    1.187   115 H    0.973
    85   6 C    3.959 --    84 C    1.640    86 C    1.180   116 H    0.973
    86   6 C    3.916 --    87 C    1.332   101 N    1.201    85 C    1.180
    87   6 C    3.941 --    86 C    1.332    96 C    1.319    88 C    1.021
    88   6 C    3.988 --    89 C    1.403    95 C    1.393    87 C    1.021
                            92 C    0.104
    89   6 C    3.986 --    90 C    1.411    88 C    1.403   117 H    0.972
                            93 C    0.104
    90   6 C    3.988 --    92 C    1.422    89 C    1.411    91 C    1.020
                            95 C    0.103
    91   6 C    3.995 --    90 C    1.020   118 H    0.984   120 H    0.981
                           119 H    0.971
    92   6 C    3.989 --    90 C    1.422    93 C    1.410   121 H    0.972
                            88 C    0.104
    93   6 C    3.988 --    95 C    1.422    92 C    1.410    94 C    1.020
                            89 C    0.104
    94   6 C    3.995 --    93 C    1.020   122 H    0.985   123 H    0.979
                           124 H    0.972
    95   6 C    3.987 --    93 C    1.422    88 C    1.393   125 H    0.972
                            90 C    0.103
    96   6 C    3.920 --    87 C    1.319   100 N    1.221    97 C    1.175
    97   6 C    3.962 --    98 C    1.650    96 C    1.175   126 H    0.973
    98   6 C    3.959 --    97 C    1.650    99 C    1.173   127 H    0.975
    99   6 C    3.925 --    70 C    1.364   100 N    1.210    98 C    1.173
   100   7 N    3.391 --    96 C    1.221    99 C    1.210    69 Fe   0.681
   101   7 N    3.391 --    83 C    1.240    86 C    1.201    69 Fe   0.673
   102   6 C    3.988 --   109 C    1.397   103 C    1.395    76 C    1.025
                           106 C    0.103
   103   6 C    3.986 --   104 C    1.418   102 C    1.395   128 H    0.972
                           107 C    0.103
   104   6 C    3.988 --   103 C    1.418   106 C    1.414   105 C    1.020
                           109 C    0.103
   105   6 C    3.995 --   104 C    1.020   130 H    0.984   129 H    0.982
                           131 H    0.971
   106   6 C    3.988 --   107 C    1.416   104 C    1.414   132 H    0.972
                           102 C    0.103
   107   6 C    3.988 --   106 C    1.416   109 C    1.416   108 C    1.020
                           103 C    0.103
   108   6 C    3.995 --   107 C    1.020   135 H    0.983   134 H    0.983
                           133 H    0.971
   109   6 C    3.986 --   107 C    1.416   102 C    1.397   136 H    0.972
                           104 C    0.103
   110   1 H    1.001 --    70 C    0.970
   111   1 H    0.998 --    72 C    0.975
   112   1 H    1.005 --    73 C    0.972
   113   1 H    1.005 --    78 C    0.973
   114   1 H    1.002 --    79 C    0.973
   115   1 H    1.002 --    84 C    0.973
   116   1 H    1.005 --    85 C    0.973
   117   1 H    1.002 --    89 C    0.972
   118   1 H    1.004 --    91 C    0.984
   119   1 H    1.006 --    91 C    0.971
   120   1 H    1.004 --    91 C    0.981
   121   1 H    1.000 --    92 C    0.972
   122   1 H    1.004 --    94 C    0.985
   123   1 H    1.005 --    94 C    0.979
   124   1 H    1.006 --    94 C    0.972
   125   1 H    1.002 --    95 C    0.972
   126   1 H    1.005 --    97 C    0.973
   127   1 H    0.998 --    98 C    0.975
   128   1 H    1.003 --   103 C    0.972
   129   1 H    1.004 --   105 C    0.982
   130   1 H    1.004 --   105 C    0.984
   131   1 H    1.006 --   105 C    0.971
   132   1 H    1.000 --   106 C    0.972
   133   1 H    1.006 --   108 C    0.971
   134   1 H    1.004 --   108 C    0.983
   135   1 H    1.004 --   108 C    0.983
   136   1 H    1.002 --   109 C    0.972
   137   6 C    3.914 --   138 C    2.333   141 C    1.358   140 C    0.186
   138   6 C    3.913 --   137 C    2.333   139 C    1.357   142 C    0.186
   139   6 C    3.921 --   140 C    2.416   138 C    1.357
   140   6 C    3.878 --   139 C    2.416    14 C    1.209   137 C    0.186
   141   6 C    3.919 --   142 C    2.414   137 C    1.358
   142   6 C    3.878 --   141 C    2.414   150 C    1.212   138 C    0.186
   143   6 C    3.915 --   144 C    2.364   147 C    1.333   146 C    0.187
   144   6 C    3.918 --   143 C    2.364   145 C    1.335   148 C    0.188
   145   6 C    3.923 --   146 C    2.443   144 C    1.335
   146   6 C    3.882 --   145 C    2.443   162 C    1.191   143 C    0.187
   147   6 C    3.929 --   148 C    2.447   143 C    1.333
   148   6 C    3.881 --   147 C    2.447    82 C    1.185   144 C    0.188
   149  26 Fe   3.118 --   160 N    0.660   180 N    0.659   181 N    0.654
                           155 N    0.653
   150   6 C    3.911 --   151 C    1.245   179 C    1.244   142 C    1.212
   151   6 C    3.905 --   155 N    1.247   150 C    1.245   152 C    1.191
   152   6 C    3.959 --   153 C    1.633   151 C    1.191   190 H    0.974
   153   6 C    3.958 --   152 C    1.633   154 C    1.183   191 H    0.973
   154   6 C    3.915 --   156 C    1.325   155 N    1.202   153 C    1.183
   155   7 N    3.370 --   151 C    1.247   154 C    1.202   149 Fe   0.653
   156   6 C    3.920 --   154 C    1.325   157 C    1.319   182 C    1.028
   157   6 C    3.914 --   156 C    1.319   160 N    1.207   158 C    1.183
   158   6 C    3.959 --   159 C    1.634   157 C    1.183   192 H    0.973
   159   6 C    3.959 --   158 C    1.634   161 C    1.190   193 H    0.973
   160   7 N    3.375 --   161 C    1.240   157 C    1.207   149 Fe   0.660
   161   6 C    3.907 --   162 C    1.255   160 N    1.240   159 C    1.190
   162   6 C    3.915 --   163 C    1.256   161 C    1.255   146 C    1.191
   163   6 C    3.907 --   162 C    1.256   181 N    1.238   164 C    1.191
   164   6 C    3.959 --   165 C    1.633   163 C    1.191   194 H    0.973
   165   6 C    3.960 --   164 C    1.633   166 C    1.184   195 H    0.973
   166   6 C    3.914 --   167 C    1.316   181 N    1.209   165 C    1.184
   167   6 C    3.920 --   176 C    1.328   166 C    1.316   168 C    1.028
   168   6 C    3.988 --   169 C    1.396   175 C    1.393   167 C    1.028
                           172 C    0.102
   169   6 C    3.986 --   170 C    1.415   168 C    1.396   196 H    0.972
                           173 C    0.103
   170   6 C    3.988 --   172 C    1.417   169 C    1.415   171 C    1.020
                           175 C    0.103
   171   6 C    3.995 --   170 C    1.020   197 H    0.983   199 H    0.982
                           198 H    0.971
   172   6 C    3.988 --   170 C    1.417   173 C    1.413   200 H    0.972
                           168 C    0.102
   173   6 C    3.988 --   175 C    1.419   172 C    1.413   174 C    1.020
                           169 C    0.103
   174   6 C    3.995 --   173 C    1.020   201 H    0.984   202 H    0.981
                           203 H    0.971
   175   6 C    3.986 --   173 C    1.419   168 C    1.393   204 H    0.972
                           170 C    0.103
   176   6 C    3.915 --   167 C    1.328   180 N    1.200   177 C    1.183
   177   6 C    3.958 --   178 C    1.634   176 C    1.183   205 H    0.973
   178   6 C    3.959 --   177 C    1.634   179 C    1.191   206 H    0.974
   179   6 C    3.904 --   180 N    1.249   150 C    1.244   178 C    1.191
   180   7 N    3.373 --   179 C    1.249   176 C    1.200   149 Fe   0.659
   181   7 N    3.372 --   163 C    1.238   166 C    1.209   149 Fe   0.654
   182   6 C    3.988 --   183 C    1.398   189 C    1.392   156 C    1.028
                           186 C    0.102
   183   6 C    3.986 --   184 C    1.414   182 C    1.398   207 H    0.972
                           187 C    0.104
   184   6 C    3.988 --   186 C    1.418   183 C    1.414   185 C    1.020
                           189 C    0.103
   185   6 C    3.995 --   184 C    1.020   208 H    0.984   210 H    0.981
                           209 H    0.971
   186   6 C    3.988 --   184 C    1.418   187 C    1.411   211 H    0.972
                           182 C    0.102
   187   6 C    3.988 --   189 C    1.420   186 C    1.411   188 C    1.020
                           183 C    0.104
   188   6 C    3.995 --   187 C    1.020   213 H    0.984   212 H    0.981
                           214 H    0.971
   189   6 C    3.986 --   187 C    1.420   182 C    1.392   215 H    0.972
                           184 C    0.103
   190   1 H    1.001 --   152 C    0.974
   191   1 H    1.005 --   153 C    0.973
   192   1 H    1.005 --   158 C    0.973
   193   1 H    1.001 --   159 C    0.973
   194   1 H    1.001 --   164 C    0.973
   195   1 H    1.005 --   165 C    0.973
   196   1 H    1.003 --   169 C    0.972
   197   1 H    1.004 --   171 C    0.983
   198   1 H    1.006 --   171 C    0.971
   199   1 H    1.004 --   171 C    0.982
   200   1 H    1.000 --   172 C    0.972
   201   1 H    1.004 --   174 C    0.984
   202   1 H    1.004 --   174 C    0.981
   203   1 H    1.006 --   174 C    0.971
   204   1 H    1.003 --   175 C    0.972
   205   1 H    1.005 --   177 C    0.973
   206   1 H    1.001 --   178 C    0.974
   207   1 H    1.003 --   183 C    0.972
   208   1 H    1.004 --   185 C    0.984
   209   1 H    1.006 --   185 C    0.971
   210   1 H    1.004 --   185 C    0.981
   211   1 H    1.000 --   186 C    0.972
   212   1 H    1.004 --   188 C    0.981
   213   1 H    1.004 --   188 C    0.984
   214   1 H    1.006 --   188 C    0.971
   215   1 H    1.003 --   189 C    0.972
 ---------------------------------------------------------------------------

           -------------------------------------------------
          | TOTAL ENERGY             -343.933457256161 Eh   |
          | GRADIENT NORM               0.000463316470 Eh/α |
          | HOMO-LUMO GAP               0.078303884802 eV   |
           -------------------------------------------------

 * finished run on 2022/07/29 at 18:58:35.268
