   * xtb version 6.5.1 (b24c23e) compiled by 'conda@728c89f4b128' on 2022-07-12
          program call               : xtb Co_Ph3OH_C4_3.xyz --gfn 1 --opt -T 48

   ID    Z sym.   atoms
    1   27 Co     1, 63, 133
    2    6 C      2-6, 8-11, 13, 15, 17-20, 22-27, 29-32, 34, 36, 38-42,
                  64-68, 70-73, 75, 77, 79-82, 84-89, 91-94, 96, 98, 100-104,
                  125-132, 134-138, 140-143, 145, 147, 149-152, 154-159,
                  161-164, 166, 168, 170-174
    3    7 N      7, 21, 28, 43, 69, 83, 90, 105, 139, 153, 160, 175
    4    8 O      12, 14, 16, 33, 35, 37, 74, 76, 78, 95, 97, 99, 144, 146,
                  148, 165, 167, 169
    5    1 H      44-62, 106-124, 176-193

          :  Hamiltonian                  GFN1-xTB          :
 * total energy  :  -382.4576013 Eh     change       -0.1279295E-07 Eh
 * total energy  :  -382.8727284 Eh     change       -0.4151271E+00 Eh
 * total energy  :  -383.0460704 Eh     change       -0.1733420E+00 Eh
 * total energy  :  -383.1479741 Eh     change       -0.1019037E+00 Eh
 * total energy  :  -383.2168992 Eh     change       -0.6892508E-01 Eh
 * total energy  :  -383.2551990 Eh     change       -0.3829976E-01 Eh
 * total energy  :  -383.2797690 Eh     change       -0.2457003E-01 Eh
 * total energy  :  -383.2948268 Eh     change       -0.1505784E-01 Eh
 * total energy  :  -383.3069708 Eh     change       -0.1214399E-01 Eh
 * total energy  :  -383.3170336 Eh     change       -0.1006273E-01 Eh
 * total energy  :  -383.3757487 Eh     change       -0.2526829E-04 Eh
 * total energy  :  -383.3757732 Eh     change       -0.2449169E-04 Eh
 * total energy  :  -383.3757978 Eh     change       -0.2458127E-04 Eh
 * total energy  :  -383.3758223 Eh     change       -0.2446989E-04 Eh
 * total energy  :  -383.3758428 Eh     change       -0.2056341E-04 Eh
 * total energy  :  -383.3758558 Eh     change       -0.1296767E-04 Eh
 * total energy  :  -383.3758641 Eh     change       -0.8242610E-05 Eh
 * total energy  :  -383.3758700 Eh     change       -0.5969169E-05 Eh
 * total energy  :  -383.3758725 Eh     change       -0.2476048E-05 Eh
   *** GEOMETRY OPTIMIZATION CONVERGED AFTER 94 ITERATIONS ***

 final structure:
================
193
 xtb: 6.5.1 (b24c23e)
Co          33.35457894915982        0.01643400496163       -0.00307632569082
C           29.98495292674784        0.04476321036515       -0.01428964864718
C           30.64986976423788        1.22589644974470       -0.26608289981973
C           29.99433210776775        2.46944325725646       -0.53523343586713
C           30.95433252489679        3.42366169259156       -0.52815964130761
C           32.19674208630600        2.76161063307128       -0.25449917840314
N           32.00482506025379        1.40769285705798       -0.14729276666137
C           33.37782751057284        3.42237773780827        0.05830919283706
C           33.38505349769122        4.90624515663090        0.08383597214332
C           33.19416026954366        5.62532888289934       -1.09539436066947
C           33.20435505974459        7.01532288363716       -1.07199729506230
O           33.02765005427056        7.72565816180504       -2.21253309254975
C           33.39790125285730        7.68896139047228        0.13511298661658
O           33.39959597015110        9.05928568414084        0.12779969848630
C           33.58345442488577        6.96927688411150        1.31264109078985
O           33.76229120350084        7.69979774671577        2.45788545288020
C           33.58163723352072        5.57981187230270        1.29164002736284
C           34.54462313344403        2.73719245693630        0.36082418867745
C           35.78596947281495        3.36920043598063        0.69422685903830
C           36.72955481527037        2.39723113535396        0.70898855784478
N           34.72442286140874        1.37990789224013        0.21311699882162
C           36.06544982425073        1.17740885937550        0.37401189575611
C           36.74222031790084       -0.01037619466026        0.08069243793188
C           36.06188182485140       -1.18371406549180       -0.25824865894136
C           36.71610893300969       -2.39788041020172       -0.63095118925855
C           35.75451908007270       -3.34948988672305       -0.70590098502216
C           34.51745588517606       -2.71501906197401       -0.36122859658159
N           34.71263883682279       -1.36720498569002       -0.15676056600536
C           33.32641811665874       -3.38981152584036       -0.14071579684322
C           33.30633603758891       -4.86880452100079       -0.21608460459204
C           34.13444803025804       -5.62685108391349        0.61241952935628
C           34.10698383844308       -7.01476372786903        0.54443085154570
O           34.90021093781581       -7.76063482374313        1.35155030638479
C           33.25593092266478       -7.65015829624820       -0.36140977894417
O           33.25257428777784       -9.01930936485670       -0.40890032267667
C           32.43295927687787       -6.89331897176252       -1.19180155065230
O           31.62877320440364       -7.58717978087394       -2.05751831315595
C           32.45088267693619       -5.50641329738573       -1.11948485909114
C           32.14748813111448       -2.71360937697863        0.15251470768701
C           30.90315444145871       -3.35459843300826        0.46239985616683
C           29.96006046638075       -2.38316676602636        0.49832770565534
C           30.63100032333649       -1.15029036018366        0.22008782147521
N           31.98031560196533       -1.35551570518022        0.07413469232873
H           28.90135577785289        0.05541523956799       -0.00454098807306
H           28.93259570052606        2.57965876838451       -0.68886161861871
H           30.84169353735241        4.48623153085614       -0.66970649341658
H           33.05576919969116        5.11231913690676       -2.03827630839723
H           33.06785947263668        8.67103716257522       -1.99247384804226
H           33.54458467800330        9.36285220790041        1.03808192311277
H           33.87976203652123        7.11942737958899        3.22135528200305
H           33.71311000432028        5.02562180985478        2.21350896058483
H           35.91318933894041        4.42494306502859        0.87027108453908
H           37.78631097433854        2.48571855289342        0.90359833762298
H           37.77587955291395       -2.49413125830983       -0.80409369835252
H           35.86274950088270       -4.38991394332853       -0.96546981609737
H           34.78684082111263       -5.14560806724470        1.32949000620035
H           34.73610284857075       -8.69849254493792        1.15884121731665
H           32.61044513319304       -9.29313052149671       -1.08307014401458
H           31.09913099150899       -6.98275628115354       -2.59383967676984
H           31.81758799794205       -4.92388158207867       -1.77820167126399
H           30.78025978597136       -4.41247672087187        0.62961809793408
H           28.90205640951970       -2.47464457418879        0.68633253745247
Co          60.10018217858991       -0.05759773689216        0.05217010595385
C           63.47306778560053       -0.09334601530521        0.12808230896078
C           62.81663771977459       -1.24339220766693       -0.25438030058176
C           63.48411137713126       -2.45359990787217       -0.62572824272899
C           62.52422832211516       -3.39624086306380       -0.77286937395884
C           61.27063622332981       -2.76101919656392       -0.48668750121121
N           61.45772573689231       -1.42962763496443       -0.21498116534037
C           60.07584780796253       -3.44865808471052       -0.31750309495703
C           60.06917818666217       -4.92314280460867       -0.48599168029867
C           60.32209403531744       -5.48326000359654       -1.73762236993791
C           60.31477248536225       -6.86437368735164       -1.89624514739674
O           60.55282003690008       -7.42054878508033       -3.10881805399042
C           60.06123199022679       -7.68889434071900       -0.79880243540922
O           60.06392038799706       -9.04656688092646       -0.98459397148013
C           59.81395460308816       -7.12811749788810        0.45150538237486
O           59.57896307551186       -8.00087538203339        1.48134503077177
C           59.81369541457849       -5.74785782560640        0.61217667110760
C           58.89800574256058       -2.80354882153434        0.02669537306679
C           57.64838105301006       -3.47181244244825        0.23476514992027
C           56.70720959755386       -2.50823618948120        0.37670371028737
N           58.72380427827677       -1.43815581264162        0.07073592711493
C           57.38045646377719       -1.25573438377878        0.23803514567190
C           56.70742992529014       -0.03641222326066        0.11793853127522
C           57.38933660667092        1.17086529938467       -0.06021514779450
C           56.73274107941634        2.42137287814560       -0.27519270559870
C           57.69578257283915        3.37376012028300       -0.25350283141118
C           58.93568401514217        2.70154085441381       -0.00361407988335
N           58.73986561057310        1.33896690807448        0.04794999809192
C           60.13041370927157        3.34863428386240        0.26985478535016
C           60.15308418734598        4.82796573517948        0.34787213642781
C           59.35108153609136        5.49527881580612        1.27412534701486
C           59.38353885275674        6.88256051452063        1.35289181059275
O           58.61628419488936        7.53981840661260        2.25611185975015
C           60.21323865631656        7.60853610075347        0.49659817626181
O           60.22241488140314        8.97471413488163        0.59501955854968
C           61.00997027078525        6.94229085364320       -0.43139055355885
O           61.79438324492164        7.72229102054374       -1.23984231970135
C           60.98748299479691        5.55542946626585       -0.50568044753030
C           61.31018352353526        2.64675186418618        0.48856463232459
C           62.55211139121248        3.25712214625611        0.86283335583418
C           63.49233870311404        2.28313148403186        0.83179839960322
C           62.82241376983235        1.07992303682948        0.44326228086350
N           61.47593206649515        1.30058347655461        0.29274269145039
H           64.55583506362615       -0.10884526403824        0.17072458111592
H           64.55199609842495       -2.55204018340526       -0.73953502721269
H           62.64278537836927       -4.43700031993955       -1.02678352361049
H           60.50748221761298       -4.85224435178803       -2.59716414184820
H           60.50224802438662       -8.38633499451480       -3.01690962541672
H           59.87129628997744       -9.46533481277393       -0.13061072971736
H           59.41875483610002       -7.52397516567426        2.30621156485921
H           59.63521085172751       -5.31829857159953        1.59089421292239
H           57.51494240175828       -4.54121474943624        0.24850274561699
H           55.64659329650208       -2.61911213768591        0.53521854445209
H           55.67088379701003        2.53827682210245       -0.42044612429789
H           57.58708810989009        4.43754963524412       -0.38775408369851
H           58.71594982891257        4.94181287186420        1.95359861562355
H           58.77751931702371        8.49279549751864        2.15822420867794
H           60.84590090926569        9.31813872966145       -0.06466714032336
H           62.30698232923872        7.17731062643406       -1.85116552962626
H           61.60122201435847        5.04420573905089       -1.23802893995729
H           62.67486584655448        4.29753965842223        1.11690572030664
H           64.54810645183723        2.35515816328661        1.03968405037207
C           39.36653655380848       -0.02738898453139        0.12599136200242
C           38.14351607204491       -0.02010107498270        0.10784687409628
C           40.71376695667725       -0.03093196943162        0.13306915600348
C           41.93728161224697       -0.03103869208769        0.12896052175660
C           52.73546120159995       -0.01254601066729        0.16372023326325
C           51.51201622706538       -0.00834864923339        0.15409994803281
C           54.08274686434365       -0.01686471555325        0.16104802745330
C           55.30592364209516       -0.02679291344541        0.14529278962363
Co          46.72467508182606       -0.01636568889413        0.09620122942196
C           43.33730260717185       -0.02639700116563        0.10759738126928
C           44.02220883264913        1.13614529360372        0.47952122675206
C           43.38034390244052        2.33061936394388        0.92545813344306
C           44.33028863953076        3.29936875552833        0.93887418372240
C           45.54677698673378        2.69029690573717        0.49576890734363
N           45.35718796997183        1.34623199787195        0.28107754376080
C           46.71475459498711        3.38229971390582        0.19593327109466
C           46.70253945859532        4.86031008856715        0.23843387268537
C           47.59811910223495        5.55271991370667        1.05543327199105
C           47.59366153313288        6.94355848908304        1.10605509339008
O           48.45105543719879        7.62807535059390        1.90625322928741
C           46.68908035247865        7.66361579853253        0.31802485907845
O           46.66634475649457        9.02045895048599        0.33805614602456
C           45.79763146158444        6.96345665701971       -0.50012690819765
O           44.94221703241985        7.72915587643638       -1.24892742203398
C           45.79094429264805        5.57679457624432       -0.54075116292041
C           47.89227371500568        2.72155255326442       -0.12968918049487
C           49.12153985273940        3.37090788178836       -0.47100039314494
C           50.08277661525678        2.41415005543696       -0.46716760582615
N           48.08655958380718        1.36389587517190       -0.01411397381554
C           49.43318102236802        1.18363323803293       -0.14765657185758
C           50.11207637872932       -0.00974995358951        0.12544387699129
C           49.42569746579952       -1.20989745838079        0.34138830216249
C           50.06654631901930       -2.45334006489373        0.62818868066223
C           49.11753505998836       -3.41504455995459        0.50967118548662
C           47.90178260889305       -2.75229988408456        0.14793226740195
N           48.09128260473083       -1.39151519029771        0.11305610071246
C           46.73553232825739       -3.39837682826059       -0.24317956229666
C           46.74681627679806       -4.87160726342357       -0.39085769849676
C           47.64707861986825       -5.47459662505910       -1.27074434256459
C           47.64675175924527       -6.85583834910423       -1.42436917844609
O           48.50077155211178       -7.45212805184477       -2.28853848673572
C           46.75223924769505       -7.63639654337632       -0.68873083195622
O           46.78860211322403       -9.01123626882322       -0.86824815624854
C           45.88191369004461       -7.03871982388160        0.22114420957312
O           45.03291406649721       -7.79918623539322        0.96946503146122
C           45.86546666514172       -5.65507433344564        0.35541569668693
C           45.55876120255528       -2.70236402059225       -0.48495602625730
C           44.32989830270347       -3.30515879440887       -0.90477464366901
C           43.36852124951663       -2.35674436097773       -0.78347112468165
C           44.01736807109271       -1.17508515117691       -0.31238998816075
N           45.36399181919185       -1.37013238752208       -0.20036159025205
H           42.33553343797714        2.40684234644539        1.18040851898015
H           44.22554770991072        4.33347551514712        1.22441883400933
H           48.29275777522943        5.00480695767963        1.68204180785939
H           49.02615274926654        7.02713436469383        2.39797900772315
H           45.97569059243047        9.32223941461873       -0.27400819784955
H           44.36641219675946        7.17397801464854       -1.79067577041639
H           45.09967314537858        5.05775579790911       -1.19418599880130
H           49.22780808838643        4.42299008030898       -0.67943333317661
H           51.13880012443357        2.51832568970363       -0.65767951985459
H           51.11085210306905       -2.56245420803483        0.87282458468166
H           49.22181180422080       -4.47827865803196        0.65219786859381
H           48.32897853634265       -4.87614187007115       -1.86082814406706
H           48.35146037899327       -8.41190736155004       -2.25330244351060
H           45.89498475538773       -9.37596699096073       -0.91100777920839
H           45.32362402495463       -8.72212767881396        0.97458444798994
H           45.18669260901707       -5.20181474062321        1.06613250880600
H           44.22425081306793       -4.32460790075826       -1.23811886004622
H           42.31243949875909       -2.43702212953079       -0.98488476743335

          :  Hamiltonian                  GFN1-xTB          :
         :: total energy            -383.375872498375 Eh    ::
         :: gradient norm              0.000392395066 Eh/a0 ::
         :: HOMO-LUMO gap              0.012157661829 eV    ::
         :: SCC energy              -388.510119871628 Eh    ::
         :: repulsion energy           5.306659051432 Eh    ::

    * Orbital Energies and Occupations

         #    Occupation            Energy/Eh            Energy/eV
      -------------------------------------------------------------
         1        2.0000           -0.8140889             -22.1525
       ...           ...                  ...                  ...
       322        2.0000           -0.3935674             -10.7095
       323        2.0000           -0.3934043             -10.7051
       324        2.0000           -0.3933034             -10.7023
       325        1.9999           -0.3906338             -10.6297
       326        1.9999           -0.3906009             -10.6288
       327        1.9998           -0.3902666             -10.6197
       328        1.9998           -0.3902140             -10.6183
       329        1.9998           -0.3901780             -10.6173
       330        1.9998           -0.3901191             -10.6157
       331        1.9998           -0.3899467             -10.6110
       332        1.7516           -0.3831361             -10.4257
       333        1.1559           -0.3814760             -10.3805
       334        1.1534           -0.3814707             -10.3803 (HOMO)
       335        0.9402           -0.3810239             -10.3682 (LUMO)
       336                         -0.3440905              -9.3632
       337                         -0.3327871              -9.0556
       338                         -0.3300284              -8.9805
       339                         -0.3272879              -8.9060
       340                         -0.3270812              -8.9003
       341                         -0.3241049              -8.8193
       342                         -0.3044885              -8.2856
       343                         -0.2940791              -8.0023
       344                         -0.2924737              -7.9586
       345                         -0.2918122              -7.9406
       ...                                ...                  ...
       675                          1.5120938              41.1462
      -------------------------------------------------------------
                  HL-Gap            0.0004468 Eh            0.0122 eV

Wiberg/Mayer (AO) data.
largest (>0.10) Wiberg bond orders for each atom

     #   Z sym  total        # sym  WBO       # sym  WBO       # sym  WBO
 ---------------------------------------------------------------------------
     1  27 Co   3.028 --     7 N    0.636    43 N    0.634    28 N    0.630
                            21 N    0.630
     2   6 C    3.926 --     3 C    1.365    42 C    1.364    44 H    0.970
     3   6 C    3.925 --     2 C    1.365     7 N    1.202     4 C    1.174
     4   6 C    3.960 --     5 C    1.650     3 C    1.174    45 H    0.975
     5   6 C    3.963 --     4 C    1.650     6 C    1.176    46 H    0.973
     6   6 C    3.919 --     8 C    1.320     7 N    1.213     5 C    1.176
     7   7 N    3.344 --     6 C    1.213     3 C    1.202     1 Co   0.636
     8   6 C    3.929 --    18 C    1.336     6 C    1.320     9 C    1.021
     9   6 C    3.988 --    10 C    1.401    17 C    1.389     8 C    1.021
    10   6 C    3.977 --     9 C    1.401    11 C    1.379    47 H    0.970
    11   6 C    3.917 --    10 C    1.379    13 C    1.324    12 O    1.053
    12   8 O    2.049 --    11 C    1.053    48 H    0.847
    13   6 C    3.905 --    15 C    1.341    11 C    1.324    14 O    1.021
    14   8 O    2.021 --    13 C    1.021    49 H    0.846
    15   6 C    3.905 --    17 C    1.383    13 C    1.341    16 O    1.014
    16   8 O    2.025 --    15 C    1.014    50 H    0.861
    17   6 C    3.973 --     9 C    1.389    15 C    1.383    51 H    0.970
    18   6 C    3.917 --     8 C    1.336    21 N    1.192    19 C    1.181
    19   6 C    3.958 --    20 C    1.638    18 C    1.181    52 H    0.973
    20   6 C    3.962 --    19 C    1.638    22 C    1.189    53 H    0.974
    21   7 N    3.344 --    22 C    1.235    18 C    1.192     1 Co   0.630
    22   6 C    3.904 --    23 C    1.255    21 N    1.235    20 C    1.189
    23   6 C    3.929 --    22 C    1.255    24 C    1.255   126 C    1.197
    24   6 C    3.904 --    23 C    1.255    28 N    1.235    25 C    1.190
    25   6 C    3.960 --    26 C    1.637    24 C    1.190    54 H    0.974
    26   6 C    3.958 --    25 C    1.637    27 C    1.181    55 H    0.973
    27   6 C    3.917 --    29 C    1.335    28 N    1.191    26 C    1.181
    28   7 N    3.344 --    24 C    1.235    27 C    1.191     1 Co   0.630
    29   6 C    3.930 --    27 C    1.335    39 C    1.312    30 C    1.032
    30   6 C    3.988 --    31 C    1.396    38 C    1.383    29 C    1.032
    31   6 C    3.977 --    30 C    1.396    32 C    1.381    56 H    0.970
    32   6 C    3.917 --    31 C    1.381    34 C    1.323    33 O    1.053
    33   8 O    2.048 --    32 C    1.053    57 H    0.848
    34   6 C    3.903 --    36 C    1.339    32 C    1.323    35 O    1.021
    35   8 O    2.021 --    34 C    1.021    58 H    0.846
    36   6 C    3.905 --    38 C    1.386    34 C    1.339    37 O    1.014
    37   8 O    2.025 --    36 C    1.014    59 H    0.861
    38   6 C    3.971 --    36 C    1.386    30 C    1.383    60 H    0.969
    39   6 C    3.919 --    29 C    1.312    43 N    1.217    40 C    1.178
    40   6 C    3.963 --    41 C    1.645    39 C    1.178    61 H    0.973
    41   6 C    3.959 --    40 C    1.645    42 C    1.176    62 H    0.975
    42   6 C    3.925 --     2 C    1.364    43 N    1.200    41 C    1.176
    43   7 N    3.343 --    39 C    1.217    42 C    1.200     1 Co   0.634
    44   1 H    1.000 --     2 C    0.970
    45   1 H    0.998 --     4 C    0.975
    46   1 H    1.005 --     5 C    0.973
    47   1 H    0.999 --    10 C    0.970
    48   1 H    0.878 --    12 O    0.847
    49   1 H    0.876 --    14 O    0.846
    50   1 H    0.881 --    16 O    0.861
    51   1 H    1.000 --    17 C    0.970
    52   1 H    1.005 --    19 C    0.973
    53   1 H    1.002 --    20 C    0.974
    54   1 H    1.001 --    25 C    0.974
    55   1 H    1.005 --    26 C    0.973
    56   1 H    1.000 --    31 C    0.970
    57   1 H    0.878 --    33 O    0.848
    58   1 H    0.876 --    35 O    0.846
    59   1 H    0.881 --    37 O    0.861
    60   1 H    1.001 --    38 C    0.969
    61   1 H    1.005 --    40 C    0.973
    62   1 H    0.998 --    41 C    0.975
    63  27 Co   3.014 --    69 N    0.634   105 N    0.633    90 N    0.629
                            83 N    0.629
    64   6 C    3.925 --   104 C    1.365    65 C    1.364   106 H    0.970
    65   6 C    3.925 --    64 C    1.364    69 N    1.203    66 C    1.174
    66   6 C    3.960 --    67 C    1.650    65 C    1.174   107 H    0.975
    67   6 C    3.963 --    66 C    1.650    68 C    1.176   108 H    0.973
    68   6 C    3.919 --    70 C    1.319    69 N    1.214    67 C    1.176
    69   7 N    3.343 --    68 C    1.214    65 C    1.203    63 Co   0.634
    70   6 C    3.929 --    80 C    1.336    68 C    1.319    71 C    1.022
    71   6 C    3.988 --    72 C    1.401    79 C    1.388    70 C    1.022
    72   6 C    3.977 --    71 C    1.401    73 C    1.379   109 H    0.970
    73   6 C    3.917 --    72 C    1.379    75 C    1.324    74 O    1.053
    74   8 O    2.049 --    73 C    1.053   110 H    0.847
    75   6 C    3.904 --    77 C    1.341    73 C    1.324    76 O    1.021
    76   8 O    2.021 --    75 C    1.021   111 H    0.846
    77   6 C    3.905 --    79 C    1.383    75 C    1.341    78 O    1.014
    78   8 O    2.025 --    77 C    1.014   112 H    0.861
    79   6 C    3.973 --    71 C    1.388    77 C    1.383   113 H    0.969
    80   6 C    3.917 --    70 C    1.336    83 N    1.193    81 C    1.181
    81   6 C    3.958 --    82 C    1.638    80 C    1.181   114 H    0.973
    82   6 C    3.962 --    81 C    1.638    84 C    1.189   115 H    0.974
    83   7 N    3.344 --    84 C    1.235    80 C    1.193    63 Co   0.629
    84   6 C    3.904 --    85 C    1.256    83 N    1.235    82 C    1.189
    85   6 C    3.928 --    84 C    1.256    86 C    1.254   132 C    1.197
    86   6 C    3.904 --    85 C    1.254    90 N    1.237    87 C    1.190
    87   6 C    3.962 --    88 C    1.638    86 C    1.190   116 H    0.974
    88   6 C    3.958 --    87 C    1.638    89 C    1.180   117 H    0.973
    89   6 C    3.917 --    91 C    1.337    90 N    1.190    88 C    1.180
    90   7 N    3.343 --    86 C    1.237    89 C    1.190    63 Co   0.629
    91   6 C    3.929 --    89 C    1.337   101 C    1.311    92 C    1.031
    92   6 C    3.988 --    93 C    1.397   100 C    1.384    91 C    1.031
    93   6 C    3.977 --    92 C    1.397    94 C    1.381   118 H    0.970
    94   6 C    3.918 --    93 C    1.381    96 C    1.323    95 O    1.053
    95   8 O    2.049 --    94 C    1.053   119 H    0.847
    96   6 C    3.903 --    98 C    1.339    94 C    1.323    97 O    1.022
    97   8 O    2.022 --    96 C    1.022   120 H    0.846
    98   6 C    3.905 --   100 C    1.386    96 C    1.339    99 O    1.014
    99   8 O    2.025 --    98 C    1.014   121 H    0.861
   100   6 C    3.973 --    98 C    1.386    92 C    1.384   122 H    0.969
   101   6 C    3.919 --    91 C    1.311   105 N    1.218   102 C    1.179
   102   6 C    3.963 --   103 C    1.646   101 C    1.179   123 H    0.973
   103   6 C    3.959 --   102 C    1.646   104 C    1.176   124 H    0.975
   104   6 C    3.925 --    64 C    1.365   105 N    1.200   103 C    1.176
   105   7 N    3.343 --   101 C    1.218   104 C    1.200    63 Co   0.633
   106   1 H    1.000 --    64 C    0.970
   107   1 H    0.998 --    66 C    0.975
   108   1 H    1.005 --    67 C    0.973
   109   1 H    0.999 --    72 C    0.970
   110   1 H    0.878 --    74 O    0.847
   111   1 H    0.876 --    76 O    0.846
   112   1 H    0.881 --    78 O    0.861
   113   1 H    1.000 --    79 C    0.969
   114   1 H    1.005 --    81 C    0.973
   115   1 H    1.002 --    82 C    0.974
   116   1 H    1.001 --    87 C    0.974
   117   1 H    1.005 --    88 C    0.973
   118   1 H    1.000 --    93 C    0.970
   119   1 H    0.877 --    95 O    0.847
   120   1 H    0.876 --    97 O    0.846
   121   1 H    0.881 --    99 O    0.861
   122   1 H    1.001 --   100 C    0.969
   123   1 H    1.005 --   102 C    0.973
   124   1 H    0.998 --   103 C    0.975
   125   6 C    3.929 --   126 C    2.458   127 C    1.321
   126   6 C    3.915 --   125 C    2.458    23 C    1.197   128 C    0.197
   127   6 C    3.923 --   128 C    2.455   125 C    1.321
   128   6 C    3.921 --   127 C    2.455   134 C    1.203   126 C    0.197
   129   6 C    3.923 --   130 C    2.454   131 C    1.321
   130   6 C    3.921 --   129 C    2.454   155 C    1.203   132 C    0.197
   131   6 C    3.929 --   132 C    2.458   129 C    1.321
   132   6 C    3.915 --   131 C    2.458    85 C    1.197   130 C    0.197
   133  27 Co   3.056 --   175 N    0.630   153 N    0.630   160 N    0.625
                           139 N    0.624
   134   6 C    3.917 --   174 C    1.251   135 C    1.250   128 C    1.203
   135   6 C    3.906 --   134 C    1.250   139 N    1.233   136 C    1.196
   136   6 C    3.958 --   137 C    1.627   135 C    1.196   176 H    0.974
   137   6 C    3.960 --   136 C    1.627   138 C    1.189   177 H    0.973
   138   6 C    3.915 --   140 C    1.315   139 N    1.200   137 C    1.189
   139   7 N    3.336 --   135 C    1.233   138 C    1.200   133 Co   0.624
   140   6 C    3.925 --   150 C    1.324   138 C    1.315   141 C    1.038
   141   6 C    3.987 --   142 C    1.387   149 C    1.379   140 C    1.038
   142   6 C    3.972 --   141 C    1.387   143 C    1.383   178 H    0.969
   143   6 C    3.915 --   142 C    1.383   145 C    1.318   144 O    1.045
   144   8 O    2.053 --   143 C    1.045   179 H    0.866
   145   6 C    3.912 --   147 C    1.325   143 C    1.318   146 O    1.054
   146   8 O    2.049 --   145 C    1.054   180 H    0.849
   147   6 C    3.904 --   149 C    1.393   145 C    1.325   148 O    1.014
   148   8 O    2.027 --   147 C    1.014   181 H    0.860
   149   6 C    3.972 --   147 C    1.393   141 C    1.379   182 H    0.969
   150   6 C    3.915 --   140 C    1.324   153 N    1.194   151 C    1.186
   151   6 C    3.960 --   152 C    1.630   150 C    1.186   183 H    0.973
   152   6 C    3.959 --   151 C    1.630   154 C    1.195   184 H    0.974
   153   7 N    3.336 --   154 C    1.237   150 C    1.194   133 Co   0.630
   154   6 C    3.906 --   155 C    1.249   153 N    1.237   152 C    1.195
   155   6 C    3.917 --   156 C    1.252   154 C    1.249   130 C    1.203
   156   6 C    3.905 --   155 C    1.252   160 N    1.232   157 C    1.194
   157   6 C    3.960 --   158 C    1.631   156 C    1.194   185 H    0.974
   158   6 C    3.960 --   157 C    1.631   159 C    1.186   186 H    0.973
   159   6 C    3.914 --   161 C    1.318   160 N    1.199   158 C    1.186
   160   7 N    3.337 --   156 C    1.232   159 C    1.199   133 Co   0.625
   161   6 C    3.924 --   171 C    1.325   159 C    1.318   162 C    1.033
   162   6 C    3.988 --   170 C    1.394   163 C    1.394   161 C    1.033
   163   6 C    3.974 --   162 C    1.394   164 C    1.378   187 H    0.970
   164   6 C    3.917 --   163 C    1.378   166 C    1.331   165 O    1.057
   165   8 O    2.052 --   164 C    1.057   188 H    0.847
   166   6 C    3.887 --   168 C    1.346   164 C    1.331   167 O    0.981
   167   8 O    1.984 --   166 C    0.981   189 H    0.863
   168   6 C    3.910 --   170 C    1.380   166 C    1.346   169 O    1.029
   169   8 O    2.032 --   168 C    1.029   190 H    0.862
   170   6 C    3.975 --   162 C    1.394   168 C    1.380   191 H    0.969
   171   6 C    3.915 --   161 C    1.325   175 N    1.194   172 C    1.184
   172   6 C    3.960 --   173 C    1.633   171 C    1.184   192 H    0.973
   173   6 C    3.959 --   172 C    1.633   174 C    1.193   193 H    0.974
   174   6 C    3.906 --   134 C    1.251   175 N    1.236   173 C    1.193
   175   7 N    3.336 --   174 C    1.236   171 C    1.194   133 Co   0.630
   176   1 H    1.001 --   136 C    0.974
   177   1 H    1.005 --   137 C    0.973
   178   1 H    1.001 --   142 C    0.969
   179   1 H    0.886 --   144 O    0.866
   180   1 H    0.880 --   146 O    0.849
   181   1 H    0.881 --   148 O    0.860
   182   1 H    1.001 --   149 C    0.969
   183   1 H    1.005 --   151 C    0.973
   184   1 H    1.001 --   152 C    0.974
   185   1 H    1.001 --   157 C    0.974
   186   1 H    1.004 --   158 C    0.973
   187   1 H    1.000 --   163 C    0.970
   188   1 H    0.880 --   165 O    0.847
   189   1 H    0.883 --   167 O    0.863
   190   1 H    0.885 --   169 O    0.862
   191   1 H    1.000 --   170 C    0.969
   192   1 H    1.005 --   172 C    0.973
   193   1 H    1.001 --   173 C    0.974
 ---------------------------------------------------------------------------

           -------------------------------------------------
          | TOTAL ENERGY             -383.375872498375 Eh   |
          | GRADIENT NORM               0.000392395066 Eh/α |
          | HOMO-LUMO GAP               0.012157661829 eV   |
           -------------------------------------------------

 * finished run on 2022/07/30 at 03:46:26.208
