   * xtb version 6.5.1 (b24c23e) compiled by 'conda@728c89f4b128' on 2022-07-12
          program call               : xtb PhNO2_C8_3.xyz --gfn 1 --opt -T 48

   ID    Z sym.   atoms
    1    6 C      1-5, 7-11, 15-19, 21-26, 28-32, 36-41, 62-66, 68-72, 76-80,
                  82-87, 89-93, 97-102, 123-143, 145-149, 153-157, 159-164,
                  166-170, 174-179
    2    7 N      6, 12, 20, 27, 33, 42, 67, 73, 81, 88, 94, 103, 144, 150,
                  158, 165, 171, 180
    3    8 O      13, 14, 34, 35, 74, 75, 95, 96, 151, 152, 172, 173
    4    1 H      43-61, 104-122, 181-198

          :  Hamiltonian                  GFN1-xTB          :
 * total energy  :  -377.5407183 Eh     change       -0.7266294E-09 Eh
 * total energy  :  -378.7645234 Eh     change       -0.1223805E+01 Eh
 * total energy  :  -379.0442914 Eh     change       -0.2797680E+00 Eh
 * total energy  :  -379.1912988 Eh     change       -0.1470074E+00 Eh
 * total energy  :  -379.2894277 Eh     change       -0.9812895E-01 Eh
 * total energy  :  -379.3751438 Eh     change       -0.8571607E-01 Eh
 * total energy  :  -379.4354762 Eh     change       -0.6033239E-01 Eh
 * total energy  :  -379.4707572 Eh     change       -0.3528101E-01 Eh
 * total energy  :  -379.4971551 Eh     change       -0.2639788E-01 Eh
 * total energy  :  -379.5168299 Eh     change       -0.1967485E-01 Eh
 * total energy  :  -379.5905927 Eh     change       -0.3462010E-05 Eh
 * total energy  :  -379.5905647 Eh     change        0.2797163E-04 Eh
 * total energy  :  -379.5905945 Eh     change       -0.2982837E-04 Eh
 * total energy  :  -379.5905719 Eh     change        0.2260453E-04 Eh
 * total energy  :  -379.5905983 Eh     change       -0.2636963E-04 Eh
 * total energy  :  -379.5905968 Eh     change        0.1551080E-05 Eh
 * total energy  :  -379.5905925 Eh     change        0.4286541E-05 Eh
 * total energy  :  -379.5906042 Eh     change       -0.1171240E-04 Eh
 * total energy  :  -379.5906057 Eh     change       -0.1558369E-05 Eh
   *** GEOMETRY OPTIMIZATION CONVERGED AFTER 77 ITERATIONS ***

 final structure:
================
198
 xtb: 6.5.1 (b24c23e)
C           24.12365988952262       -0.12102381321133       -0.11817701538802
C           24.74357021127055       -1.32514376627232        0.18904661876618
C           24.10360430879406       -2.57189593009030        0.43805338448886
C           25.07155490918725       -3.49227102005547        0.72469876793933
C           26.33407825874021       -2.83456787175572        0.66901925786297
N           26.08636924414017       -1.53526556479874        0.33086710529544
C           27.60172470089400       -3.38834086922562        0.88499139023675
C           27.64633988859828       -4.81535569334643        1.27843138328084
C           28.33037810075081       -5.74520998365000        0.48876713617711
C           28.37622732359479       -7.07854520222748        0.85227433295218
C           27.73508915267244       -7.48700961387342        2.01851282830352
N           27.78205077283232       -8.88533747173402        2.40645034713625
O           28.39324176642102       -9.64128562125204        1.69539427485166
O           27.20635144750335       -9.20376773997211        3.41541028583379
C           27.04924775337931       -6.57790370577407        2.81909818746309
C           27.00586995382368       -5.24754598289502        2.44415353296601
C           28.81175026327661       -2.69986851401158        0.75811614764043
C           30.11144655130240       -3.27994592126640        1.04681606747481
C           31.02278988976109       -2.31726933377100        0.79774100284722
N           28.95400007437349       -1.40332160827320        0.37020233682829
C           30.27813426985812       -1.14803571291985        0.37183474438574
C           30.90529815478714        0.06182385836358        0.01100095136558
C           30.25976405761189        1.26057944065706       -0.34752073126355
C           30.89509196040975        2.47583347625561       -0.71577854227213
C           29.92116949405318        3.40445775212759       -0.95799768694403
C           28.65994229904314        2.78415806750311       -0.73796019615305
N           28.91611058747426        1.48734530031785       -0.38169946567784
C           27.39140370091592        3.35743836862139       -0.88672521597690
C           27.34846210194493        4.79508715773030       -1.23699675591408
C           26.72290788846010        5.22034097776851       -2.41343643373509
C           26.68236036138316        6.56269029985440       -2.74298631342379
C           27.26824243386623        7.49071709921124       -1.88648050936347
N           27.22704720017378        8.90149000828344       -2.22640886134203
O           26.67367843440092        9.21288650713524       -3.24990570313863
O           27.75009877863644        9.67424650294686       -1.46467592289026
C           27.89406075311770        7.08907473635112       -0.70960564248886
C           27.93385487080369        5.74390319480592       -0.39219675663243
C           26.17945525779039        2.67557292926328       -0.72863736283477
C           24.86726296517164        3.29483396188318       -0.84083515153946
C           23.96453671383928        2.31607949662792       -0.63220304796101
C           24.72342964136517        1.10407395327450       -0.37649649096775
N           26.05364335743829        1.36094082838034       -0.43268875191433
H           23.03923604660734       -0.14873439649071       -0.15115608637278
H           23.03821334230115       -2.73172382877091        0.39480314273409
H           24.92957881580817       -4.53775297573266        0.94517719761201
H           26.80500985730305       -0.83069668430278        0.20284594491311
H           28.81403857115586       -5.41739104954938       -0.42393790132874
H           28.89959170192284       -7.80650701341364        0.24412471685010
H           26.56239674892655       -6.92006071951192        3.72441772221720
H           26.48845782847350       -4.52809538465674        3.06813214305021
H           30.28222752135634       -4.28178449033743        1.40578660347771
H           32.09532626688585       -2.36500997160477        0.89587230474145
H           31.96204199474731        2.61165819353324       -0.78764981991558
H           30.06160778035792        4.42525197613938       -1.27376599443969
H           28.19879106141621        0.79848672192352       -0.18011229243547
H           26.28314077501329        4.48741200178180       -3.07963189613642
H           26.20583932418561        6.90049915641759       -3.65540413484351
H           28.33835227748342        7.83116375724130       -0.05722053052642
H           28.40533709755930        5.42078235088829        0.52866163931659
H           24.68580014820176        4.33897945781144       -1.03820379510869
H           22.88782490219830        2.37895351916485       -0.63315781610106
C           68.02862544453649        0.02949765356958       -0.16836745219052
C           67.41263768585104        1.22269139166658       -0.52248912911180
C           68.05668515969076        2.41847533993876       -0.94825273263061
C           67.09190715220359        3.35874574938841       -1.17462145623363
C           65.82729558953875        2.76961991412715       -0.88588700028859
N           66.07066379960753        1.48020027540731       -0.50902152229609
C           64.56161079435387        3.35943212732624       -0.98781537182653
C           64.52271134851719        4.78669907741180       -1.38114864355943
C           63.84468570591923        5.18389453343617       -2.53808566885503
C           63.80376350434250        6.51584981131194       -2.90734328649548
C           64.44386432044882        7.46144657407558       -2.11102530984710
N           64.40131019540958        8.86185366108849       -2.49189925990647
O           63.79511413978529        9.14982531510205       -3.49198282627040
O           64.97538895004404        9.64982913449869       -1.78451270824216
C           65.12429205883933        7.08754337726513       -0.95560532203395
C           65.16277664676502        5.75236949753164       -0.59772801723867
C           63.34902454957486        2.70706368595367       -0.74641932746735
C           62.05091099076613        3.35562813422661       -0.80432113706935
C           61.13643001765950        2.40478516180286       -0.52338886271423
N           63.20262226045392        1.39699157214497       -0.40870205704820
C           61.87758351091964        1.18244776907701       -0.27915172968687
C           61.24683212689131       -0.03616863973463        0.04381864993176
C           61.88848963223780       -1.24799264543337        0.36303532315711
C           61.24900945936083       -2.47515920653950        0.68131655963347
C           62.21991845045667       -3.39899269587262        0.95207075832010
C           63.48346582428280       -2.76020216737098        0.81304985929775
N           63.23153315217331       -1.46534267973163        0.44672813716385
C           64.75012783616138       -3.33375250063390        0.97567357357751
C           64.78876412958938       -4.74655929438192        1.41609541930371
C           65.40482648465826       -5.71979128640020        0.62270709265212
C           65.44105617601410       -7.04049792950230        1.03078213890629
C           64.86038705858357       -7.39237142007976        2.24614062414219
N           64.89655068576633       -8.77726314703557        2.68018370055058
O           65.44144045649205       -9.57376969318529        1.95946030537195
O           64.37926134902540       -9.04501403832479        3.73450508818437
C           64.24430896281025       -6.43910904569116        3.05218912666115
C           64.20872148255258       -5.12219663212058        2.63222462933079
C           65.96415570092695       -2.67373381190695        0.75375377728452
C           67.27451726566066       -3.26828920002192        0.97138461293926
C           68.18025054484394       -2.32579987355909        0.64311732352566
C           67.42508995611064       -1.15173968672697        0.24116600011207
N           66.09409092289789       -1.39508361455365        0.32971458797981
H           69.11299830630230        0.03227255714950       -0.21260242691722
H           69.12249957344638        2.52995434483194       -1.06693766622382
H           67.23723779278514        4.36885192708542       -1.52156455701372
H           65.34975557477716        0.81212426455139       -0.25759169810423
H           63.36173720566188        4.43686636938641       -3.15705187046429
H           63.28486117886531        6.83202187390356       -3.80426200639035
H           65.61069373038470        7.84310904753281       -0.35043295409661
H           65.67591984504274        5.45155429184022        0.30829482189696
H           61.88304370286327        4.39902145939374       -1.01610370956164
H           60.06386203584810        2.49867519807340       -0.46833297467643
H           60.18144586120849       -2.62391956971123        0.69443012498475
H           62.07589703662862       -4.43485944986805        1.21223008222530
H           63.95120182732793       -0.77514346024582        0.25854003965661
H           65.84050824729876       -5.43643909818840       -0.32823700243051
H           65.91010921851225       -7.80212953927775        0.41955732645201
H           63.80402266164104       -6.73736364476433        3.99606057879266
H           63.74473547068592       -4.36883542804257        3.25819582797606
H           67.45286747943773       -4.26586200797125        1.33903254305586
H           69.25681630686277       -2.38498187307491        0.67077168331178
C           32.31040142696246        0.08794664427026        0.01115277679595
C           33.53504197715592        0.10395996662464        0.00432071259540
C           34.87709648372692        0.11242784691750       -0.00628089409214
C           36.10798899242343        0.11299700584744       -0.01159374142792
C           37.44521024938986        0.10683104955008       -0.02018458354711
C           38.67609408018163        0.09520645036000       -0.03157603716493
C           40.01782232708906        0.07627574195922       -0.03550497810673
C           41.24254281213134        0.05119682121482       -0.04318503095825
C           50.90910096396779       -0.07711587139052       -0.00483452630351
C           52.13389599858228       -0.08426061025688        0.01308063697878
C           53.47574054281490       -0.08718741868744        0.02992139842420
C           54.70661342570416       -0.08699759035723        0.04315368441959
C           56.04391793894442       -0.08554054031744        0.05258131583032
C           57.27475801965985       -0.08042792209060        0.05725650623221
C           58.61692758642263       -0.07057527264445        0.05776477052060
C           59.84154606654150       -0.05492277785789        0.05643549926576
C           42.64647283735604        0.02318443270120       -0.05256574851128
C           43.28867527625917        1.01042799530907       -0.82500429182370
C           42.65494696391408        2.03385486703032       -1.57589475857481
C           43.62966192124243        2.75872115123106       -2.20520651429595
C           44.88749229415259        2.19274453450912       -1.86066342193610
N           44.63137069485428        1.14697000831161       -1.01584470887076
C           46.15457325822045        2.62537293491779       -2.27277862088875
C           46.18315396556242        3.75267935687285       -3.23445401802491
C           46.81395509669336        4.95471275599705       -2.89931119235780
C           46.84249196735962        6.00741179858430       -3.79574893491869
C           46.23908510585330        5.85566233376378       -5.04099033133275
N           46.26870814092664        6.95650842269183       -5.98765029887829
O           45.72996871804489        6.79096552665851       -7.05206160351037
O           46.82854867715414        7.96774377945775       -5.64971992813459
C           45.60710372300791        4.66698791467439       -5.39491408675546
C           45.57928880728784        3.62254300906706       -4.48902781144250
C           47.37371524513622        2.08479811121679       -1.85888563388400
C           48.66684579796918        2.52948519658988       -2.34838739706942
C           49.59278239517080        1.78095793448753       -1.71474501238838
N           47.53472332681736        1.06959768074585       -0.96675954244430
C           48.86375004266070        0.87233220553478       -0.85180902128503
C           49.50488486122864       -0.06988702159685       -0.02263566565714
C           48.86305175857199       -1.02290508030923        0.79184911531517
C           49.49758031394508       -1.96775520873636        1.63894204837503
C           48.52263939495272       -2.72127261631461        2.23318721760467
C           47.26379269239798       -2.26156899159869        1.75865807416086
N           47.51977785026845       -1.22766775269793        0.89926770773321
C           45.99619816090492       -2.74153118828156        2.11239054062011
C           45.96633748326077       -3.90349036654244        3.03183703395433
C           46.55802696498721       -5.11397286888268        2.65764825963442
C           46.52982225103626       -6.20345933150080        3.50889833461070
C           45.90981287529345       -6.07994098118623        4.74903138278713
N           45.88112664460857       -7.21967793172939        5.64854127898138
O           45.33164008796362       -7.07799352387340        6.71077195227332
O           46.40977206967602       -8.23616594101382        5.27740877429915
C           45.31790469989679       -4.88295496360010        5.14225340522176
C           45.34660364662772       -3.80126324746397        4.28111334624049
C           44.77709508432199       -2.22106429881728        1.67340828033218
C           43.48321578936749       -2.78198382243846        2.02084107636127
C           42.55743473598616       -2.00700212521174        1.41959708708512
C           43.28722956508297       -0.98417963578176        0.69646051510598
N           44.61654677938214       -1.14379835824806        0.85727503727977
H           41.58947298701084        2.19093398961010       -1.62054857912849
H           43.49110413348865        3.61665288883205       -2.84251631360240
H           45.34400517695361        0.56176139432743       -0.59283381085047
H           47.26942933237332        5.06461054929938       -1.92215052908200
H           47.32380846714724        6.94450955492828       -3.54303458397611
H           45.14874069182031        4.57244730861099       -6.37197510143600
H           45.10211775771393        2.68735104783469       -4.75807668035837
H           48.82370945543141        3.29942102488749       -3.08613066319627
H           50.66600045090111        1.81320921062381       -1.81182065434016
H           50.56373323811421       -2.05065033288735        1.77438103223756
H           48.66184922810473       -3.51753287743823        2.94592035337410
H           46.80666147290156       -0.69077048364805        0.41712770128141
H           47.02603737614461       -5.20173512091968        1.68403942124567
H           46.97900021830235       -7.14740328954166        3.22447784563583
H           44.84552615861359       -4.81158029159950        6.11459145791022
H           44.90017131835751       -2.86024738854005        4.58041762339289
H           43.32583454130987       -3.65748874262974        2.62944559844905
H           41.48378779564176       -2.10266606666250        1.43918014483902

          :  Hamiltonian                  GFN1-xTB          :
         :: total energy            -379.590605745416 Eh    ::
         :: gradient norm              0.000715685215 Eh/a0 ::
         :: HOMO-LUMO gap              0.900005362237 eV    ::
         :: SCC energy              -385.330502861883 Eh    ::
         :: repulsion energy           5.906860031568 Eh    ::

    * Orbital Energies and Occupations

         #    Occupation            Energy/Eh            Energy/eV
      -------------------------------------------------------------
         1        2.0000           -0.9238056             -25.1380
       ...           ...                  ...                  ...
       321        2.0000           -0.4400761             -11.9751
       322        2.0000           -0.4390327             -11.9467
       323        2.0000           -0.4389938             -11.9456
       324        2.0000           -0.4373684             -11.9014
       325        2.0000           -0.4329509             -11.7812
       326        2.0000           -0.4292375             -11.6801
       327        2.0000           -0.4285895             -11.6625
       328        2.0000           -0.4244501             -11.5499
       329        2.0000           -0.4229134             -11.5081
       330        2.0000           -0.4228449             -11.5062
       331        2.0000           -0.4115927             -11.2000
       332        2.0000           -0.4071997             -11.0805
       333        2.0000           -0.4015336             -10.9263 (HOMO)
       334                         -0.3684590             -10.0263 (LUMO)
       335                         -0.3622179              -9.8564
       336                         -0.3615338              -9.8378
       337                         -0.3607746              -9.8172
       338                         -0.3591077              -9.7718
       339                         -0.3555555              -9.6752
       340                         -0.3510591              -9.5528
       341                         -0.3500855              -9.5263
       342                         -0.3500699              -9.5259
       343                         -0.3453967              -9.3987
       344                         -0.3442755              -9.3682
       ...                                ...                  ...
       680                          1.5854768              43.1430
      -------------------------------------------------------------
                  HL-Gap            0.0330746 Eh            0.9000 eV

Wiberg/Mayer (AO) data.
largest (>0.10) Wiberg bond orders for each atom

     #   Z sym  total        # sym  WBO       # sym  WBO       # sym  WBO
 ---------------------------------------------------------------------------
     1   6 C    3.927 --    41 C    1.368     2 C    1.347    43 H    0.970
     2   6 C    3.900 --     1 C    1.347     3 C    1.228     6 N    1.169
     3   6 C    3.954 --     4 C    1.597     2 C    1.228    44 H    0.976
     4   6 C    3.958 --     3 C    1.597     5 C    1.232    45 H    0.974
     5   6 C    3.897 --     7 C    1.300     4 C    1.232     6 N    1.181
     6   7 N    3.471 --     5 C    1.181     2 C    1.169    46 H    0.873
     7   6 C    3.936 --    17 C    1.330     5 C    1.300     8 C    1.037
     8   6 C    3.984 --    16 C    1.383     9 C    1.382     7 C    1.037
     9   6 C    3.986 --    10 C    1.465     8 C    1.382    47 H    0.971
                            15 C    0.101
    10   6 C    3.987 --     9 C    1.465    11 C    1.386    48 H    0.965
                            16 C    0.101
    11   6 C    3.940 --    15 C    1.387    10 C    1.386    12 N    0.921
    12   7 N    3.865 --    13 O    1.454    14 O    1.454    11 C    0.921
    13   8 O    1.828 --    12 N    1.454    14 O    0.251
    14   8 O    1.828 --    12 N    1.454    13 O    0.251
    15   6 C    3.987 --    16 C    1.464    11 C    1.387    49 H    0.965
                             9 C    0.101
    16   6 C    3.986 --    15 C    1.464     8 C    1.383    50 H    0.971
                            10 C    0.101
    17   6 C    3.913 --     7 C    1.330    20 N    1.289    18 C    1.124
    18   6 C    3.965 --    19 C    1.711    17 C    1.124    51 H    0.973
    19   6 C    3.963 --    18 C    1.711    21 C    1.127    52 H    0.974
    20   7 N    3.021 --    21 C    1.342    17 C    1.289
    21   6 C    3.905 --    20 N    1.342    22 C    1.254    19 C    1.127
    22   6 C    3.938 --    21 C    1.254    23 C    1.251   123 C    1.193
    23   6 C    3.882 --    22 C    1.251    24 C    1.249    27 N    1.188
    24   6 C    3.959 --    25 C    1.583    23 C    1.249    53 H    0.974
    25   6 C    3.954 --    24 C    1.583    26 C    1.240    54 H    0.974
    26   6 C    3.898 --    28 C    1.304    25 C    1.240    27 N    1.169
    27   7 N    3.475 --    23 C    1.188    26 C    1.169    55 H    0.872
    28   6 C    3.922 --    38 C    1.318    26 C    1.304    29 C    1.038
    29   6 C    3.984 --    37 C    1.381    30 C    1.381    28 C    1.038
    30   6 C    3.985 --    31 C    1.465    29 C    1.381    56 H    0.971
                            36 C    0.101
    31   6 C    3.987 --    30 C    1.465    32 C    1.386    57 H    0.965
                            37 C    0.101
    32   6 C    3.939 --    31 C    1.386    36 C    1.386    33 N    0.922
    33   7 N    3.865 --    34 O    1.454    35 O    1.453    32 C    0.922
    34   8 O    1.828 --    33 N    1.454    35 O    0.251
    35   8 O    1.827 --    33 N    1.453    34 O    0.251
    36   6 C    3.987 --    37 C    1.465    32 C    1.386    58 H    0.965
                            30 C    0.101
    37   6 C    3.985 --    36 C    1.465    29 C    1.381    59 H    0.971
                            31 C    0.101
    38   6 C    3.929 --    42 N    1.320    28 C    1.318    39 C    1.115
    39   6 C    3.967 --    40 C    1.725    38 C    1.115    60 H    0.973
    40   6 C    3.966 --    39 C    1.725    41 C    1.115    61 H    0.975
    41   6 C    3.926 --     1 C    1.368    42 N    1.298    40 C    1.115
    42   7 N    3.011 --    38 C    1.320    41 C    1.298
    43   1 H    1.001 --     1 C    0.970
    44   1 H    0.997 --     3 C    0.976
    45   1 H    1.003 --     4 C    0.974
    46   1 H    0.985 --     6 N    0.873
    47   1 H    1.004 --     9 C    0.971
    48   1 H    1.006 --    10 C    0.965
    49   1 H    1.006 --    15 C    0.965
    50   1 H    1.003 --    16 C    0.971
    51   1 H    1.003 --    18 C    0.973
    52   1 H    1.002 --    19 C    0.974
    53   1 H    1.001 --    24 C    0.974
    54   1 H    1.003 --    25 C    0.974
    55   1 H    0.986 --    27 N    0.872
    56   1 H    1.004 --    30 C    0.971
    57   1 H    1.006 --    31 C    0.965
    58   1 H    1.006 --    36 C    0.965
    59   1 H    1.003 --    37 C    0.971
    60   1 H    1.004 --    39 C    0.973
    61   1 H    0.997 --    40 C    0.975
    62   6 C    3.927 --   102 C    1.368    63 C    1.347   104 H    0.970
    63   6 C    3.900 --    62 C    1.347    64 C    1.228    67 N    1.169
    64   6 C    3.954 --    65 C    1.597    63 C    1.228   105 H    0.976
    65   6 C    3.958 --    64 C    1.597    66 C    1.232   106 H    0.974
    66   6 C    3.897 --    68 C    1.300    65 C    1.232    67 N    1.181
    67   7 N    3.471 --    66 C    1.181    63 C    1.169   107 H    0.873
    68   6 C    3.936 --    78 C    1.330    66 C    1.300    69 C    1.037
    69   6 C    3.984 --    77 C    1.383    70 C    1.382    68 C    1.037
    70   6 C    3.986 --    71 C    1.464    69 C    1.382   108 H    0.971
                            76 C    0.101
    71   6 C    3.987 --    70 C    1.464    72 C    1.386   109 H    0.965
                            77 C    0.101
    72   6 C    3.940 --    76 C    1.386    71 C    1.386    73 N    0.921
    73   7 N    3.865 --    74 O    1.454    75 O    1.453    72 C    0.921
    74   8 O    1.828 --    73 N    1.454    75 O    0.251
    75   8 O    1.828 --    73 N    1.453    74 O    0.251
    76   6 C    3.987 --    77 C    1.464    72 C    1.386   110 H    0.965
                            70 C    0.101
    77   6 C    3.986 --    76 C    1.464    69 C    1.383   111 H    0.971
                            71 C    0.101
    78   6 C    3.913 --    68 C    1.330    81 N    1.289    79 C    1.124
    79   6 C    3.965 --    80 C    1.711    78 C    1.124   112 H    0.973
    80   6 C    3.963 --    79 C    1.711    82 C    1.127   113 H    0.974
    81   7 N    3.021 --    82 C    1.342    78 C    1.289
    82   6 C    3.905 --    81 N    1.342    83 C    1.255    80 C    1.127
    83   6 C    3.938 --    82 C    1.255    84 C    1.252   138 C    1.192
    84   6 C    3.882 --    83 C    1.252    85 C    1.249    88 N    1.188
    85   6 C    3.959 --    86 C    1.584    84 C    1.249   114 H    0.974
    86   6 C    3.954 --    85 C    1.584    87 C    1.240   115 H    0.974
    87   6 C    3.898 --    89 C    1.305    86 C    1.240    88 N    1.169
    88   7 N    3.475 --    84 C    1.188    87 C    1.169   116 H    0.872
    89   6 C    3.922 --    99 C    1.318    87 C    1.305    90 C    1.038
    90   6 C    3.984 --    98 C    1.382    91 C    1.381    89 C    1.038
    91   6 C    3.986 --    92 C    1.465    90 C    1.381   117 H    0.971
                            97 C    0.101
    92   6 C    3.987 --    91 C    1.465    93 C    1.386   118 H    0.965
                            98 C    0.101
    93   6 C    3.939 --    92 C    1.386    97 C    1.386    94 N    0.922
    94   7 N    3.865 --    95 O    1.454    96 O    1.453    93 C    0.922
    95   8 O    1.828 --    94 N    1.454    96 O    0.251
    96   8 O    1.828 --    94 N    1.453    95 O    0.251
    97   6 C    3.987 --    98 C    1.465    93 C    1.386   119 H    0.965
                            91 C    0.101
    98   6 C    3.985 --    97 C    1.465    90 C    1.382   120 H    0.971
                            92 C    0.101
    99   6 C    3.929 --   103 N    1.320    89 C    1.318   100 C    1.115
   100   6 C    3.967 --   101 C    1.725    99 C    1.115   121 H    0.973
   101   6 C    3.966 --   100 C    1.725   102 C    1.115   122 H    0.975
   102   6 C    3.926 --    62 C    1.368   103 N    1.298   101 C    1.115
   103   7 N    3.012 --    99 C    1.320   102 C    1.298
   104   1 H    1.001 --    62 C    0.970
   105   1 H    0.997 --    64 C    0.976
   106   1 H    1.003 --    65 C    0.974
   107   1 H    0.985 --    67 N    0.873
   108   1 H    1.004 --    70 C    0.971
   109   1 H    1.006 --    71 C    0.965
   110   1 H    1.006 --    76 C    0.965
   111   1 H    1.003 --    77 C    0.971
   112   1 H    1.004 --    79 C    0.973
   113   1 H    1.002 --    80 C    0.974
   114   1 H    1.001 --    85 C    0.974
   115   1 H    1.003 --    86 C    0.974
   116   1 H    0.986 --    88 N    0.872
   117   1 H    1.004 --    91 C    0.971
   118   1 H    1.006 --    92 C    0.965
   119   1 H    1.006 --    97 C    0.965
   120   1 H    1.003 --    98 C    0.971
   121   1 H    1.004 --   100 C    0.973
   122   1 H    0.997 --   101 C    0.975
   123   6 C    3.877 --   124 C    2.437    22 C    1.193   126 C    0.186
   124   6 C    3.932 --   123 C    2.437   125 C    1.346
   125   6 C    3.891 --   126 C    2.332   124 C    1.346   128 C    0.182
   126   6 C    3.924 --   125 C    2.332   127 C    1.372   123 C    0.186
   127   6 C    3.922 --   128 C    2.331   126 C    1.372   130 C    0.186
   128   6 C    3.892 --   127 C    2.331   129 C    1.347   125 C    0.182
   129   6 C    3.929 --   130 C    2.433   128 C    1.347
   130   6 C    3.877 --   129 C    2.433   139 C    1.196   127 C    0.186
   131   6 C    3.877 --   132 C    2.434   160 C    1.196   134 C    0.186
   132   6 C    3.929 --   131 C    2.434   133 C    1.347
   133   6 C    3.892 --   134 C    2.332   132 C    1.347   136 C    0.182
   134   6 C    3.922 --   133 C    2.332   135 C    1.371   131 C    0.186
   135   6 C    3.924 --   136 C    2.333   134 C    1.371   138 C    0.186
   136   6 C    3.891 --   135 C    2.333   137 C    1.346   133 C    0.182
   137   6 C    3.933 --   138 C    2.437   136 C    1.346
   138   6 C    3.877 --   137 C    2.437    83 C    1.192   135 C    0.186
   139   6 C    3.926 --   179 C    1.254   140 C    1.247   130 C    1.196
   140   6 C    3.883 --   141 C    1.253   139 C    1.247   144 N    1.188
   141   6 C    3.955 --   142 C    1.578   140 C    1.253   181 H    0.974
   142   6 C    3.954 --   141 C    1.578   143 C    1.245   182 H    0.974
   143   6 C    3.894 --   145 C    1.296   142 C    1.245   144 N    1.169
   144   7 N    3.472 --   140 C    1.188   143 C    1.169   183 H    0.873
   145   6 C    3.925 --   155 C    1.335   143 C    1.296   146 C    1.034
   146   6 C    3.984 --   154 C    1.383   147 C    1.383   145 C    1.034
   147   6 C    3.986 --   148 C    1.464   146 C    1.383   184 H    0.971
                           153 C    0.102
   148   6 C    3.987 --   147 C    1.464   149 C    1.387   185 H    0.964
                           154 C    0.101
   149   6 C    3.940 --   148 C    1.387   153 C    1.387   150 N    0.921
   150   7 N    3.865 --   152 O    1.454   151 O    1.454   149 C    0.921
   151   8 O    1.828 --   150 N    1.454   152 O    0.252
   152   8 O    1.829 --   150 N    1.454   151 O    0.252
   153   6 C    3.987 --   154 C    1.464   149 C    1.387   186 H    0.965
                           147 C    0.102
   154   6 C    3.986 --   153 C    1.464   146 C    1.383   187 H    0.971
                           148 C    0.101
   155   6 C    3.916 --   145 C    1.335   158 N    1.285   156 C    1.123
   156   6 C    3.966 --   157 C    1.711   155 C    1.123   188 H    0.973
   157   6 C    3.963 --   156 C    1.711   159 C    1.128   189 H    0.974
   158   7 N    3.009 --   159 C    1.343   155 C    1.285
   159   6 C    3.905 --   158 N    1.343   160 C    1.254   157 C    1.128
   160   6 C    3.926 --   159 C    1.254   161 C    1.247   131 C    1.196
   161   6 C    3.883 --   162 C    1.253   160 C    1.247   165 N    1.188
   162   6 C    3.955 --   163 C    1.578   161 C    1.253   190 H    0.974
   163   6 C    3.954 --   162 C    1.578   164 C    1.245   191 H    0.974
   164   6 C    3.894 --   166 C    1.296   163 C    1.245   165 N    1.169
   165   7 N    3.472 --   161 C    1.188   164 C    1.169   192 H    0.873
   166   6 C    3.925 --   176 C    1.335   164 C    1.296   167 C    1.034
   167   6 C    3.984 --   168 C    1.383   175 C    1.383   166 C    1.034
   168   6 C    3.986 --   169 C    1.464   167 C    1.383   193 H    0.971
                           174 C    0.101
   169   6 C    3.987 --   168 C    1.464   170 C    1.387   194 H    0.965
                           175 C    0.102
   170   6 C    3.940 --   169 C    1.387   174 C    1.387   171 N    0.921
   171   7 N    3.865 --   172 O    1.454   173 O    1.454   170 C    0.921
   172   8 O    1.829 --   171 N    1.454   173 O    0.252
   173   8 O    1.829 --   171 N    1.454   172 O    0.252
   174   6 C    3.987 --   175 C    1.464   170 C    1.387   195 H    0.965
                           168 C    0.101
   175   6 C    3.986 --   174 C    1.464   167 C    1.383   196 H    0.971
                           169 C    0.102
   176   6 C    3.915 --   166 C    1.335   180 N    1.286   177 C    1.123
   177   6 C    3.966 --   178 C    1.711   176 C    1.123   197 H    0.973
   178   6 C    3.963 --   177 C    1.711   179 C    1.128   198 H    0.974
   179   6 C    3.905 --   180 N    1.343   139 C    1.254   178 C    1.128
   180   7 N    3.009 --   179 C    1.343   176 C    1.286
   181   1 H    1.001 --   141 C    0.974
   182   1 H    1.003 --   142 C    0.974
   183   1 H    0.986 --   144 N    0.873
   184   1 H    1.003 --   147 C    0.971
   185   1 H    1.006 --   148 C    0.964
   186   1 H    1.006 --   153 C    0.965
   187   1 H    1.003 --   154 C    0.971
   188   1 H    1.003 --   156 C    0.973
   189   1 H    1.002 --   157 C    0.974
   190   1 H    1.001 --   162 C    0.974
   191   1 H    1.003 --   163 C    0.974
   192   1 H    0.986 --   165 N    0.873
   193   1 H    1.003 --   168 C    0.971
   194   1 H    1.006 --   169 C    0.965
   195   1 H    1.006 --   174 C    0.965
   196   1 H    1.003 --   175 C    0.971
   197   1 H    1.003 --   177 C    0.973
   198   1 H    1.002 --   178 C    0.974
 ---------------------------------------------------------------------------

           -------------------------------------------------
          | TOTAL ENERGY             -379.590605745416 Eh   |
          | GRADIENT NORM               0.000715685215 Eh/α |
          | HOMO-LUMO GAP               0.900005362237 eV   |
           -------------------------------------------------

 * finished run on 2022/07/30 at 15:38:59.598
