   * xtb version 6.5.1 (b24c23e) compiled by 'conda@728c89f4b128' on 2022-07-12
          program call               : xtb Cu_H_C2_4.xyz --gfn 1 --opt -T 48

   ID    Z sym.   atoms
    1   29 Cu     1, 37, 79, 114
    2    6 C      2-6, 8-11, 13-18, 20-24, 38-42, 44-47, 49-54, 56-60, 73-78,
                  80-84, 86-89, 91-96, 98-102, 115-119, 121-124, 126-131,
                  133-137
    3    7 N      7, 12, 19, 25, 43, 48, 55, 61, 85, 90, 97, 103, 120, 125,
                  132, 138
    4    1 H      26-36, 62-72, 104-113, 139-148

          :  Hamiltonian                  GFN1-xTB          :
 * total energy  :  -272.1374863 Eh     change        0.7715926E-09 Eh
 * total energy  :  -272.8306300 Eh     change       -0.6931436E+00 Eh
 * total energy  :  -273.0639070 Eh     change       -0.2332771E+00 Eh
 * total energy  :  -273.2124286 Eh     change       -0.1485216E+00 Eh
 * total energy  :  -273.2967469 Eh     change       -0.8431826E-01 Eh
 * total energy  :  -273.3394935 Eh     change       -0.4274662E-01 Eh
 * total energy  :  -273.3682518 Eh     change       -0.2875832E-01 Eh
 * total energy  :  -273.3890167 Eh     change       -0.2076490E-01 Eh
 * total energy  :  -273.4041716 Eh     change       -0.1515486E-01 Eh
 * total energy  :  -273.4144638 Eh     change       -0.1029219E-01 Eh
 * total energy  :  -273.4294792 Eh     change       -0.1287727E-04 Eh
 * total energy  :  -273.4294883 Eh     change       -0.9145395E-05 Eh
 * total energy  :  -273.4294972 Eh     change       -0.8884453E-05 Eh
 * total energy  :  -273.4295076 Eh     change       -0.1040480E-04 Eh
 * total energy  :  -273.4295133 Eh     change       -0.5698448E-05 Eh
 * total energy  :  -273.4295190 Eh     change       -0.5719886E-05 Eh
 * total energy  :  -273.4295270 Eh     change       -0.8031816E-05 Eh
 * total energy  :  -273.4295330 Eh     change       -0.5954008E-05 Eh
 * total energy  :  -273.4295369 Eh     change       -0.3881104E-05 Eh
   *** GEOMETRY OPTIMIZATION CONVERGED AFTER 75 ITERATIONS ***

 final structure:
================
148
 xtb: 6.5.1 (b24c23e)
Cu          28.02329292030905       -0.02537783911847       -0.02464146855766
C           24.59650369738945       -0.02442557247465       -0.04009008299133
C           25.23095341648148       -0.72822553088734       -1.05377156423438
C           24.56224079240690       -1.45330973247338       -2.09941480142764
C           25.52604280508086       -1.99098478882997       -2.88758512978703
C           26.79120139566377       -1.59895996074176       -2.32981370220486
N           26.58128542353016       -0.83569877477551       -1.21821361703496
C           28.03183412180444       -1.93761701875375       -2.84957876636426
C           29.26788838174708       -1.57544434479135       -2.33472825257220
C           30.53104353978162       -1.92976659034550       -2.91489887449757
C           31.49316576196501       -1.39206190479397       -2.12299737425971
N           29.47926258607261       -0.83208534002627       -1.20474963835215
C           30.82596251872624       -0.71166299338661       -1.05123988020192
C           31.47572625640781       -0.02859378061628       -0.00749358930031
C           30.81692904820885        0.65645987158634        1.02916637772278
C           31.47482843255413        1.33808895116772        2.10589547071313
C           30.50588248468920        1.87867964142688        2.88743526769231
C           29.24783277141391        1.52530797196232        2.29561411888037
N           29.46894956618236        0.77953617990537        1.16916129248393
C           28.00742445075903        1.89047003571046        2.79778103859219
C           26.77132893222559        1.55231664454736        2.26697578904390
C           25.50141140396135        1.94609476384780        2.81262556253026
C           24.54441721648206        1.40706220566283        2.01713696562910
C           25.22207208195327        0.67998040022226        0.97866145771858
N           26.57095146406794        0.78722971908105        1.15490051859398
H           23.51146351574645       -0.02451306218526       -0.04481939321577
H           23.49118382751221       -1.53077430192253       -2.20299718546458
H           25.40778699438688       -2.60010980432838       -3.77014125330494
H           28.03706765781194       -2.54312272449295       -3.75021208194044
H           30.65241777596422       -2.51210685316950       -3.81470721410888
H           32.56253717917131       -1.44097062065365       -2.24896683878967
H           32.54309463237352        1.38579930260785        2.24167368911419
H           30.61947821821685        2.46252143291897        3.78727851915171
H           28.00495129975487        2.49782819127298        3.69716378969248
H           25.37561741263014        2.55716989964360        3.69278321858648
H           23.47251641107158        1.48509325596260        2.11114347862530
Cu          60.88323098013090       -0.00048786749148       -0.01960178884151
C           64.30957872970875        0.02167964618560       -0.01200334532060
C           63.67142848787651        1.24508180723912        0.13422714734442
C           64.33619471570813        2.51000377990315        0.29002858954570
C           63.36952378142198        3.45558191674194        0.39325563534528
C           62.10651641605318        2.77601302513450        0.30162682646878
N           62.32043557923789        1.43725233375014        0.14671746464915
C           60.86413541273832        3.39082127262884        0.35368421997525
C           59.63015383336103        2.76315423544970        0.26888154037290
C           58.36475716105638        3.43772372359216        0.30858823696067
C           57.40582520210639        2.48359836877722        0.19913418553168
N           59.42326402197639        1.41634572701063        0.13659768545212
C           58.07735790352854        1.22039267153887        0.09756246061047
C           57.43180049069458       -0.02316535537873       -0.02380395095035
C           58.09378466544047       -1.25777630405083       -0.14636512817676
C           57.43908214444819       -2.52939158716566       -0.25260038715384
C           58.41079603557874       -3.47055223771005       -0.36173443646975
C           59.66716082378169       -2.77952924928722       -0.31692459292590
N           59.44231814963392       -1.43589003367781       -0.18258241268529
C           60.90953202484287       -3.39098183397816       -0.39852820239634
C           62.14369308125096       -2.76042348292466       -0.34025354433460
C           63.41581582540339       -3.42343093781796       -0.42690691475633
C           64.36972401958394       -2.46572511165579       -0.31688355691746
C           63.68793824311030       -1.20972713749695       -0.16242151452550
N           62.33969334049669       -1.41923301221805       -0.18192868384890
H           65.39460400941637        0.02865661994717       -0.00899996822991
H           65.40684672776770        2.64033260078579        0.31477474173226
H           63.48444565466271        4.52074369655451        0.52025323941481
H           60.85580755678178        4.46986704987919        0.46926866413025
H           58.23979399788420        4.50481628022613        0.40457258932151
H           56.33606234653467        2.61461470872589        0.18077444477633
H           56.37093062822319       -2.67395488176765       -0.23861971350232
H           58.30014224515631       -4.53896353059947       -0.46052747729871
H           60.91548681569662       -4.46983616764357       -0.51605355026402
H           63.54514018126707       -4.48676226993704       -0.55545505290541
H           65.44205915980885       -2.58235488698177       -0.33647518030441
C           32.88651534515339       -0.02876045923962       -0.00141405272314
C           34.10341511799522       -0.02475042723848        0.00773015756161
C           43.84597819945223       -0.01633715937067       -0.02731075849158
C           45.06338335310012       -0.01370948580667       -0.02890430715326
C           54.80438171188266       -0.04034680712029       -0.01959908254894
C           56.02114622549932       -0.03205781899797       -0.02152309031786
Cu          38.97419518245800       -0.01989485382521       -0.00881737845922
C           35.51374058987136       -0.02545203051463        0.00759412091232
C           36.17108920047803        0.97340966309959        0.74862027971883
C           35.51267321687583        2.01029111189790        1.48896541350363
C           36.48149216218538        2.75593599184125        2.07887081319506
C           37.73890075801945        2.18189950315479        1.69632366382300
N           37.51829852202167        1.10322401341368        0.88336683568873
C           38.97988162643203        2.64672949963500        2.10513470482685
C           40.21836473611621        2.13826910186912        1.74322834014273
C           41.47768355973297        2.63727331879043        2.21414207040272
C           42.44335397384243        1.88934568833377        1.62211140198495
N           40.43494612716280        1.09997748915431        0.87811988716773
C           41.78159301648048        0.93458681094913        0.78147568071195
C           42.43610161749600       -0.01502657738866       -0.02489056526337
C           41.77706637843646       -0.96556661369722       -0.82656579244549
C           42.43414095300651       -1.91843629065838       -1.67311072950475
C           41.46541947805380       -2.66986885258459       -2.25568664759869
C           40.20897885293220       -2.17460207745306       -1.77335568762055
N           40.43025825364691       -1.13467045698884       -0.91135139620822
C           38.96861424413128       -2.68759970536188       -2.12194907055003
C           37.73048772034719       -2.22696845552893       -1.69998844455505
C           36.47148063740660       -2.80593010157921       -2.06949426091577
C           35.50594865865446       -2.06343654937346       -1.47040687164611
C           36.16788269800227       -1.02378677780320       -0.73717232049369
N           37.51416968562489       -1.14908083996038       -0.88484602066895
H           34.44457396978200        2.14616619440190        1.54053325947677
H           36.36778202926577        3.62058129952400        2.71369865902092
H           38.98232950836260        3.49744865956764        2.77926444690832
H           41.59462284413468        3.45204931804845        2.91123669728031
H           43.51152189199080        1.96641643223339        1.74302203797170
H           43.50140327745115       -1.99157507197787       -1.80404558069321
H           41.57840028418480       -3.48507285622100       -2.95294378504597
H           38.96653418955332       -3.53856910775222       -2.79575219492430
H           36.35458303744718       -3.67111070583260       -2.70295193385143
H           34.43802375942516       -2.20413616185133       -1.50993243056872
Cu          49.93454385588122       -0.03200173673335       -0.01706946279096
C           46.47329667354308       -0.01847247524163       -0.02614337268957
C           47.13284327970318        1.12249528969657        0.46740214386487
C           46.47630297236974        2.30523660126180        0.94329814638492
C           47.44547774159651        3.16178993324865        1.35495408970020
C           48.70167366582406        2.50910490711698        1.12570881794212
N           48.47971288202764        1.27336111448154        0.58058427375253
C           49.94244501858600        3.05092487281145        1.42589260261926
C           51.18028090439469        2.46900777216969        1.19733586705901
C           52.44026060995495        3.05944261576202        1.54506640812501
C           53.40496842837941        2.19290249532327        1.14401854490863
N           51.39522633095737        1.25861516176048        0.59589771544203
C           52.74136354567172        1.07176019306045        0.54433190905663
C           53.39418941967687       -0.04161480909593       -0.01520763760674
C           52.73663160007549       -1.15421670263735       -0.57051577279139
C           53.39491283829706       -2.28302689854014       -1.16159412982117
C           52.42577995169918       -3.14616751261540       -1.55959945056729
C           51.16856243033197       -2.54568638883643       -1.21927042386576
N           51.38955927884707       -1.33349366350162       -0.62354495248684
C           49.92708429582241       -3.11895709956075       -1.45007026758168
C           48.68913041650276       -2.56576146611677       -1.15885253176162
C           47.42931282697152       -3.20954214098088       -1.39345460570951
C           46.46425531514324       -2.34416529767849       -0.99070619402456
C           47.12689388013952       -1.16495518825552       -0.51484313803995
N           48.47340635027248       -1.32652213281287       -0.61918533572457
H           45.40910238447846        2.45536441913923        0.95153983087455
H           47.33298304797962        4.14977981351190        1.77296745404501
H           49.94515258908631        4.03367175347335        1.88672025248265
H           52.55812468605083        4.01256667690308        2.03615497139251
H           54.47329814365411        2.29207338970928        1.24762326962918
H           54.46305254319211       -2.39023938048882       -1.25984904158830
H           52.53915152288869       -4.10320545539192       -2.04415243968998
H           49.92355568885861       -4.10385445509211       -1.90629921336657
H           47.31181959968271       -4.19803169844968       -1.80888269467668
H           45.39600490056642       -2.48614186424868       -1.00504681652140

          :  Hamiltonian                  GFN1-xTB          :
         :: total energy            -273.429536875446 Eh    ::
         :: gradient norm              0.000599551359 Eh/a0 ::
         :: HOMO-LUMO gap              0.001082344781 eV    ::
         :: SCC energy              -277.537928746698 Eh    ::
         :: repulsion energy           4.244980530942 Eh    ::

    * Orbital Energies and Occupations

         #    Occupation            Energy/Eh            Energy/eV
      -------------------------------------------------------------
         1        2.0000           -0.7637897             -20.7838
       ...           ...                  ...                  ...
       243        2.0000           -0.4074087             -11.0862
       244        2.0000           -0.4071113             -11.0781
       245        2.0000           -0.4069816             -11.0745
       246        2.0000           -0.4000961             -10.8872
       247        2.0000           -0.3952455             -10.7552
       248        2.0000           -0.3952446             -10.7552
       249        2.0000           -0.3949671             -10.7476
       250        2.0000           -0.3949530             -10.7472
       251        2.0000           -0.3934514             -10.7064
       252        2.0000           -0.3849083             -10.4739
       253        2.0000           -0.3771351             -10.2624
       254        1.0385           -0.3549790              -9.6595
       255        1.0052           -0.3549157              -9.6577 (HOMO)
       256        0.9843           -0.3548759              -9.6567 (LUMO)
       257        0.9720           -0.3548527              -9.6560
       258        0.0000           -0.3428373              -9.3291
       259                         -0.3348674              -9.1122
       260                         -0.3273053              -8.9064
       261                         -0.3273044              -8.9064
       262                         -0.3268290              -8.8935
       263                         -0.3268109              -8.8930
       264                         -0.3256259              -8.8607
       265                         -0.3175355              -8.6406
       266                         -0.2987296              -8.1288
       ...                                ...                  ...
       528                          1.3403234              36.4721
      -------------------------------------------------------------
                  HL-Gap            0.0000398 Eh            0.0011 eV

Wiberg/Mayer (AO) data.
largest (>0.10) Wiberg bond orders for each atom

     #   Z sym  total        # sym  WBO       # sym  WBO       # sym  WBO
 ---------------------------------------------------------------------------
     1  29 Cu   2.197 --     7 N    0.507    25 N    0.507    19 N    0.505
                            12 N    0.505
     2   6 C    3.935 --    24 C    1.362     3 C    1.362    26 H    0.972
     3   6 C    3.917 --     2 C    1.362     7 N    1.234     4 C    1.166
     4   6 C    3.955 --     5 C    1.662     3 C    1.166    27 H    0.976
     5   6 C    3.957 --     4 C    1.662     6 C    1.166    28 H    0.976
     6   6 C    3.915 --     8 C    1.362     7 N    1.232     5 C    1.166
     7   7 N    3.247 --     3 C    1.234     6 C    1.232     1 Cu   0.507
     8   6 C    3.940 --     9 C    1.366     6 C    1.362    29 H    0.971
     9   6 C    3.910 --     8 C    1.366    12 N    1.218    10 C    1.174
    10   6 C    3.954 --    11 C    1.648     9 C    1.174    30 H    0.976
    11   6 C    3.957 --    10 C    1.648    13 C    1.182    31 H    0.969
    12   7 N    3.251 --    13 C    1.259     9 C    1.218     1 Cu   0.505
    13   6 C    3.902 --    14 C    1.265    12 N    1.259    11 C    1.182
    14   6 C    3.945 --    15 C    1.265    13 C    1.265    73 C    1.174
    15   6 C    3.902 --    14 C    1.265    19 N    1.258    16 C    1.182
    16   6 C    3.957 --    17 C    1.648    15 C    1.182    32 H    0.969
    17   6 C    3.954 --    16 C    1.648    18 C    1.174    33 H    0.976
    18   6 C    3.910 --    20 C    1.366    19 N    1.218    17 C    1.174
    19   7 N    3.251 --    15 C    1.258    18 C    1.218     1 Cu   0.505
    20   6 C    3.940 --    18 C    1.366    21 C    1.362    34 H    0.971
    21   6 C    3.915 --    20 C    1.362    25 N    1.232    22 C    1.166
    22   6 C    3.957 --    23 C    1.662    21 C    1.166    35 H    0.976
    23   6 C    3.955 --    22 C    1.662    24 C    1.166    36 H    0.976
    24   6 C    3.917 --     2 C    1.362    25 N    1.234    23 C    1.166
    25   7 N    3.247 --    24 C    1.234    21 C    1.232     1 Cu   0.507
    26   1 H    1.001 --     2 C    0.972
    27   1 H    0.998 --     4 C    0.976
    28   1 H    0.998 --     5 C    0.976
    29   1 H    1.002 --     8 C    0.971
    30   1 H    0.998 --    10 C    0.976
    31   1 H    1.006 --    11 C    0.969
    32   1 H    1.006 --    16 C    0.969
    33   1 H    0.998 --    17 C    0.976
    34   1 H    1.002 --    20 C    0.971
    35   1 H    0.998 --    22 C    0.976
    36   1 H    0.998 --    23 C    0.976
    37  29 Cu   2.197 --    43 N    0.508    61 N    0.508    55 N    0.505
                            48 N    0.505
    38   6 C    3.935 --    39 C    1.362    60 C    1.362    62 H    0.972
    39   6 C    3.917 --    38 C    1.362    43 N    1.234    40 C    1.166
    40   6 C    3.955 --    41 C    1.662    39 C    1.166    63 H    0.976
    41   6 C    3.957 --    40 C    1.662    42 C    1.166    64 H    0.976
    42   6 C    3.915 --    44 C    1.361    43 N    1.233    41 C    1.166
    43   7 N    3.247 --    39 C    1.234    42 C    1.233    37 Cu   0.508
    44   6 C    3.940 --    45 C    1.366    42 C    1.361    65 H    0.971
    45   6 C    3.910 --    44 C    1.366    48 N    1.218    46 C    1.174
    46   6 C    3.954 --    47 C    1.648    45 C    1.174    66 H    0.976
    47   6 C    3.957 --    46 C    1.648    49 C    1.182    67 H    0.969
    48   7 N    3.251 --    49 C    1.259    45 C    1.218    37 Cu   0.505
    49   6 C    3.902 --    50 C    1.265    48 N    1.259    47 C    1.182
    50   6 C    3.945 --    51 C    1.266    49 C    1.265    78 C    1.174
    51   6 C    3.902 --    50 C    1.266    55 N    1.259    52 C    1.182
    52   6 C    3.957 --    53 C    1.648    51 C    1.182    68 H    0.969
    53   6 C    3.954 --    52 C    1.648    54 C    1.174    69 H    0.976
    54   6 C    3.909 --    56 C    1.366    55 N    1.218    53 C    1.174
    55   7 N    3.251 --    51 C    1.259    54 C    1.218    37 Cu   0.505
    56   6 C    3.940 --    54 C    1.366    57 C    1.361    70 H    0.971
    57   6 C    3.915 --    56 C    1.361    61 N    1.232    58 C    1.167
    58   6 C    3.957 --    59 C    1.662    57 C    1.167    71 H    0.976
    59   6 C    3.955 --    58 C    1.662    60 C    1.166    72 H    0.976
    60   6 C    3.917 --    38 C    1.362    61 N    1.234    59 C    1.166
    61   7 N    3.247 --    60 C    1.234    57 C    1.232    37 Cu   0.508
    62   1 H    1.001 --    38 C    0.972
    63   1 H    0.998 --    40 C    0.976
    64   1 H    0.998 --    41 C    0.976
    65   1 H    1.002 --    44 C    0.971
    66   1 H    0.998 --    46 C    0.976
    67   1 H    1.006 --    47 C    0.969
    68   1 H    1.006 --    52 C    0.969
    69   1 H    0.998 --    53 C    0.976
    70   1 H    1.002 --    56 C    0.971
    71   1 H    0.998 --    58 C    0.976
    72   1 H    0.998 --    59 C    0.976
    73   6 C    3.934 --    74 C    2.582    14 C    1.174
    74   6 C    3.936 --    73 C    2.582    80 C    1.176
    75   6 C    3.934 --    76 C    2.578    92 C    1.179
    76   6 C    3.934 --    75 C    2.578   115 C    1.179
    77   6 C    3.936 --    78 C    2.583   127 C    1.175
    78   6 C    3.934 --    77 C    2.583    50 C    1.174
    79  29 Cu   2.170 --    90 N    0.500   103 N    0.500    85 N    0.500
                            97 N    0.500
    80   6 C    3.933 --    81 C    1.263   102 C    1.263    74 C    1.176
    81   6 C    3.903 --    80 C    1.263    85 N    1.261    82 C    1.183
    82   6 C    3.955 --    83 C    1.646    81 C    1.183   104 H    0.969
    83   6 C    3.955 --    82 C    1.646    84 C    1.175   105 H    0.976
    84   6 C    3.908 --    86 C    1.364    85 N    1.218    83 C    1.175
    85   7 N    3.243 --    81 C    1.261    84 C    1.218    79 Cu   0.500
    86   6 C    3.934 --    87 C    1.364    84 C    1.364   106 H    0.971
    87   6 C    3.908 --    86 C    1.364    90 N    1.218    88 C    1.175
    88   6 C    3.954 --    89 C    1.646    87 C    1.175   107 H    0.976
    89   6 C    3.955 --    88 C    1.646    91 C    1.183   108 H    0.968
    90   7 N    3.244 --    91 C    1.262    87 C    1.218    79 Cu   0.500
    91   6 C    3.902 --    90 N    1.262    92 C    1.262    89 C    1.183
    92   6 C    3.933 --    91 C    1.262    93 C    1.261    75 C    1.179
    93   6 C    3.902 --    97 N    1.262    92 C    1.261    94 C    1.183
    94   6 C    3.955 --    95 C    1.646    93 C    1.183   109 H    0.968
    95   6 C    3.954 --    94 C    1.646    96 C    1.175   110 H    0.976
    96   6 C    3.908 --    98 C    1.364    97 N    1.218    95 C    1.175
    97   7 N    3.244 --    93 C    1.262    96 C    1.218    79 Cu   0.500
    98   6 C    3.934 --    96 C    1.364    99 C    1.364   111 H    0.971
    99   6 C    3.908 --    98 C    1.364   103 N    1.218   100 C    1.175
   100   6 C    3.955 --   101 C    1.646    99 C    1.175   112 H    0.976
   101   6 C    3.955 --   100 C    1.646   102 C    1.183   113 H    0.969
   102   6 C    3.903 --    80 C    1.263   103 N    1.261   101 C    1.183
   103   7 N    3.244 --   102 C    1.261    99 C    1.218    79 Cu   0.500
   104   1 H    1.006 --    82 C    0.969
   105   1 H    0.998 --    83 C    0.976
   106   1 H    1.002 --    86 C    0.971
   107   1 H    0.998 --    88 C    0.976
   108   1 H    1.006 --    89 C    0.968
   109   1 H    1.006 --    94 C    0.968
   110   1 H    0.998 --    95 C    0.976
   111   1 H    1.002 --    98 C    0.971
   112   1 H    0.998 --   100 C    0.976
   113   1 H    1.006 --   101 C    0.969
   114  29 Cu   2.169 --   138 N    0.500   125 N    0.500   120 N    0.500
                           132 N    0.500
   115   6 C    3.933 --   116 C    1.262   137 C    1.262    76 C    1.179
   116   6 C    3.902 --   120 N    1.262   115 C    1.262   117 C    1.183
   117   6 C    3.955 --   118 C    1.646   116 C    1.183   139 H    0.968
   118   6 C    3.954 --   117 C    1.646   119 C    1.175   140 H    0.976
   119   6 C    3.908 --   121 C    1.364   120 N    1.218   118 C    1.175
   120   7 N    3.244 --   116 C    1.262   119 C    1.218   114 Cu   0.500
   121   6 C    3.934 --   119 C    1.364   122 C    1.364   141 H    0.971
   122   6 C    3.908 --   121 C    1.364   125 N    1.218   123 C    1.175
   123   6 C    3.955 --   124 C    1.647   122 C    1.175   142 H    0.976
   124   6 C    3.955 --   123 C    1.647   126 C    1.182   143 H    0.969
   125   7 N    3.244 --   126 C    1.262   122 C    1.218   114 Cu   0.500
   126   6 C    3.903 --   127 C    1.263   125 N    1.262   124 C    1.182
   127   6 C    3.933 --   128 C    1.263   126 C    1.263    77 C    1.175
   128   6 C    3.903 --   127 C    1.263   132 N    1.262   129 C    1.182
   129   6 C    3.955 --   130 C    1.647   128 C    1.182   144 H    0.970
   130   6 C    3.955 --   129 C    1.647   131 C    1.175   145 H    0.976
   131   6 C    3.908 --   133 C    1.364   132 N    1.218   130 C    1.175
   132   7 N    3.243 --   128 C    1.262   131 C    1.218   114 Cu   0.500
   133   6 C    3.934 --   134 C    1.364   131 C    1.364   146 H    0.971
   134   6 C    3.908 --   133 C    1.364   138 N    1.218   135 C    1.175
   135   6 C    3.954 --   136 C    1.646   134 C    1.175   147 H    0.976
   136   6 C    3.955 --   135 C    1.646   137 C    1.183   148 H    0.968
   137   6 C    3.902 --   138 N    1.262   115 C    1.262   136 C    1.183
   138   7 N    3.244 --   137 C    1.262   134 C    1.218   114 Cu   0.500
   139   1 H    1.006 --   117 C    0.968
   140   1 H    0.998 --   118 C    0.976
   141   1 H    1.002 --   121 C    0.971
   142   1 H    0.998 --   123 C    0.976
   143   1 H    1.006 --   124 C    0.969
   144   1 H    1.005 --   129 C    0.970
   145   1 H    0.998 --   130 C    0.976
   146   1 H    1.002 --   133 C    0.971
   147   1 H    0.998 --   135 C    0.976
   148   1 H    1.006 --   136 C    0.968
 ---------------------------------------------------------------------------

           -------------------------------------------------
          | TOTAL ENERGY             -273.429536875446 Eh   |
          | GRADIENT NORM               0.000599551359 Eh/α |
          | HOMO-LUMO GAP               0.001082344781 eV   |
           -------------------------------------------------

 * finished run on 2022/07/30 at 04:14:39.111
