   * xtb version 6.5.1 (b24c23e) compiled by 'conda@728c89f4b128' on 2022-07-12
          program call               : xtb Cu_BSA_C8_3.xyz --gfn 1 --opt -T 48

   ID    Z sym.   atoms
    1   29 Cu     1, 65, 145
    2    6 C      2-6, 8-12, 17-21, 23-28, 30-34, 39-44, 66-70, 72-76, 81-85,
                  87-92, 94-98, 103-108, 129-144, 146-150, 152-156, 161-165,
                  167-172, 174-178, 183-188
    3    7 N      7, 22, 29, 45, 71, 86, 93, 109, 151, 166, 173, 189
    4   16 S      13, 35, 77, 99, 157, 179
    5    8 O      14-16, 36-38, 78-80, 100-102, 158-160, 180-182
    6    1 H      46-64, 110-128, 190-207

          :  Hamiltonian                  GFN1-xTB          :
 * total energy  :  -423.5182133 Eh     change       -0.4344884E-08 Eh
 * total energy  :  -423.9302277 Eh     change       -0.4120144E+00 Eh
 * total energy  :  -424.0915065 Eh     change       -0.1612787E+00 Eh
 * total energy  :  -424.1589893 Eh     change       -0.6748282E-01 Eh
 * total energy  :  -424.2063720 Eh     change       -0.4738269E-01 Eh
 * total energy  :  -424.2566155 Eh     change       -0.5024354E-01 Eh
 * total energy  :  -424.3128139 Eh     change       -0.5619840E-01 Eh
 * total energy  :  -424.3577404 Eh     change       -0.4492649E-01 Eh
 * total energy  :  -424.3920314 Eh     change       -0.3429107E-01 Eh
 * total energy  :  -424.4151603 Eh     change       -0.2312887E-01 Eh
 * total energy  :  -424.5938608 Eh     change       -0.5133288E-05 Eh
 * total energy  :  -424.5938338 Eh     change        0.2700484E-04 Eh
 * total energy  :  -424.5938663 Eh     change       -0.3252007E-04 Eh
 * total energy  :  -424.5938479 Eh     change        0.1842863E-04 Eh
 * total energy  :  -424.5938721 Eh     change       -0.2416080E-04 Eh
 * total energy  :  -424.5938162 Eh     change        0.5586396E-04 Eh
 * total energy  :  -424.5938756 Eh     change       -0.5935633E-04 Eh
 * total energy  :  -424.5938856 Eh     change       -0.9997784E-05 Eh
 * total energy  :  -424.5938882 Eh     change       -0.2633129E-05 Eh
   *** GEOMETRY OPTIMIZATION CONVERGED AFTER 76 ITERATIONS ***

 final structure:
================
207
 xtb: 6.5.1 (b24c23e)
Cu          28.86951993527395        0.04866331456279        0.01253113065788
C           25.46331859034211        0.10908160955925        0.06074977163715
C           26.09895328615232       -0.19293893534047        1.25546325599305
C           25.42428653975173       -0.51263461413232        2.48123701081641
C           26.38332271866751       -0.75262380923275        3.40889561284123
C           27.65376484591404       -0.56938565594102        2.76001358511205
N           27.44988611071129       -0.23638503055310        1.45232186240388
C           28.89976987931104       -0.73384275785821        3.36932060252774
C           28.91212656239264       -1.08195092935295        4.81183922127347
C           28.38580873638761       -0.19655753221025        5.75565760314067
C           28.39263962835040       -0.51885283312049        7.10276530843502
C           28.92468280291633       -1.73743045884409        7.49221383106982
S           28.93896697325799       -2.14995822402589        9.19576484151705
O           28.91564187347256       -0.96835183151386       10.00679670417010
O           27.47573385303471       -2.85090062220724        9.27955502076437
O           29.92963982619587       -3.14880763891268        9.47069011223318
C           29.45623405139645       -2.63493596956963        6.58045970511372
C           29.44956354150058       -2.29948056269208        5.23654134054314
C           30.13361243329151       -0.59867721954342        2.72974555432326
C           31.41101352709989       -0.70535150440208        3.37658623098971
C           32.35643422441348       -0.49229655098121        2.42684703979062
N           30.32082277937884       -0.31369898771862        1.40355058190739
C           31.66461183048651       -0.24864157768077        1.19656334931059
C           32.29955276414850        0.00909607616376       -0.03089775425995
C           31.64008771923010        0.27415894524408       -1.24375200655178
C           32.30593349090613        0.49053215450533       -2.49320788130533
C           31.34172411186058        0.71426651236463       -3.42151201640845
C           30.07906478247747        0.64509572584459       -2.74148975125419
N           30.29331325232641        0.36775506552569       -1.41776969132877
C           28.83267891319851        0.81041607746236       -3.34906304929646
C           28.81387084231904        1.14138733529918       -4.79537743876883
C           28.21921688970010        0.26836458969151       -5.70979083957821
C           28.18914318313977        0.57688728078325       -7.05976914601215
C           28.75783405950369        1.76745084297220       -7.48247827127608
S           28.70458643959193        2.17172682700418       -9.18768032932269
O           28.85336541579612        3.58385864424195       -9.38821467260682
O           30.09089988501845        1.46079911143403       -9.64728873103731
O           27.61305802981935        1.49967355951034       -9.82726310333447
C           29.35265694892447        2.65443623793898       -6.59997548002604
C           29.38024365326988        2.33378712250904       -5.25267388180884
C           27.59952325981956        0.69434671227531       -2.70315522269638
C           26.31854555513708        0.92279772079728       -3.31622582602696
C           25.37846627777561        0.72546012604998       -2.35968632966537
C           26.07563509103518        0.38515934308331       -1.15219778410121
N           27.42111887551845        0.37625441343747       -1.38806240640950
H           24.37858763961529        0.12999589615685        0.07622616637127
H           24.35311388895201       -0.55411033391935        2.59981841720562
H           26.24975483687929       -1.03924293560936        4.43958259862584
H           27.98390002292604        0.75599429242985        5.43060710089309
H           27.99732267487395        0.16429158501537        7.84400521175741
H           27.30662602464563       -3.16459207821663       10.17624877789887
H           29.86920364611293       -3.57630518522593        6.92053462678094
H           29.85140212189968       -2.99135095500596        4.50551139946779
H           31.56091657197890       -0.90307058456690        4.42558517095859
H           33.42856601431518       -0.49201136137632        2.54075205881703
H           33.37462677729628        0.46453652649445       -2.63371656247379
H           31.46963693963860        0.89681025754058       -4.47618853711077
H           27.78844716488499       -0.66229166434553       -5.35926468972576
H           27.72841988116054       -0.09101770260007       -7.77669832110181
H           30.34042933308553        1.75738373115916      -10.53121337178781
H           29.77725697502171        3.58182892751126       -6.96340019331627
H           29.82824411272376        3.02015390663303       -4.54362998513736
H           26.16584322845370        1.20999195815619       -4.34404890427279
H           24.30674225174208        0.80829302971156       -2.44745056150883
Cu          66.09507877452945        0.04145409725250       -0.00775193144654
C           69.50117545151608        0.13210143765702       -0.02957505089234
C           68.86466922368636        0.29067737080406       -1.25103111659222
C           69.53866585566779        0.45125277085381       -2.50784044083273
C           68.57914980987890        0.56610129285822       -3.45861987904314
C           67.30907904275929        0.48831712822272       -2.78834847780366
N           67.51346464219090        0.31534228937467       -1.45003505328548
C           66.06319790261949        0.55164703308182       -3.41626362742759
C           66.05130849277579        0.76387199583406       -4.88499449856625
C           66.56797488993747        1.94162194574868       -5.43062373644159
C           66.56312017048752        2.14307158874140       -6.80101529493160
C           66.04289348599221        1.15145770923169       -7.61691544079466
S           66.03185517952666        1.40145015636859       -9.35182629210735
O           66.04916465032412        2.80007522547900       -9.66452450084196
O           67.49833972933683        0.78777834243966       -9.68659532539640
O           65.04708532732809        0.57173295212483       -9.98158565540678
C           65.52087008541316       -0.02553784567399       -7.10551327878821
C           65.52532302444781       -0.21358277851043       -5.73313021716949
C           64.83001621518861        0.43051048578477       -2.77294708212594
C           63.55213763337749        0.55826042481705       -3.41475460912556
C           62.60723556162598        0.39973411254717       -2.45392624361077
N           64.64373584050983        0.20610589174755       -1.43486425504187
C           63.29979827356416        0.18052770328782       -1.21954583328408
C           62.66523556613262       -0.02917364632599        0.01719024015063
C           63.32561504037587       -0.21968401510194        1.24334795678369
C           62.66062917790195       -0.47608182057532        2.48555683661318
C           63.62532363235379       -0.60553683680880        3.43109823153195
C           64.88737487601065       -0.41892025521993        2.77261536854071
N           64.67249233674210       -0.19264864790499        1.43914444212495
C           66.13389271203648       -0.48689798490098        3.39803726771374
C           66.15432169461103       -0.71308647461130        4.86443259647331
C           66.75029092089456       -1.86190454813636        5.39070724563079
C           66.78336755471608       -2.07350109135156        6.75915425789143
C           66.21625868781187       -1.12315635776078        7.59265071084793
S           66.27456077753590       -1.37595685315908        9.32667014797239
O           66.12900986492927       -0.13697198442563       10.03387493634671
O           64.88820761039260       -2.20499941202534        9.49691962055025
O           67.36679389954871       -2.23694010601994        9.66993587003028
C           65.61975639190391        0.02661332883431        7.10109923335738
C           65.58918515281768        0.22600077220062        5.73063972378122
C           67.36639520027289       -0.35422773153711        2.75434229537407
C           68.64734623810348       -0.36475576799325        3.40836221739473
C           69.58686285905289       -0.19129188245731        2.44667873997129
C           68.88930654833736       -0.06323279865893        1.19905397403665
N           67.54401265906858       -0.16351176961321        1.41461483258682
H           70.58574956887726        0.16244680047449       -0.03605489979843
H           70.60982156420839        0.46277318547979       -2.63303338714418
H           68.71215379678897        0.68200980338383       -4.52218558882096
H           66.96100721095505        2.70873420334832       -4.77365379274838
H           66.95116068610803        3.05641974090715       -7.23416017247748
H           67.66021886664693        0.80967995697922      -10.63757734017814
H           65.11692506956567       -0.77696786184650       -7.77226206432915
H           65.13099826995808       -1.13136290294777       -5.31273096891915
H           63.40154039412577        0.75838089249103       -4.46319154378396
H           61.53488887330640        0.43298599334782       -2.56059085973735
H           61.59212107640175       -0.55384221642824        2.60698896355486
H           63.49819143561344       -0.82140807786756        4.47953704233088
H           67.18001731481267       -2.59716068182315        4.72042044712657
H           67.24539666874304       -2.95864479944650        7.17793302168604
H           64.63649705511182       -2.24603995725703       10.42724146351076
H           65.19633727888927        0.75422278337815        7.78207496254530
H           65.14007266311972        1.12550438701533        5.32599878344065
H           68.80035195206021       -0.47759338612662        4.46951738372635
H           70.65843851505699       -0.14323450760251        2.55874206553938
C           33.70590254283267       -0.00080547000334       -0.04620666746147
C           34.92998944322454       -0.00623061450494       -0.05418012950982
C           36.27341773604901       -0.00794179382132       -0.06073492757877
C           37.50370018054240       -0.01118369071154       -0.06117231990443
C           38.84224782550258       -0.01379174974905       -0.06142717006587
C           40.07255717985969       -0.01838911256244       -0.05994271275715
C           41.41577839542889       -0.02141541007039       -0.05988966074750
C           42.64006587904251       -0.02757173852974       -0.05178082629484
C           52.32469953524182       -0.06569353394177        0.00801405357463
C           53.54898610308221       -0.06902730702805        0.01658813553796
C           54.89220424460521       -0.07178855999629        0.02344032350039
C           56.12253886426413       -0.07225522669008        0.02884173186730
C           57.46110943603210       -0.07171696736442        0.03140040082783
C           58.69138972780862       -0.06837691942688        0.03177248788524
C           60.03481843552509       -0.05858608925942        0.03087567820064
C           61.25889655894278       -0.04795499261948        0.02769358255594
Cu          47.48269159562829       -0.04404560409243       -0.02600430947539
C           44.04579962810195       -0.03120646346439       -0.04583597223242
C           44.69439729475721        1.04125017320690        0.59194561444741
C           44.01671653569771        2.11026484065445        1.26217996723231
C           44.97312355468059        2.94765736117288        1.73748272193625
C           46.24207449270049        2.39734934464404        1.35285318476040
N           46.03959113382999        1.23243390031870        0.66305874129028
C           47.48399290580316        2.95690449782622        1.66058685785665
C           47.48264242628655        4.25488339891845        2.38042112647788
C           48.03521493151599        4.35394212381778        3.65950626447087
C           48.03384681524882        5.56371669385632        4.33439446421773
C           47.47776642816955        6.67056116647009        3.71396644387506
S           47.48447113439714        8.20799308282637        4.55702593907750
O           47.39647753010369        9.30265109662327        3.63475524562915
O           46.04742177089760        8.08063159428394        5.30382719644496
O           48.51636300502628        8.22929140575218        5.55023760398634
C           46.92769483315514        6.60511589354231        2.44403129215024
C           46.93023995634072        5.38930451914255        1.78056036003220
C           48.72547893995699        2.40058974059490        1.34591912734838
C           49.99535805165583        3.01275706872939        1.61758750465716
C           50.95070204724970        2.16836326594276        1.15285262648557
N           48.92654807910047        1.20427118647422        0.71130650047325
C           50.27158777041541        1.04134486099107        0.58706478989638
C           50.91892317462842       -0.05976716619876       -0.00138115055270
C           50.27001388072725       -1.15421956964276       -0.60028469203794
C           50.94689865927693       -2.28610105687831       -1.15900678141199
C           49.99071985800654       -3.12010996794630       -1.64047046393047
C           48.72268655494526       -2.49689005229291       -1.38568093846465
N           48.92544948036544       -1.30435445759752       -0.74458498731705
C           47.48088233358474       -3.04111935901871       -1.71974448764486
C           47.47845356653503       -4.33467937309761       -2.44737429711034
C           48.04923074296456       -4.43007124373640       -3.71879490798776
C           48.04591461171673       -5.63473995832399       -4.40263586924945
C           47.46923387611542       -6.74035700510069       -3.79895291828160
S           47.47184599943234       -8.27085473393751       -4.65437009991255
O           47.34048828165911       -9.37106431018202       -3.74395724561518
O           46.05780755328114       -8.11114774424537       -5.43825127338632
O           48.52891996614106       -8.30304693432417       -5.62054542057232
C           46.90137689088368       -6.67876584112457       -2.53670858807057
C           46.90642700202321       -5.46797824594929       -1.86405178652613
C           46.23969035424484       -2.47270383631595       -1.42547026249921
C           44.97111083728946       -3.01214567450363       -1.82641766287002
C           44.01560814887893       -2.16952177914557       -1.35858936756605
C           44.69360899581100       -1.10743138666705       -0.67784964659392
N           46.03808642565311       -1.30838073997380       -0.73442097157212
H           42.94629105732476        2.19665327300951        1.35798603911408
H           44.83543803691861        3.85065858672660        2.30984115896187
H           48.45612158525584        3.47347767259730        4.13081046401070
H           48.45962760062653        5.65215737999720        5.32596092055765
H           45.76687480325473        8.94276517497112        5.63376824198142
H           46.51249816914193        7.49300113460795        1.98393638044254
H           46.51521069308209        5.31832084628832        0.78193083511082
H           50.13444311008086        3.97130782935638        2.09060621321840
H           52.02134848022981        2.29279499346492        1.17882350188240
H           52.01662876821845       -2.42042645333708       -1.16950685019434
H           50.12789830307786       -4.07863946880486       -2.11409838971172
H           48.48583344412941       -3.55045419328056       -4.17723288228452
H           48.48562636372498       -5.72021172626542       -5.38836894732369
H           45.77868516838881       -8.96242010044030       -5.79652198813307
H           46.47043657396721       -7.56574348063585       -2.08952339960375
H           46.47767460776673       -5.40035640460200       -0.87100475012265
H           44.83304104010215       -3.91207688549377       -2.40349655349324
H           42.94569903135638       -2.24777192819139       -1.46652393184704

          :  Hamiltonian                  GFN1-xTB          :
         :: total energy            -424.593888199375 Eh    ::
         :: gradient norm              0.000815749131 Eh/a0 ::
         :: HOMO-LUMO gap              0.000659064262 eV    ::
         :: SCC energy              -430.470839937802 Eh    ::
         :: repulsion energy           6.064831822145 Eh    ::

    * Orbital Energies and Occupations

         #    Occupation            Energy/Eh            Energy/eV
      -------------------------------------------------------------
         1        2.0000           -1.0362388             -28.1975
       ...           ...                  ...                  ...
       359        2.0000           -0.4255323             -11.5793
       360        2.0000           -0.4251939             -11.5701
       361        2.0000           -0.4251165             -11.5680
       362        2.0000           -0.4250671             -11.5667
       363        2.0000           -0.4210221             -11.4566
       364        2.0000           -0.4137044             -11.2575
       365        2.0000           -0.4135727             -11.2539
       366        2.0000           -0.4135478             -11.2532
       367        2.0000           -0.4036472             -10.9838
       368        2.0000           -0.4028589             -10.9623
       369        2.0000           -0.3985051             -10.8439
       370        1.0251           -0.3734640             -10.1625
       371        0.9931           -0.3733955             -10.1606 (HOMO)
       372        0.9818           -0.3733713             -10.1599 (LUMO)
       373                         -0.3555822              -9.6759
       374                         -0.3511722              -9.5559
       375                         -0.3501779              -9.5288
       376                         -0.3479657              -9.4686
       377                         -0.3477882              -9.4638
       378                         -0.3475088              -9.4562
       379                         -0.3273442              -8.9075
       380                         -0.3207291              -8.7275
       381                         -0.3204999              -8.7212
       382                         -0.3104204              -8.4470
       ...                                ...                  ...
       761                          1.5928338              43.3432
      -------------------------------------------------------------
                  HL-Gap            0.0000242 Eh            0.0007 eV

Wiberg/Mayer (AO) data.
largest (>0.10) Wiberg bond orders for each atom

     #   Z sym  total        # sym  WBO       # sym  WBO       # sym  WBO
 ---------------------------------------------------------------------------
     1  29 Cu   2.184 --    45 N    0.505     7 N    0.504    22 N    0.501
                            29 N    0.501
     2   6 C    3.932 --    44 C    1.363     3 C    1.362    46 H    0.971
     3   6 C    3.915 --     2 C    1.362     7 N    1.229     4 C    1.169
     4   6 C    3.955 --     5 C    1.658     3 C    1.169    47 H    0.975
     5   6 C    3.958 --     4 C    1.658     6 C    1.170    48 H    0.973
     6   6 C    3.914 --     8 C    1.320     7 N    1.240     5 C    1.170
     7   7 N    3.244 --     6 C    1.240     3 C    1.229     1 Cu   0.504
     8   6 C    3.933 --    19 C    1.325     6 C    1.320     9 C    1.027
     9   6 C    3.986 --    18 C    1.392    10 C    1.391     8 C    1.027
    10   6 C    3.987 --    11 C    1.450     9 C    1.391    49 H    0.971
                            17 C    0.106
    11   6 C    3.989 --    10 C    1.450    12 C    1.407    50 H    0.967
                            18 C    0.106
    12   6 C    3.930 --    17 C    1.407    11 C    1.407    13 S    0.754
    13  16 S    5.264 --    14 O    1.720    16 O    1.719    15 O    1.012
                            12 C    0.754
    14   8 O    2.078 --    13 S    1.720    16 O    0.139
    15   8 O    2.087 --    13 S    1.012    51 H    0.828
    16   8 O    2.078 --    13 S    1.719    14 O    0.139
    17   6 C    3.989 --    18 C    1.450    12 C    1.407    52 H    0.967
                            10 C    0.106
    18   6 C    3.987 --    17 C    1.450     9 C    1.392    53 H    0.971
                            11 C    0.106
    19   6 C    3.908 --     8 C    1.325    22 N    1.224    20 C    1.178
    20   6 C    3.954 --    21 C    1.644    19 C    1.178    54 H    0.973
    21   6 C    3.956 --    20 C    1.644    23 C    1.185    55 H    0.973
    22   7 N    3.248 --    23 C    1.255    19 C    1.224     1 Cu   0.501
    23   6 C    3.895 --    24 C    1.261    22 N    1.255    21 C    1.185
    24   6 C    3.942 --    23 C    1.261    25 C    1.261   129 C    1.186
    25   6 C    3.896 --    24 C    1.261    29 N    1.255    26 C    1.186
    26   6 C    3.956 --    27 C    1.644    25 C    1.186    56 H    0.974
    27   6 C    3.954 --    26 C    1.644    28 C    1.178    57 H    0.973
    28   6 C    3.908 --    30 C    1.325    29 N    1.224    27 C    1.178
    29   7 N    3.248 --    25 C    1.255    28 C    1.224     1 Cu   0.501
    30   6 C    3.933 --    28 C    1.325    41 C    1.319    31 C    1.028
    31   6 C    3.986 --    40 C    1.391    32 C    1.391    30 C    1.028
    32   6 C    3.987 --    33 C    1.450    31 C    1.391    58 H    0.971
                            39 C    0.106
    33   6 C    3.989 --    32 C    1.450    34 C    1.407    59 H    0.967
                            40 C    0.106
    34   6 C    3.930 --    39 C    1.407    33 C    1.407    35 S    0.754
    35  16 S    5.265 --    38 O    1.725    36 O    1.714    37 O    1.013
                            34 C    0.754
    36   8 O    2.073 --    35 S    1.714    38 O    0.139
    37   8 O    2.088 --    35 S    1.013    60 H    0.828
    38   8 O    2.083 --    35 S    1.725    36 O    0.139
    39   6 C    3.989 --    40 C    1.450    34 C    1.407    61 H    0.967
                            32 C    0.106
    40   6 C    3.987 --    39 C    1.450    31 C    1.391    62 H    0.971
                            33 C    0.106
    41   6 C    3.914 --    30 C    1.319    45 N    1.240    42 C    1.170
    42   6 C    3.958 --    43 C    1.658    41 C    1.170    63 H    0.973
    43   6 C    3.955 --    42 C    1.658    44 C    1.169    64 H    0.975
    44   6 C    3.915 --     2 C    1.363    45 N    1.229    43 C    1.169
    45   7 N    3.244 --    41 C    1.240    44 C    1.229     1 Cu   0.505
    46   1 H    1.001 --     2 C    0.971
    47   1 H    0.997 --     4 C    0.975
    48   1 H    1.003 --     5 C    0.973
    49   1 H    1.003 --    10 C    0.971
    50   1 H    0.999 --    11 C    0.967
    51   1 H    0.854 --    15 O    0.828
    52   1 H    1.000 --    17 C    0.967
    53   1 H    1.003 --    18 C    0.971
    54   1 H    1.003 --    20 C    0.973
    55   1 H    1.001 --    21 C    0.973
    56   1 H    1.001 --    26 C    0.974
    57   1 H    1.003 --    27 C    0.973
    58   1 H    1.003 --    32 C    0.971
    59   1 H    0.999 --    33 C    0.967
    60   1 H    0.854 --    37 O    0.828
    61   1 H    1.000 --    39 C    0.967
    62   1 H    1.003 --    40 C    0.971
    63   1 H    1.003 --    42 C    0.973
    64   1 H    0.997 --    43 C    0.975
    65  29 Cu   2.191 --   109 N    0.506    71 N    0.506    86 N    0.503
                            93 N    0.503
    66   6 C    3.932 --   108 C    1.363    67 C    1.362   110 H    0.971
    67   6 C    3.915 --    66 C    1.362    71 N    1.229    68 C    1.169
    68   6 C    3.955 --    69 C    1.658    67 C    1.169   111 H    0.975
    69   6 C    3.958 --    68 C    1.658    70 C    1.170   112 H    0.973
    70   6 C    3.914 --    72 C    1.320    71 N    1.239    69 C    1.170
    71   7 N    3.244 --    70 C    1.239    67 C    1.229    65 Cu   0.506
    72   6 C    3.933 --    83 C    1.325    70 C    1.320    73 C    1.027
    73   6 C    3.986 --    82 C    1.392    74 C    1.391    72 C    1.027
    74   6 C    3.987 --    75 C    1.450    73 C    1.391   113 H    0.971
                            81 C    0.106
    75   6 C    3.989 --    74 C    1.450    76 C    1.407   114 H    0.967
                            82 C    0.106
    76   6 C    3.930 --    81 C    1.407    75 C    1.407    77 S    0.754
    77  16 S    5.264 --    78 O    1.720    80 O    1.718    79 O    1.012
                            76 C    0.754
    78   8 O    2.079 --    77 S    1.720    80 O    0.139
    79   8 O    2.087 --    77 S    1.012   115 H    0.828
    80   8 O    2.077 --    77 S    1.718    78 O    0.139
    81   6 C    3.989 --    82 C    1.450    76 C    1.407   116 H    0.967
                            74 C    0.106
    82   6 C    3.987 --    81 C    1.450    73 C    1.392   117 H    0.971
                            75 C    0.106
    83   6 C    3.908 --    72 C    1.325    86 N    1.223    84 C    1.178
    84   6 C    3.954 --    85 C    1.644    83 C    1.178   118 H    0.973
    85   6 C    3.956 --    84 C    1.644    87 C    1.185   119 H    0.973
    86   7 N    3.249 --    87 C    1.255    83 C    1.223    65 Cu   0.503
    87   6 C    3.895 --    88 C    1.261    86 N    1.255    85 C    1.185
    88   6 C    3.942 --    89 C    1.261    87 C    1.261   144 C    1.186
    89   6 C    3.895 --    88 C    1.261    93 N    1.255    90 C    1.186
    90   6 C    3.956 --    91 C    1.644    89 C    1.186   120 H    0.973
    91   6 C    3.954 --    90 C    1.644    92 C    1.178   121 H    0.973
    92   6 C    3.908 --    94 C    1.325    93 N    1.223    91 C    1.178
    93   7 N    3.249 --    89 C    1.255    92 C    1.223    65 Cu   0.503
    94   6 C    3.933 --    92 C    1.325   105 C    1.320    95 C    1.028
    95   6 C    3.986 --   104 C    1.391    96 C    1.391    94 C    1.028
    96   6 C    3.987 --    97 C    1.450    95 C    1.391   122 H    0.971
                           103 C    0.106
    97   6 C    3.989 --    96 C    1.450    98 C    1.407   123 H    0.967
                           104 C    0.106
    98   6 C    3.930 --   103 C    1.407    97 C    1.407    99 S    0.754
    99  16 S    5.266 --   102 O    1.725   100 O    1.714   101 O    1.013
                            98 C    0.754
   100   8 O    2.073 --    99 S    1.714   102 O    0.139
   101   8 O    2.088 --    99 S    1.013   124 H    0.828
   102   8 O    2.083 --    99 S    1.725   100 O    0.139
   103   6 C    3.989 --   104 C    1.450    98 C    1.407   125 H    0.967
                            96 C    0.106
   104   6 C    3.987 --   103 C    1.450    95 C    1.391   126 H    0.971
                            97 C    0.106
   105   6 C    3.914 --    94 C    1.320   109 N    1.240   106 C    1.170
   106   6 C    3.958 --   107 C    1.658   105 C    1.170   127 H    0.973
   107   6 C    3.955 --   106 C    1.658   108 C    1.169   128 H    0.975
   108   6 C    3.915 --    66 C    1.363   109 N    1.228   107 C    1.169
   109   7 N    3.245 --   105 C    1.240   108 C    1.228    65 Cu   0.506
   110   1 H    1.001 --    66 C    0.971
   111   1 H    0.997 --    68 C    0.975
   112   1 H    1.003 --    69 C    0.973
   113   1 H    1.003 --    74 C    0.971
   114   1 H    0.999 --    75 C    0.967
   115   1 H    0.854 --    79 O    0.828
   116   1 H    1.000 --    81 C    0.967
   117   1 H    1.003 --    82 C    0.971
   118   1 H    1.003 --    84 C    0.973
   119   1 H    1.001 --    85 C    0.973
   120   1 H    1.001 --    90 C    0.973
   121   1 H    1.003 --    91 C    0.973
   122   1 H    1.003 --    96 C    0.971
   123   1 H    0.999 --    97 C    0.967
   124   1 H    0.854 --   101 O    0.828
   125   1 H    1.000 --   103 C    0.967
   126   1 H    1.003 --   104 C    0.971
   127   1 H    1.003 --   106 C    0.973
   128   1 H    0.997 --   107 C    0.975
   129   6 C    3.877 --   130 C    2.446    24 C    1.186   132 C    0.187
   130   6 C    3.936 --   129 C    2.446   131 C    1.339
   131   6 C    3.892 --   132 C    2.341   130 C    1.339   134 C    0.182
   132   6 C    3.926 --   131 C    2.341   133 C    1.365   129 C    0.187
   133   6 C    3.924 --   134 C    2.341   132 C    1.365   136 C    0.186
   134   6 C    3.893 --   133 C    2.341   135 C    1.341   131 C    0.182
   135   6 C    3.934 --   136 C    2.443   134 C    1.341
   136   6 C    3.877 --   135 C    2.443   146 C    1.188   133 C    0.186
   137   6 C    3.877 --   138 C    2.443   168 C    1.188   140 C    0.186
   138   6 C    3.934 --   137 C    2.443   139 C    1.341
   139   6 C    3.893 --   140 C    2.341   138 C    1.341   142 C    0.182
   140   6 C    3.924 --   139 C    2.341   141 C    1.365   137 C    0.186
   141   6 C    3.926 --   142 C    2.341   140 C    1.365   144 C    0.187
   142   6 C    3.892 --   141 C    2.341   143 C    1.339   139 C    0.182
   143   6 C    3.936 --   144 C    2.446   142 C    1.339
   144   6 C    3.877 --   143 C    2.446    88 C    1.186   141 C    0.187
   145  29 Cu   2.154 --   173 N    0.497   166 N    0.497   151 N    0.496
                           189 N    0.496
   146   6 C    3.932 --   188 C    1.258   147 C    1.258   136 C    1.188
   147   6 C    3.896 --   146 C    1.258   151 N    1.258   148 C    1.186
   148   6 C    3.955 --   149 C    1.643   147 C    1.186   190 H    0.974
   149   6 C    3.955 --   148 C    1.643   150 C    1.179   191 H    0.973
   150   6 C    3.907 --   152 C    1.322   151 N    1.224   149 C    1.179
   151   7 N    3.241 --   147 C    1.258   150 C    1.224   145 Cu   0.496
   152   6 C    3.929 --   163 C    1.323   150 C    1.322   153 C    1.027
   153   6 C    3.986 --   154 C    1.392   162 C    1.391   152 C    1.027
   154   6 C    3.987 --   155 C    1.449   153 C    1.392   192 H    0.971
                           161 C    0.106
   155   6 C    3.989 --   154 C    1.449   156 C    1.408   193 H    0.967
                           162 C    0.106
   156   6 C    3.930 --   155 C    1.408   161 C    1.407   157 S    0.754
   157  16 S    5.266 --   160 O    1.726   158 O    1.714   159 O    1.013
                           156 C    0.754
   158   8 O    2.073 --   157 S    1.714   160 O    0.139
   159   8 O    2.088 --   157 S    1.013   194 H    0.828
   160   8 O    2.084 --   157 S    1.726   158 O    0.139
   161   6 C    3.989 --   162 C    1.450   156 C    1.407   195 H    0.967
                           154 C    0.106
   162   6 C    3.987 --   161 C    1.450   153 C    1.391   196 H    0.971
                           155 C    0.106
   163   6 C    3.907 --   152 C    1.323   166 N    1.224   164 C    1.178
   164   6 C    3.955 --   165 C    1.643   163 C    1.178   197 H    0.973
   165   6 C    3.955 --   164 C    1.643   167 C    1.186   198 H    0.973
   166   7 N    3.241 --   167 C    1.258   163 C    1.224   145 Cu   0.497
   167   6 C    3.896 --   168 C    1.258   166 N    1.258   165 C    1.186
   168   6 C    3.932 --   169 C    1.259   167 C    1.258   137 C    1.188
   169   6 C    3.896 --   168 C    1.259   173 N    1.258   170 C    1.186
   170   6 C    3.955 --   171 C    1.643   169 C    1.186   199 H    0.973
   171   6 C    3.955 --   170 C    1.643   172 C    1.178   200 H    0.973
   172   6 C    3.907 --   174 C    1.323   173 N    1.224   171 C    1.178
   173   7 N    3.241 --   169 C    1.258   172 C    1.224   145 Cu   0.497
   174   6 C    3.929 --   172 C    1.323   185 C    1.322   175 C    1.027
   175   6 C    3.986 --   176 C    1.392   184 C    1.391   174 C    1.027
   176   6 C    3.987 --   177 C    1.449   175 C    1.392   201 H    0.971
                           183 C    0.106
   177   6 C    3.989 --   176 C    1.449   178 C    1.407   202 H    0.967
                           184 C    0.106
   178   6 C    3.930 --   177 C    1.407   183 C    1.407   179 S    0.754
   179  16 S    5.265 --   182 O    1.726   180 O    1.714   181 O    1.013
                           178 C    0.754
   180   8 O    2.073 --   179 S    1.714   182 O    0.139
   181   8 O    2.087 --   179 S    1.013   203 H    0.828
   182   8 O    2.084 --   179 S    1.726   180 O    0.139
   183   6 C    3.989 --   184 C    1.450   178 C    1.407   204 H    0.967
                           176 C    0.106
   184   6 C    3.987 --   183 C    1.450   175 C    1.391   205 H    0.971
                           177 C    0.106
   185   6 C    3.907 --   174 C    1.322   189 N    1.225   186 C    1.179
   186   6 C    3.955 --   187 C    1.643   185 C    1.179   206 H    0.973
   187   6 C    3.955 --   186 C    1.643   188 C    1.186   207 H    0.974
   188   6 C    3.896 --   146 C    1.258   189 N    1.258   187 C    1.186
   189   7 N    3.241 --   188 C    1.258   185 C    1.225   145 Cu   0.496
   190   1 H    1.001 --   148 C    0.974
   191   1 H    1.003 --   149 C    0.973
   192   1 H    1.003 --   154 C    0.971
   193   1 H    0.999 --   155 C    0.967
   194   1 H    0.855 --   159 O    0.828
   195   1 H    1.000 --   161 C    0.967
   196   1 H    1.003 --   162 C    0.971
   197   1 H    1.003 --   164 C    0.973
   198   1 H    1.001 --   165 C    0.973
   199   1 H    1.001 --   170 C    0.973
   200   1 H    1.003 --   171 C    0.973
   201   1 H    1.003 --   176 C    0.971
   202   1 H    0.999 --   177 C    0.967
   203   1 H    0.855 --   181 O    0.828
   204   1 H    1.000 --   183 C    0.967
   205   1 H    1.003 --   184 C    0.971
   206   1 H    1.003 --   186 C    0.973
   207   1 H    1.001 --   187 C    0.974
 ---------------------------------------------------------------------------

           -------------------------------------------------
          | TOTAL ENERGY             -424.593888199375 Eh   |
          | GRADIENT NORM               0.000815749131 Eh/α |
          | HOMO-LUMO GAP               0.000659064262 eV   |
           -------------------------------------------------

 * finished run on 2022/07/30 at 14:00:04.566
