   * xtb version 6.5.1 (b24c23e) compiled by 'conda@728c89f4b128' on 2022-07-12
          program call               : xtb Fe_PhNO2_C6_3.xyz --gfn 1 --opt -T 48

   ID    Z sym.   atoms
    1   26 Fe     1, 61, 133
    2    6 C      2-6, 8-12, 16-20, 22-27, 29-33, 37-42, 62-66, 68-72, 76-80,
                  82-87, 89-93, 97-102, 121-132, 134-138, 140-144, 148-152,
                  154-159, 161-165, 169-174
    3    7 N      7, 13, 21, 28, 34, 43, 67, 73, 81, 88, 94, 103, 139, 145,
                  153, 160, 166, 175
    4    8 O      14, 15, 35, 36, 74, 75, 95, 96, 146, 147, 167, 168
    5    1 H      44-60, 104-120, 176-191

          :  Hamiltonian                  GFN1-xTB          :
 * total energy  :  -376.3567251 Eh     change       -0.1834331E-07 Eh
 * total energy  :  -376.5942807 Eh     change       -0.2375557E+00 Eh
 * total energy  :  -376.7209948 Eh     change       -0.1267141E+00 Eh
 * total energy  :  -376.7731649 Eh     change       -0.5217015E-01 Eh
 * total energy  :  -376.8325186 Eh     change       -0.5935365E-01 Eh
 * total energy  :  -376.8896085 Eh     change       -0.5708989E-01 Eh
 * total energy  :  -376.9269132 Eh     change       -0.3730473E-01 Eh
 * total energy  :  -376.9521890 Eh     change       -0.2527581E-01 Eh
 * total energy  :  -376.9729884 Eh     change       -0.2079941E-01 Eh
 * total energy  :  -376.9891304 Eh     change       -0.1614195E-01 Eh
 * total energy  :  -377.1256884 Eh     change       -0.2726202E-04 Eh
 * total energy  :  -377.1257289 Eh     change       -0.4054095E-04 Eh
 * total energy  :  -377.1257882 Eh     change       -0.5928766E-04 Eh
 * total energy  :  -377.1258133 Eh     change       -0.2503721E-04 Eh
 * total energy  :  -377.1257855 Eh     change        0.2777631E-04 Eh
 * total energy  :  -377.1258339 Eh     change       -0.4844747E-04 Eh
 * total energy  :  -377.1258285 Eh     change        0.5463751E-05 Eh
 * total energy  :  -377.1258423 Eh     change       -0.1381575E-04 Eh
 * total energy  :  -377.1258472 Eh     change       -0.4947471E-05 Eh
   *** GEOMETRY OPTIMIZATION CONVERGED AFTER 72 ITERATIONS ***

 final structure:
================
191
 xtb: 6.5.1 (b24c23e)
Fe          29.77071723652975       -0.00375004655243       -0.08351032398626
C           26.38434727103574       -0.00806353985141       -0.22666060025074
C           27.03154178117593       -1.22624125595889       -0.24024338522081
C           26.35220226629059       -2.48602095437092       -0.27938898853472
C           27.30832506114347       -3.43939096278723       -0.37387522327592
C           28.57066462460503       -2.75795619310549       -0.41002839666519
N           28.38920802830743       -1.40788281969292       -0.28229790741144
C           29.79335197580714       -3.39168221610748       -0.60583899029985
C           29.80007441106047       -4.85432185912054       -0.83579135094310
C           30.46759470030605       -5.70568818498944        0.04951912667124
C           30.46796491201398       -7.07331178620793       -0.15690882691010
C           29.80015154820163       -7.59319577088909       -1.26195457015076
N           29.79654091140502       -9.02890451512178       -1.48313564059628
O           29.20004300229695       -9.44338990554085       -2.44357281755972
O           30.39009356498713       -9.71617968366597       -0.69228218270635
C           29.13471914561702       -6.76214507900129       -2.15860747919953
C           29.13560523300199       -5.39661513405713       -1.94001976771466
C           31.00427724275308       -2.71298515011712       -0.61007055346222
C           32.26823205386881       -3.33000880563898       -0.88423396297088
C           33.21255135944234       -2.37155194711732       -0.72769173307654
N           31.17580876533122       -1.37917742867053       -0.32788385734393
C           32.52327654472837       -1.17302469519750       -0.36429963170570
C           33.18022773836441        0.01513150362836       -0.02252723030678
C           32.49939126774608        1.18934680071499        0.32141844139644
C           33.16251457064035        2.38410824491775        0.74147218225482
C           32.19996850361483        3.32058700497942        0.91836655448613
C           30.95250203543386        2.69771176548670        0.58714874547453
N           31.15032962648741        1.37661817525056        0.26337647733884
C           29.73626905621878        3.36499924984572        0.54944165697249
C           29.71091222868552        4.81699475924938        0.83833390621478
C           28.97575861316672        5.30347588556586        1.92355623182782
C           28.94180575111697        6.65836320271803        2.19843508452663
C           29.64431519696350        7.53512370289031        1.37668874699169
N           29.60635624914441        8.96011696563918        1.65663177590655
O           28.95271780698521        9.32539025888556        2.59972309716526
O           30.23029145313992        9.68798783889490        0.92811277960647
C           30.38065811539357        7.07118914016891        0.29044066255232
C           30.41313928898993        5.71362318750853        0.02779910740825
C           28.53517353269790        2.73362085115261        0.24221502352275
C           27.27897046538911        3.41550947660135        0.11576409162972
C           26.34106350894917        2.46740406536372       -0.11526113909816
C           27.02522907248034        1.20960903010485       -0.13334340765808
N           28.37185711696256        1.38956060372645        0.04917861412018
H           25.30168855218932       -0.00849612110284       -0.28115681897982
H           25.28143070669196       -2.60517312320202       -0.23627814353620
H           27.18254734854775       -4.50916194959193       -0.41266147104317
H           30.97365528599300       -5.28892065145656        0.91246515478048
H           30.97583820714940       -7.74227177222141        0.52736110881356
H           28.62672755095828       -7.19156665085889       -3.01372252986919
H           28.63051504181339       -4.73743923348465       -2.63632282430727
H           32.40484902411670       -4.36084493067877       -1.16754838255756
H           34.28122218361779       -2.45404819070473       -0.84248724154893
H           34.22712739300967        2.47752115769379        0.88264007807757
H           32.31438004438981        4.34104456894536        1.24560142597747
H           28.44061790418350        4.60883365440230        2.56040142186753
H           28.37932324253326        7.04470116420230        3.03988263672892
H           30.91513925723553        7.77512859449404       -0.33604095685781
H           30.97205289611964        5.34064670304179       -0.82247105329153
H           27.14607534976282        4.48269723777096        0.18812919577592
H           25.27927424018047        2.58831110389025       -0.25873500332560
Fe          61.74575318616926        0.06069736720151       -0.04041886112335
C           65.12911740314085        0.10999943467073       -0.18041278790502
C           64.48561183121734        1.23913514269748        0.28292131561644
C           65.16558490004574        2.41403824778217        0.73830544786262
C           64.21132426677345        3.33839648198984        0.99816545346346
C           62.94968450980705        2.73100167498580        0.68427621876714
N           63.12878466835141        1.43125160907480        0.29699218809221
C           61.73132610666909        3.40283084333107        0.70542217132466
C           61.72915128113325        4.84829458985204        1.02427007966469
C           61.02888030528074        5.32538842325832        2.13620530361803
C           61.03404196884166        6.67376989055313        2.44402210025311
C           61.74035960997899        7.55352169113042        1.62883442469221
N           61.75049813323969        8.97061295244981        1.94856831011600
O           62.38083868541496        9.70001197937103        1.22694001955703
O           61.12886591076476        9.32821559269121        2.91578532196204
C           62.43843203151277        7.09968294968021        0.51341682442779
C           62.43174369224499        5.74879810630750        0.21768940565812
C           60.52159374019434        2.78045551755628        0.42828238923092
C           59.26190851529391        3.46079771746024        0.36590122514667
C           58.31525404251287        2.51213378403461        0.16704768682760
N           60.34578022116666        1.43346309065415        0.22215381348369
C           58.99894094214324        1.25830483258308        0.10335298035768
C           58.33927908577517        0.02468813655196        0.03162572096719
C           59.02060667560542       -1.19716642477463       -0.04338405508130
C           58.36150735607107       -2.46561618978259       -0.04788457271104
C           59.32170584179531       -3.40140858789687       -0.24271938852630
C           60.56330358247723       -2.69770668737881       -0.37318187524600
N           60.36619488037825       -1.34870732008129       -0.19891315046745
C           61.77078491804876       -3.29947865810936       -0.69962636359760
C           61.79103586234534       -4.75350902417114       -0.97606893887066
C           62.57080797217029       -5.60770844682279       -0.19032529603348
C           62.60177744194472       -6.96616209976176       -0.44733081846829
C           61.85091547049841       -7.47406641887122       -1.50361315352164
N           61.88675743141903       -8.89888091079922       -1.78358712803520
O           62.57953042172078       -9.58822436676013       -1.08018290453629
O           61.22155928165450       -9.30322897773315       -2.70252243892345
C           61.06849204138535       -6.64079195200003       -2.29786358082102
C           61.03956347653901       -5.28450336185107       -2.02854255085438
C           62.96750545878215       -2.59448121049222       -0.78786157036076
C           64.21551845428682       -3.17282828954464       -1.19656786411200
C           65.15681121969327       -2.20989595893628       -1.05779210333248
C           64.48242292496363       -1.04402591850581       -0.57156427663668
N           63.13727211199092       -1.27959486188472       -0.45274766720600
H           66.21175992239324        0.12779961972285       -0.23199481166289
H           66.23547529056979        2.50098960816827        0.84017382149308
H           64.33806473792416        4.34164908681764        1.37123874449157
H           60.49323988995486        4.62814344309112        2.76977987990406
H           60.50122731333020        7.05241527703021        3.30797708877560
H           62.97610077796684        7.80577183815572       -0.10789752538198
H           62.96225917340194        5.38375240061644       -0.65395904750595
H           59.12946880135180        4.52660674077232        0.45604041982937
H           57.24828196287614        2.63470061539889        0.07416279028471
H           57.30090975485871       -2.60632978867299        0.08405494165626
H           59.20940451880787       -4.47216163435581       -0.29217235193824
H           63.14346050107839       -5.20030134462473        0.63463398707025
H           63.19917418209177       -7.63679577813233        0.15851515569992
H           60.49636099753940       -7.06094188302541       -3.11627342505561
H           60.44513931210577       -4.62295951200018       -2.64780945652973
H           64.34158203302663       -4.18383424201785       -1.54838856901099
H           66.21496185558566       -2.26620069161886       -1.25716271556030
C           38.37856912661508        0.04168490712540        0.01786635066185
C           37.14811641582001        0.03886333988169        0.00897349383732
C           35.80690427628456        0.03489996564813        0.00117998333280
C           34.58131885899770        0.02654542199374       -0.01248155288104
C           39.71947965563602        0.04151970234563        0.02069922623826
C           40.94553389328801        0.03896093209128        0.02116563287008
C           54.37259128502528       -0.01188770027594        0.04729531592701
C           53.14172641632099       -0.02008876645484        0.04351864656992
C           51.80142526279038       -0.02248764761511        0.03664429380333
C           50.57504088080496       -0.02320484186939        0.02586115658456
C           55.71314934456620       -0.00110493638320        0.04625326497200
C           56.93916979332246        0.01115672818645        0.04255085514097
Fe          45.76063441351855        0.00763260076859       -0.00700269688336
C           42.34523230549697        0.03109493371529        0.01470197259693
C           43.01080966127545       -1.18485259202457        0.21894462084685
C           42.33362571785015       -2.41612986619504        0.47817329065591
C           43.28197793532352       -3.38419906946058        0.49195618371095
C           44.53337221801183       -2.73788692380827        0.23137872603363
N           44.35524282014025       -1.38193067811492        0.11136828759308
C           45.73814112822856       -3.41057564795629        0.06407456329001
C           45.72435884086545       -4.89084110609256        0.09170014441472
C           46.44774816294571       -5.58575979340427        1.06531013354550
C           46.43024917314259       -6.96835628058255        1.09933170434169
C           45.68800593030648       -7.66121582312923        0.14748374117909
N           45.66685093069947       -9.11407451788389        0.17826528468057
O           45.00920898356903       -9.67920106750317       -0.65674529253571
O           46.30822249111546       -9.66196572197348        1.03735257144702
C           44.96454332676603       -6.98817676180609       -0.83265189727127
C           44.98341338723915       -5.60542773288149       -0.85423029531029
C           46.95279396202082       -2.76229680718871       -0.12247418507270
C           48.19861102084288       -3.43510055600851       -0.33929138122921
C           49.16053974000153       -2.48037817969826       -0.34562447021136
N           47.14865358645851       -1.40462349116126       -0.05383508526936
C           48.49682454300704       -1.23056252622332       -0.14719225167843
C           49.17609108650787       -0.01495257297238        0.01283198096744
C           48.51063122015904        1.21083063172589        0.15090015167837
C           49.18855150678755        2.45553920159437        0.33359519088429
C           48.24099973577324        3.42329672061769        0.28559627030500
C           46.98906835147025        2.76263564944269        0.06729778580651
N           47.16663083692656        1.40158971047968        0.03056538130861
C           45.78397104459767        3.42405040256275       -0.13479793886990
C           45.79569916606727        4.90350534377263       -0.19810476581373
C           46.51655288001827        5.55897989474279       -1.20043763768002
C           46.52559439101756        6.94034058357134       -1.26933821685494
C           45.81393656842595        7.67143094222280       -0.32273708490727
N           45.82185064603451        9.12324106120010       -0.38936788624547
O           46.45619282504601        9.63644995940710       -1.27459582274965
O           45.19328747261219        9.72228555135865        0.44448647886560
C           45.09451824796302        7.03781992800430        0.68620867968382
C           45.08565036680074        5.65585184237364        0.74197189798243
C           44.56795578206371        2.76659179470268       -0.27552266426212
C           43.32123204077273        3.42722539605691       -0.52244260141599
C           42.35901711239134        2.47428975537635       -0.47055297582957
C           43.02345060413793        1.23705806761114       -0.20650333694713
N           44.37228901336799        1.41539392153971       -0.12885722299272
H           41.27034261754565       -2.51261005040961        0.62664228001468
H           43.15466277406831       -4.43983709320510        0.66751226137222
H           47.01179315896694       -5.03358276972670        1.80785560795105
H           46.98161134305430       -7.51646701565878        1.85380887051886
H           44.39788059736063       -7.55152009334295       -1.56422584495019
H           44.43259866142768       -5.06876567688450       -1.61779795898805
H           48.31344683120668       -4.49845304954683       -0.47171134134430
H           50.22471126918426       -2.59701745874207       -0.47174867155927
H           50.25200136999301        2.56047498457868        0.47498928050420
H           48.36852843863851        4.48807560752171        0.39266039728859
H           47.05809061932928        4.97680826964372       -1.93682008782154
H           47.07473388665648        7.45825725844805       -2.04643448435926
H           44.55270459994322        7.63064218410934        1.41330943042144
H           44.53770111307885        5.14956624474489        1.52800217516486
H           43.20608223385729        4.48168622146721       -0.71288479112355
H           41.29425814532120        2.58439266995541       -0.59750103902308

          :  Hamiltonian                  GFN1-xTB          :
         :: total energy            -377.125847240820 Eh    ::
         :: gradient norm              0.000712844535 Eh/a0 ::
         :: HOMO-LUMO gap              0.054182120303 eV    ::
         :: SCC energy              -382.546168077518 Eh    ::
         :: repulsion energy           5.593753424784 Eh    ::

    * Orbital Energies and Occupations

         #    Occupation            Energy/Eh            Energy/eV
      -------------------------------------------------------------
         1        2.0000           -0.9268020             -25.2196
       ...           ...                  ...                  ...
       322        2.0000           -0.4217697             -11.4769
       323        2.0000           -0.4213741             -11.4662
       324        1.9986           -0.4160916             -11.3224
       325        1.9929           -0.4145539             -11.2806
       326        1.9927           -0.4145254             -11.2798
       327        1.9920           -0.4144304             -11.2772
       328        1.9654           -0.4130307             -11.2391
       329        1.9578           -0.4128365             -11.2339
       330        1.9467           -0.4126096             -11.2277
       331        1.9442           -0.4125656             -11.2265
       332        1.9389           -0.4124773             -11.2241
       333        1.9362           -0.4124340             -11.2229
       334        1.2964           -0.4097725             -11.1505 (HOMO)
       335        0.3694           -0.4077814             -11.0963 (LUMO)
       336        0.3366           -0.4076741             -11.0934
       337        0.3321           -0.4076586             -11.0930
       338                         -0.3699891             -10.0679
       339                         -0.3621619              -9.8549
       340                         -0.3596800              -9.7874
       341                         -0.3594777              -9.7819
       342                         -0.3588964              -9.7661
       343                         -0.3536335              -9.6229
       344                         -0.3527800              -9.5996
       345                         -0.3514620              -9.5638
       ...                                ...                  ...
       679                          1.5474307              42.1077
      -------------------------------------------------------------
                  HL-Gap            0.0019912 Eh            0.0542 eV

Wiberg/Mayer (AO) data.
largest (>0.10) Wiberg bond orders for each atom

     #   Z sym  total        # sym  WBO       # sym  WBO       # sym  WBO
 ---------------------------------------------------------------------------
     1  26 Fe   3.102 --     7 N    0.668    43 N    0.667    28 N    0.659
                            21 N    0.659
     2   6 C    3.921 --    42 C    1.365     3 C    1.363    44 H    0.970
     3   6 C    3.921 --     2 C    1.363     7 N    1.208     4 C    1.172
     4   6 C    3.958 --     5 C    1.651     3 C    1.172    45 H    0.974
     5   6 C    3.961 --     4 C    1.651     6 C    1.173    46 H    0.972
     6   6 C    3.920 --     8 C    1.312     7 N    1.225     5 C    1.173
     7   7 N    3.381 --     6 C    1.225     3 C    1.208     1 Fe   0.668
     8   6 C    3.922 --    18 C    1.331     6 C    1.312     9 C    1.032
     9   6 C    3.985 --    10 C    1.384    17 C    1.383     8 C    1.032
    10   6 C    3.986 --    11 C    1.463     9 C    1.384    47 H    0.971
                            16 C    0.102
    11   6 C    3.987 --    10 C    1.463    12 C    1.388    48 H    0.964
                            17 C    0.102
    12   6 C    3.942 --    11 C    1.388    16 C    1.387    13 N    0.920
    13   7 N    3.866 --    15 O    1.455    14 O    1.455    12 C    0.920
    14   8 O    1.830 --    13 N    1.455    15 O    0.252
    15   8 O    1.830 --    13 N    1.455    14 O    0.252
    16   6 C    3.987 --    17 C    1.463    12 C    1.387    49 H    0.964
                            10 C    0.102
    17   6 C    3.986 --    16 C    1.463     9 C    1.383    50 H    0.971
                            11 C    0.102
    18   6 C    3.917 --     8 C    1.331    21 N    1.202    19 C    1.178
    19   6 C    3.955 --    20 C    1.639    18 C    1.178    51 H    0.973
    20   6 C    3.959 --    19 C    1.639    22 C    1.187    52 H    0.973
    21   7 N    3.380 --    22 C    1.243    18 C    1.202     1 Fe   0.659
    22   6 C    3.901 --    23 C    1.252    21 N    1.243    20 C    1.187
    23   6 C    3.922 --    22 C    1.252    24 C    1.251   124 C    1.202
    24   6 C    3.901 --    23 C    1.251    28 N    1.245    25 C    1.187
    25   6 C    3.959 --    26 C    1.640    24 C    1.187    53 H    0.973
    26   6 C    3.955 --    25 C    1.640    27 C    1.177    54 H    0.973
    27   6 C    3.917 --    29 C    1.333    28 N    1.200    26 C    1.177
    28   7 N    3.380 --    24 C    1.245    27 C    1.200     1 Fe   0.659
    29   6 C    3.922 --    27 C    1.333    39 C    1.311    30 C    1.032
    30   6 C    3.985 --    38 C    1.385    31 C    1.384    29 C    1.032
    31   6 C    3.986 --    32 C    1.463    30 C    1.384    55 H    0.971
                            37 C    0.102
    32   6 C    3.987 --    31 C    1.463    33 C    1.387    56 H    0.964
                            38 C    0.102
    33   6 C    3.942 --    37 C    1.388    32 C    1.387    34 N    0.920
    34   7 N    3.866 --    36 O    1.455    35 O    1.455    33 C    0.920
    35   8 O    1.830 --    34 N    1.455    36 O    0.252
    36   8 O    1.830 --    34 N    1.455    35 O    0.252
    37   6 C    3.987 --    38 C    1.463    33 C    1.388    57 H    0.964
                            31 C    0.102
    38   6 C    3.987 --    37 C    1.463    30 C    1.385    58 H    0.971
                            32 C    0.102
    39   6 C    3.920 --    29 C    1.311    43 N    1.227    40 C    1.173
    40   6 C    3.961 --    41 C    1.651    39 C    1.173    59 H    0.973
    41   6 C    3.958 --    40 C    1.651    42 C    1.171    60 H    0.974
    42   6 C    3.921 --     2 C    1.365    43 N    1.206    41 C    1.171
    43   7 N    3.381 --    39 C    1.227    42 C    1.206     1 Fe   0.667
    44   1 H    1.000 --     2 C    0.970
    45   1 H    0.997 --     4 C    0.974
    46   1 H    1.003 --     5 C    0.972
    47   1 H    1.003 --    10 C    0.971
    48   1 H    1.006 --    11 C    0.964
    49   1 H    1.006 --    16 C    0.964
    50   1 H    1.003 --    17 C    0.971
    51   1 H    1.003 --    19 C    0.973
    52   1 H    1.001 --    20 C    0.973
    53   1 H    1.001 --    25 C    0.973
    54   1 H    1.003 --    26 C    0.973
    55   1 H    1.003 --    31 C    0.971
    56   1 H    1.006 --    32 C    0.964
    57   1 H    1.006 --    37 C    0.964
    58   1 H    1.003 --    38 C    0.971
    59   1 H    1.003 --    40 C    0.973
    60   1 H    0.997 --    41 C    0.974
    61  26 Fe   3.107 --    67 N    0.667   103 N    0.666    88 N    0.659
                            81 N    0.658
    62   6 C    3.920 --   102 C    1.365    63 C    1.363   104 H    0.970
    63   6 C    3.921 --    62 C    1.363    67 N    1.207    64 C    1.172
    64   6 C    3.959 --    65 C    1.651    63 C    1.172   105 H    0.974
    65   6 C    3.961 --    64 C    1.651    66 C    1.173   106 H    0.973
    66   6 C    3.920 --    68 C    1.311    67 N    1.225    65 C    1.173
    67   7 N    3.380 --    66 C    1.225    63 C    1.207    61 Fe   0.667
    68   6 C    3.920 --    78 C    1.331    66 C    1.311    69 C    1.033
    69   6 C    3.985 --    70 C    1.384    77 C    1.383    68 C    1.033
    70   6 C    3.986 --    71 C    1.463    69 C    1.384   107 H    0.971
                            76 C    0.102
    71   6 C    3.987 --    70 C    1.463    72 C    1.388   108 H    0.964
                            77 C    0.102
    72   6 C    3.941 --    71 C    1.388    76 C    1.387    73 N    0.920
    73   7 N    3.866 --    75 O    1.455    74 O    1.455    72 C    0.920
    74   8 O    1.830 --    73 N    1.455    75 O    0.252
    75   8 O    1.830 --    73 N    1.455    74 O    0.252
    76   6 C    3.987 --    77 C    1.463    72 C    1.387   109 H    0.964
                            70 C    0.102
    77   6 C    3.986 --    76 C    1.463    69 C    1.383   110 H    0.971
                            71 C    0.102
    78   6 C    3.917 --    68 C    1.331    81 N    1.201    79 C    1.178
    79   6 C    3.955 --    80 C    1.639    78 C    1.178   111 H    0.973
    80   6 C    3.959 --    79 C    1.639    82 C    1.187   112 H    0.973
    81   7 N    3.378 --    82 C    1.244    78 C    1.201    61 Fe   0.658
    82   6 C    3.900 --    83 C    1.250    81 N    1.244    80 C    1.187
    83   6 C    3.920 --    82 C    1.250    84 C    1.248   132 C    1.207
    84   6 C    3.900 --    83 C    1.248    88 N    1.245    85 C    1.187
    85   6 C    3.959 --    86 C    1.639    84 C    1.187   113 H    0.973
    86   6 C    3.955 --    85 C    1.639    87 C    1.178   114 H    0.973
    87   6 C    3.917 --    89 C    1.333    88 N    1.200    86 C    1.178
    88   7 N    3.378 --    84 C    1.245    87 C    1.200    61 Fe   0.659
    89   6 C    3.920 --    87 C    1.333    99 C    1.309    90 C    1.033
    90   6 C    3.985 --    98 C    1.384    91 C    1.383    89 C    1.033
    91   6 C    3.986 --    92 C    1.464    90 C    1.383   115 H    0.971
                            97 C    0.102
    92   6 C    3.987 --    91 C    1.464    93 C    1.387   116 H    0.964
                            98 C    0.102
    93   6 C    3.941 --    97 C    1.388    92 C    1.387    94 N    0.920
    94   7 N    3.866 --    95 O    1.455    96 O    1.455    93 C    0.920
    95   8 O    1.830 --    94 N    1.455    96 O    0.252
    96   8 O    1.829 --    94 N    1.455    95 O    0.252
    97   6 C    3.987 --    98 C    1.463    93 C    1.388   117 H    0.964
                            91 C    0.102
    98   6 C    3.986 --    97 C    1.463    90 C    1.384   118 H    0.971
                            92 C    0.102
    99   6 C    3.920 --    89 C    1.309   103 N    1.227   100 C    1.173
   100   6 C    3.961 --   101 C    1.651    99 C    1.173   119 H    0.973
   101   6 C    3.958 --   100 C    1.651   102 C    1.172   120 H    0.974
   102   6 C    3.921 --    62 C    1.365   103 N    1.206   101 C    1.172
   103   7 N    3.380 --    99 C    1.227   102 C    1.206    61 Fe   0.666
   104   1 H    1.000 --    62 C    0.970
   105   1 H    0.997 --    64 C    0.974
   106   1 H    1.003 --    65 C    0.973
   107   1 H    1.003 --    70 C    0.971
   108   1 H    1.006 --    71 C    0.964
   109   1 H    1.006 --    76 C    0.964
   110   1 H    1.003 --    77 C    0.971
   111   1 H    1.003 --    79 C    0.973
   112   1 H    1.001 --    80 C    0.973
   113   1 H    1.001 --    85 C    0.973
   114   1 H    1.003 --    86 C    0.973
   115   1 H    1.003 --    91 C    0.971
   116   1 H    1.006 --    92 C    0.964
   117   1 H    1.006 --    97 C    0.964
   118   1 H    1.003 --    98 C    0.971
   119   1 H    1.003 --   100 C    0.973
   120   1 H    0.997 --   101 C    0.974
   121   6 C    3.914 --   122 C    2.338   125 C    1.354   124 C    0.186
   122   6 C    3.911 --   121 C    2.338   123 C    1.353   126 C    0.185
   123   6 C    3.924 --   124 C    2.423   122 C    1.353
   124   6 C    3.875 --   123 C    2.423    23 C    1.202   121 C    0.186
   125   6 C    3.919 --   126 C    2.418   121 C    1.354
   126   6 C    3.877 --   125 C    2.418   134 C    1.209   122 C    0.185
   127   6 C    3.911 --   128 C    2.333   131 C    1.357   130 C    0.185
   128   6 C    3.914 --   127 C    2.333   129 C    1.358   132 C    0.186
   129   6 C    3.918 --   130 C    2.414   128 C    1.358
   130   6 C    3.876 --   129 C    2.414   155 C    1.212   127 C    0.185
   131   6 C    3.923 --   132 C    2.418   127 C    1.357
   132   6 C    3.875 --   131 C    2.418    83 C    1.207   128 C    0.186
   133  26 Fe   3.059 --   139 N    0.649   175 N    0.649   153 N    0.649
                           160 N    0.648
   134   6 C    3.907 --   135 C    1.247   174 C    1.246   126 C    1.209
   135   6 C    3.902 --   134 C    1.247   139 N    1.246   136 C    1.190
   136   6 C    3.959 --   137 C    1.635   135 C    1.190   176 H    0.973
   137   6 C    3.958 --   136 C    1.635   138 C    1.182   177 H    0.973
   138   6 C    3.915 --   140 C    1.320   139 N    1.206   137 C    1.182
   139   7 N    3.368 --   135 C    1.246   138 C    1.206   133 Fe   0.649
   140   6 C    3.913 --   150 C    1.323   138 C    1.320   141 C    1.032
   141   6 C    3.985 --   142 C    1.384   149 C    1.384   140 C    1.032
   142   6 C    3.986 --   143 C    1.462   141 C    1.384   178 H    0.971
                           148 C    0.102
   143   6 C    3.987 --   142 C    1.462   144 C    1.389   179 H    0.964
                           149 C    0.102
   144   6 C    3.942 --   143 C    1.389   148 C    1.388   145 N    0.919
   145   7 N    3.866 --   146 O    1.456   147 O    1.455   144 C    0.919
   146   8 O    1.831 --   145 N    1.456   147 O    0.253
   147   8 O    1.831 --   145 N    1.455   146 O    0.253
   148   6 C    3.987 --   149 C    1.462   144 C    1.388   180 H    0.964
                           142 C    0.102
   149   6 C    3.986 --   148 C    1.462   141 C    1.384   181 H    0.971
                           143 C    0.102
   150   6 C    3.915 --   140 C    1.323   153 N    1.204   151 C    1.181
   151   6 C    3.957 --   152 C    1.635   150 C    1.181   182 H    0.973
   152   6 C    3.959 --   151 C    1.635   154 C    1.190   183 H    0.973
   153   7 N    3.368 --   154 C    1.249   150 C    1.204   133 Fe   0.649
   154   6 C    3.902 --   153 N    1.249   155 C    1.245   152 C    1.190
   155   6 C    3.906 --   156 C    1.245   154 C    1.245   130 C    1.212
   156   6 C    3.902 --   160 N    1.247   155 C    1.245   157 C    1.190
   157   6 C    3.959 --   158 C    1.635   156 C    1.190   184 H    0.973
   158   6 C    3.957 --   157 C    1.635   159 C    1.181   185 H    0.973
   159   6 C    3.915 --   161 C    1.322   160 N    1.205   158 C    1.181
   160   7 N    3.368 --   156 C    1.247   159 C    1.205   133 Fe   0.648
   161   6 C    3.913 --   159 C    1.322   171 C    1.321   162 C    1.031
   162   6 C    3.985 --   163 C    1.385   170 C    1.385   161 C    1.031
   163   6 C    3.986 --   164 C    1.462   162 C    1.385   186 H    0.971
                           169 C    0.102
   164   6 C    3.987 --   163 C    1.462   165 C    1.389   187 H    0.964
                           170 C    0.102
   165   6 C    3.942 --   169 C    1.389   164 C    1.389   166 N    0.919
   166   7 N    3.866 --   168 O    1.456   167 O    1.456   165 C    0.919
   167   8 O    1.831 --   166 N    1.456   168 O    0.253
   168   8 O    1.831 --   166 N    1.456   167 O    0.253
   169   6 C    3.987 --   170 C    1.462   165 C    1.389   188 H    0.964
                           163 C    0.102
   170   6 C    3.986 --   169 C    1.462   162 C    1.385   189 H    0.971
                           164 C    0.102
   171   6 C    3.915 --   161 C    1.321   175 N    1.205   172 C    1.181
   172   6 C    3.957 --   173 C    1.636   171 C    1.181   190 H    0.973
   173   6 C    3.959 --   172 C    1.636   174 C    1.190   191 H    0.973
   174   6 C    3.902 --   175 N    1.247   134 C    1.246   173 C    1.190
   175   7 N    3.368 --   174 C    1.247   171 C    1.205   133 Fe   0.649
   176   1 H    1.001 --   136 C    0.973
   177   1 H    1.003 --   137 C    0.973
   178   1 H    1.003 --   142 C    0.971
   179   1 H    1.006 --   143 C    0.964
   180   1 H    1.006 --   148 C    0.964
   181   1 H    1.003 --   149 C    0.971
   182   1 H    1.003 --   151 C    0.973
   183   1 H    1.001 --   152 C    0.973
   184   1 H    1.001 --   157 C    0.973
   185   1 H    1.003 --   158 C    0.973
   186   1 H    1.003 --   163 C    0.971
   187   1 H    1.006 --   164 C    0.964
   188   1 H    1.006 --   169 C    0.964
   189   1 H    1.003 --   170 C    0.971
   190   1 H    1.003 --   172 C    0.973
   191   1 H    1.001 --   173 C    0.973
 ---------------------------------------------------------------------------

           -------------------------------------------------
          | TOTAL ENERGY             -377.125847240820 Eh   |
          | GRADIENT NORM               0.000712844535 Eh/α |
          | HOMO-LUMO GAP               0.054182120303 eV   |
           -------------------------------------------------

 * finished run on 2022/07/29 at 20:57:42.675
