   * xtb version 6.5.1 (b24c23e) compiled by 'conda@728c89f4b128' on 2022-07-12
          program call               : xtb Zn_PhOH_C8_2.xyz --gfn 1 --opt -T 48

   ID    Z sym.   atoms
    1   30 Zn     1, 59
    2    6 C      2-6, 8-12, 14-18, 20-25, 27-31, 33-38, 60-64, 66-70, 72-76,
                  78-83, 85-89, 91-96, 117-124
    3    7 N      7, 19, 26, 39, 65, 77, 84, 97
    4    8 O      13, 32, 71, 90
    5    1 H      40-58, 98-116
########################################################################
[WARNING] Please study the warnings concerning your input carefully
-1- prog_main_parseArguments: Unknown option '-T' provided
########################################################################

          :  Hamiltonian                  GFN1-xTB          :
 * total energy  :  -217.4973092 Eh     change        0.9646328E-09 Eh
 * total energy  :  -218.1753733 Eh     change       -0.6780641E+00 Eh
 * total energy  :  -218.2988923 Eh     change       -0.1235190E+00 Eh
 * total energy  :  -218.3499351 Eh     change       -0.5104281E-01 Eh
 * total energy  :  -218.3685825 Eh     change       -0.1864745E-01 Eh
 * total energy  :  -218.3780976 Eh     change       -0.9515030E-02 Eh
 * total energy  :  -218.3849437 Eh     change       -0.6846108E-02 Eh
 * total energy  :  -218.3908986 Eh     change       -0.5954903E-02 Eh
 * total energy  :  -218.3952530 Eh     change       -0.4354414E-02 Eh
 * total energy  :  -218.3984119 Eh     change       -0.3158956E-02 Eh
 * total energy  :  -218.4100036 Eh     change        0.5639589E-06 Eh
 * total energy  :  -218.4100062 Eh     change       -0.2577831E-05 Eh
 * total energy  :  -218.4100046 Eh     change        0.1507964E-05 Eh
 * total energy  :  -218.4099975 Eh     change        0.7102926E-05 Eh
 * total energy  :  -218.4100116 Eh     change       -0.1405214E-04 Eh
 * total energy  :  -218.4100023 Eh     change        0.9310309E-05 Eh
 * total energy  :  -218.4100147 Eh     change       -0.1238301E-04 Eh
 * total energy  :  -218.4100146 Eh     change        0.9182878E-07 Eh
 * total energy  :  -218.4100188 Eh     change       -0.4202813E-05 Eh
   *** GEOMETRY OPTIMIZATION CONVERGED AFTER 52 ITERATIONS ***

 final structure:
================
124
 xtb: 6.5.1 (b24c23e)
Zn          12.99408862280382       -0.02507785949448       -0.01025505430814
C            9.58549409315863       -0.07477522569509       -0.09096489029592
C           10.22016577770715       -1.30901961283698       -0.01807581160123
C            9.55073955972295       -2.57644739910156        0.06848590299663
C           10.51330374050814       -3.52899298724425        0.15024092845581
C           11.78387277598277       -2.85523671919508        0.10329134797625
N           11.57036162897849       -1.51115528345929        0.00716500537566
C           13.03701655713080       -3.47662136856065        0.17501925803092
C           13.05625408995031       -4.95826765078090        0.27013696962692
C           12.53117315982266       -5.74419149901775       -0.75595038973235
C           12.55015805523663       -7.12794331366468       -0.66960208057865
C           13.09220471776556       -7.74265960274531        0.45656042125154
O           13.12725257103411       -9.09486218010003        0.58391640830130
C           13.61689396914580       -6.96952716682354        1.49053715780601
C           13.60014776579867       -5.58948958891093        1.39153767649460
C           14.27262955493322       -2.82057775449293        0.16818087327116
C           15.55509666901866       -3.46821598008322        0.18511581386730
C           16.49750052332405       -2.49179447814440        0.14948543624986
N           14.46115722207500       -1.46493258449927        0.11143893657403
C           15.80191153059434       -1.23935133358598        0.10379000774570
C           16.42866850083545        0.02252076239731        0.04626636805844
C           15.76976384390077        1.26702150456943       -0.02209786921924
C           16.43216094222905        2.53533956723826       -0.10432071210910
C           15.46430257478887        3.48562249073300       -0.16225266762397
C           14.19918585026123        2.80646373543350       -0.10892392190060
N           14.42338696034348        1.45724659651776       -0.03196863287808
C           12.94625323208933        3.42725339659355       -0.15920315098297
C           12.92417315942205        4.91100107927412       -0.20757472386344
C           13.45928937074542        5.66301326214558        0.84121890156676
C           13.43354827252695        7.04605768003241        0.80799917619625
C           12.87365210969776        7.70051693966746       -0.28753349103578
O           12.86590868092245        9.05911018848076       -0.28932882339638
C           12.34067177345748        6.96467786459926       -1.34317092417213
C           12.36497135584898        5.57912573822775       -1.29723931895101
C           11.70986665746809        2.76880138199147       -0.16386715736743
C           10.42170651528861        3.41003494833722       -0.17371847211055
C            9.48477343823220        2.42891122371255       -0.16241474570578
C           10.18756692507764        1.17712394854675       -0.13365547157877
N           11.53198425337278        1.41642797760654       -0.13250818482150
H            8.49990963616061       -0.08937800749135       -0.09972634399165
H            8.47996940313808       -2.70827192534332        0.07456048059719
H           10.37891110460663       -4.59451437084968        0.24721987909476
H           12.12023845982617       -5.26738064527565       -1.63900934614168
H           12.14703419226641       -7.73396754997089       -1.47405445890048
H           12.74137443369025       -9.53063963326451       -0.18769920255108
H           14.03155852554339       -7.46079169300234        2.36212890195884
H           13.99788178250187       -4.98778488589140        2.20119831380744
H           15.71289482500345       -4.53452812051744        0.20618560939875
H           17.57017284630569       -2.60273800592204        0.14758368992323
H           17.50165953517083        2.67295120581508       -0.12170494801622
H           15.59408107633523        4.55244991173653       -0.24853787151838
H           13.88340930245359        5.15406715312118        1.69964737351866
H           13.84115446812038        7.63081131714594        1.62339301374603
H           12.45450488543145        9.40717537932998       -1.09173456173778
H           11.91020138902757        7.47840690939027       -2.19618781704747
H           11.96068288836753        5.00789778017379       -2.12564014976420
H           10.25848404344993        4.47593221259897       -0.17492108367143
H            8.41088248614657        2.53245999059874       -0.16378454236954
Zn          31.60674565345026        0.02060004774715       -0.01349684203228
C           35.01536126896333        0.06049823905461       -0.09946869741632
C           34.37988479174253        1.29199641655872       -0.20463821059932
C           35.04847304687699        2.55919199449831       -0.30061057259708
C           34.08527085127836        3.51294777582598       -0.35676549887680
C           32.81514702623975        2.83855500334104       -0.30696193302051
N           33.02954721971694        1.49473855457786       -0.20914247185302
C           31.56157936037783        3.46293457442428       -0.32553766080929
C           31.54125245210631        4.94287033652622       -0.44413216525837
C           32.06607703203247        5.57383415961064       -1.57225990559432
C           32.04570926329057        6.95562798837672       -1.68551517009571
C           31.50257852101936        7.72514527196002       -0.65947561546190
O           31.46599512485855        9.08157103951761       -0.72771341985479
C           30.97825880242150        7.10798360797015        0.47468995988690
C           30.99634678408468        5.72804814746430        0.57487338091599
C           30.32638186035706        2.81185751243632       -0.23839850401918
C           29.04350496033624        3.45438613848670       -0.31493790174221
C           28.10170769475269        2.48237051801695       -0.21010188588730
N           30.13870012743176        1.46200809788494       -0.09984893458040
C           28.79806983389034        1.23679454327796       -0.07529515169288
C           28.17218888406697       -0.02071574485494        0.04865735535052
C           28.83197221881471       -1.26168793647354        0.15961311441753
C           28.17036451026833       -2.52912936708645        0.25979054937323
C           29.13882011518671       -3.47729008911852        0.33874410181643
C           30.40349865680049       -2.79667406131507        0.29450030588700
N           30.17845092127666       -1.45048510561025        0.17737707159451
C           31.65682504145308       -3.41741960267680        0.33401361256415
C           31.67992142656848       -4.89275567820854        0.49888256646473
C           31.14522043439390       -5.48692323345081        1.64469638295760
C           31.17220061596557       -6.86038741204923        1.81034507031250
C           31.73289741132009       -7.66480369637105        0.82013394592665
O           31.74196776006293       -9.00957144197902        1.01341924738297
C           32.26532167168391       -7.08763510761892       -0.33021462741561
C           32.23983020114507       -5.70985814322922       -0.48361799695177
C           32.89279450450214       -2.76558046567885        0.23542550396534
C           34.18134714639962       -3.40072917013072        0.31812481684676
C           35.11767075704596       -2.42748349848123        0.18900759569499
C           34.41409235214398       -1.18499274902140        0.03765105673172
N           33.06982234367338       -1.42257320192763        0.07257862948570
H           36.10094163767977        0.07442889284991       -0.10982336333125
H           36.11916201563830        2.69124697200898       -0.31311029304765
H           34.21894700109892        4.58144972280247       -0.41366942123360
H           32.47792592247941        4.97559056517153       -2.37755706068280
H           32.44863987576056        7.44027576286156       -2.56851011214956
H           31.85176132457767        9.40241029177872       -1.55375118955028
H           30.56270159537361        7.71888815486175        1.26656990055755
H           30.59885678929751        5.24842926305422        1.46243144293038
H           28.88506348562923        4.51256169586859       -0.44738425737610
H           27.02896616343543        2.59117406902225       -0.22806630136105
H           27.10095173711629       -2.66849125144105        0.26214578449930
H           29.00974519247070       -4.54556121425017        0.40604968536385
H           30.72049367174136       -4.86040115220652        2.42114654793987
H           30.76500078982645       -7.32241563033227        2.70122225790323
H           32.15392780946812       -9.46881199486524        0.26934803000539
H           32.69634534090012       -7.71811072011951       -1.10065469105338
H           32.64376333282845       -5.26307205827203       -1.38540520212687
H           34.34520911570885       -4.45567348919014        0.46985196078210
H           36.19162256564793       -2.52943919584071        0.20296464849318
C           17.83338265567787        0.03643585631029        0.04968378781810
C           19.05833138569685        0.03328487031437        0.05088170303473
C           20.40075737998078        0.02546491149242        0.05366591806816
C           21.63160720946759        0.00881439749358        0.05552069696052
C           22.96927031137901       -0.00654124906559        0.05742390718372
C           24.20011925510338       -0.02369091289333        0.05700695228717
C           25.54254505943161       -0.03135630340475        0.05540529383952
C           26.76748544354212       -0.03528623632354        0.05334924046824

          :  Hamiltonian                  GFN1-xTB          :
         :: total energy            -218.410018783450 Eh    ::
         :: gradient norm              0.000293617020 Eh/a0 ::
         :: HOMO-LUMO gap              1.086960628174 eV    ::
         :: SCC energy              -221.897894485643 Eh    ::
         :: repulsion energy           3.595586056446 Eh    ::

    * Orbital Energies and Occupations

         #    Occupation            Energy/Eh            Energy/eV
      -------------------------------------------------------------
         1        2.0000           -0.8031535             -21.8549
       ...           ...                  ...                  ...
       185        2.0000           -0.4195517             -11.4166
       186        2.0000           -0.4193468             -11.4110
       187        2.0000           -0.4188274             -11.3969
       188        2.0000           -0.4187923             -11.3959
       189        2.0000           -0.4183476             -11.3838
       190        2.0000           -0.4159705             -11.3191
       191        2.0000           -0.4159078             -11.3174
       192        2.0000           -0.4080492             -11.1036
       193        2.0000           -0.4011002             -10.9145
       194        2.0000           -0.3913544             -10.6493
       195        2.0000           -0.3913541             -10.6493
       196        2.0000           -0.3828346             -10.4175
       197        2.0000           -0.3740994             -10.1798 (HOMO)
       198                         -0.3341543              -9.0928 (LUMO)
       199                         -0.3241074              -8.8194
       200                         -0.3235290              -8.8037
       201                         -0.3235287              -8.8037
       202                         -0.2969988              -8.0817
       203                         -0.2940273              -8.0009
       204                         -0.2886343              -7.8541
       205                         -0.2686195              -7.3095
       206                         -0.2649283              -7.2091
       207                         -0.2649272              -7.2090
       208                         -0.2649124              -7.2086
       ...                                ...                  ...
       420                          1.6110421              43.8387
      -------------------------------------------------------------
                  HL-Gap            0.0399451 Eh            1.0870 eV

Wiberg/Mayer (AO) data.
largest (>0.10) Wiberg bond orders for each atom

     #   Z sym  total        # sym  WBO       # sym  WBO       # sym  WBO
 ---------------------------------------------------------------------------
     1  30 Zn   1.998 --    39 N    0.460     7 N    0.459    26 N    0.456
                            19 N    0.456
     2   6 C    3.926 --     3 C    1.357    38 C    1.357    40 H    0.971
     3   6 C    3.923 --     2 C    1.357     7 N    1.233     4 C    1.172
     4   6 C    3.960 --     5 C    1.657     3 C    1.172    41 H    0.976
     5   6 C    3.963 --     4 C    1.657     6 C    1.173    42 H    0.973
     6   6 C    3.917 --     8 C    1.313     7 N    1.245     5 C    1.173
     7   7 N    3.293 --     6 C    1.245     3 C    1.233     1 Zn   0.459
     8   6 C    3.934 --    16 C    1.325     6 C    1.313     9 C    1.028
     9   6 C    3.989 --    10 C    1.394    15 C    1.384     8 C    1.028
    10   6 C    3.988 --    11 C    1.451     9 C    1.394    43 H    0.973
                            14 C    0.105
    11   6 C    3.988 --    10 C    1.451    12 C    1.373    44 H    0.970
                            15 C    0.103
    12   6 C    3.901 --    11 C    1.373    14 C    1.365    13 O    1.039
    13   8 O    2.042 --    12 C    1.039    45 H    0.865
    14   6 C    3.990 --    15 C    1.466    12 C    1.365    46 H    0.971
                            10 C    0.105
    15   6 C    3.988 --    14 C    1.466     9 C    1.384    47 H    0.973
                            11 C    0.103
    16   6 C    3.912 --     8 C    1.325    19 N    1.224    17 C    1.179
    17   6 C    3.960 --    18 C    1.646    16 C    1.179    48 H    0.973
    18   6 C    3.962 --    17 C    1.646    20 C    1.187    49 H    0.974
    19   7 N    3.297 --    20 C    1.264    16 C    1.224     1 Zn   0.456
    20   6 C    3.902 --    19 N    1.264    21 C    1.251    18 C    1.187
    21   6 C    3.938 --    22 C    1.252    20 C    1.251   117 C    1.194
    22   6 C    3.902 --    26 N    1.264    21 C    1.252    23 C    1.187
    23   6 C    3.962 --    24 C    1.645    22 C    1.187    50 H    0.974
    24   6 C    3.960 --    23 C    1.645    25 C    1.179    51 H    0.973
    25   6 C    3.913 --    27 C    1.325    26 N    1.224    24 C    1.179
    26   7 N    3.297 --    22 C    1.264    25 C    1.224     1 Zn   0.456
    27   6 C    3.934 --    25 C    1.325    35 C    1.312    28 C    1.028
    28   6 C    3.989 --    34 C    1.394    29 C    1.384    27 C    1.028
    29   6 C    3.988 --    30 C    1.466    28 C    1.384    52 H    0.973
                            33 C    0.103
    30   6 C    3.990 --    29 C    1.466    31 C    1.365    53 H    0.971
                            34 C    0.105
    31   6 C    3.901 --    33 C    1.373    30 C    1.365    32 O    1.039
    32   8 O    2.042 --    31 C    1.039    54 H    0.865
    33   6 C    3.988 --    34 C    1.451    31 C    1.373    55 H    0.970
                            29 C    0.103
    34   6 C    3.987 --    33 C    1.451    28 C    1.394    56 H    0.973
                            30 C    0.105
    35   6 C    3.917 --    27 C    1.312    39 N    1.245    36 C    1.174
    36   6 C    3.963 --    37 C    1.657    35 C    1.174    57 H    0.973
    37   6 C    3.960 --    36 C    1.657    38 C    1.172    58 H    0.976
    38   6 C    3.923 --     2 C    1.357    39 N    1.233    37 C    1.172
    39   7 N    3.294 --    35 C    1.245    38 C    1.233     1 Zn   0.460
    40   1 H    1.002 --     2 C    0.971
    41   1 H    0.998 --     4 C    0.976
    42   1 H    1.005 --     5 C    0.973
    43   1 H    1.005 --    10 C    0.973
    44   1 H    0.999 --    11 C    0.970
    45   1 H    0.887 --    13 O    0.865
    46   1 H    0.999 --    14 C    0.971
    47   1 H    1.005 --    15 C    0.973
    48   1 H    1.005 --    17 C    0.973
    49   1 H    1.002 --    18 C    0.974
    50   1 H    1.002 --    23 C    0.974
    51   1 H    1.005 --    24 C    0.973
    52   1 H    1.005 --    29 C    0.973
    53   1 H    0.999 --    30 C    0.971
    54   1 H    0.887 --    32 O    0.865
    55   1 H    0.999 --    33 C    0.970
    56   1 H    1.005 --    34 C    0.973
    57   1 H    1.005 --    36 C    0.973
    58   1 H    0.998 --    37 C    0.976
    59  30 Zn   1.998 --    97 N    0.460    65 N    0.459    84 N    0.456
                            77 N    0.456
    60   6 C    3.926 --    61 C    1.357    96 C    1.357    98 H    0.971
    61   6 C    3.923 --    60 C    1.357    65 N    1.233    62 C    1.172
    62   6 C    3.960 --    63 C    1.657    61 C    1.172    99 H    0.976
    63   6 C    3.963 --    62 C    1.657    64 C    1.173   100 H    0.973
    64   6 C    3.917 --    66 C    1.313    65 N    1.245    63 C    1.173
    65   7 N    3.293 --    64 C    1.245    61 C    1.233    59 Zn   0.459
    66   6 C    3.934 --    74 C    1.325    64 C    1.313    67 C    1.028
    67   6 C    3.989 --    68 C    1.394    73 C    1.384    66 C    1.028
    68   6 C    3.988 --    69 C    1.451    67 C    1.394   101 H    0.973
                            72 C    0.105
    69   6 C    3.988 --    68 C    1.451    70 C    1.373   102 H    0.970
                            73 C    0.103
    70   6 C    3.901 --    69 C    1.373    72 C    1.365    71 O    1.039
    71   8 O    2.042 --    70 C    1.039   103 H    0.865
    72   6 C    3.990 --    73 C    1.466    70 C    1.365   104 H    0.971
                            68 C    0.105
    73   6 C    3.988 --    72 C    1.466    67 C    1.384   105 H    0.973
                            69 C    0.103
    74   6 C    3.912 --    66 C    1.325    77 N    1.224    75 C    1.179
    75   6 C    3.960 --    76 C    1.646    74 C    1.179   106 H    0.973
    76   6 C    3.962 --    75 C    1.646    78 C    1.187   107 H    0.974
    77   7 N    3.297 --    78 C    1.264    74 C    1.224    59 Zn   0.456
    78   6 C    3.901 --    77 N    1.264    79 C    1.251    76 C    1.187
    79   6 C    3.938 --    80 C    1.252    78 C    1.251   124 C    1.194
    80   6 C    3.902 --    84 N    1.264    79 C    1.252    81 C    1.187
    81   6 C    3.962 --    82 C    1.645    80 C    1.187   108 H    0.974
    82   6 C    3.960 --    81 C    1.645    83 C    1.179   109 H    0.973
    83   6 C    3.913 --    85 C    1.325    84 N    1.224    82 C    1.179
    84   7 N    3.297 --    80 C    1.264    83 C    1.224    59 Zn   0.456
    85   6 C    3.934 --    83 C    1.325    93 C    1.312    86 C    1.028
    86   6 C    3.989 --    92 C    1.394    87 C    1.384    85 C    1.028
    87   6 C    3.988 --    88 C    1.466    86 C    1.384   110 H    0.973
                            91 C    0.103
    88   6 C    3.990 --    87 C    1.466    89 C    1.365   111 H    0.971
                            92 C    0.105
    89   6 C    3.901 --    91 C    1.372    88 C    1.365    90 O    1.039
    90   8 O    2.042 --    89 C    1.039   112 H    0.865
    91   6 C    3.988 --    92 C    1.451    89 C    1.372   113 H    0.970
                            87 C    0.103
    92   6 C    3.987 --    91 C    1.451    86 C    1.394   114 H    0.973
                            88 C    0.105
    93   6 C    3.917 --    85 C    1.312    97 N    1.245    94 C    1.174
    94   6 C    3.963 --    95 C    1.657    93 C    1.174   115 H    0.973
    95   6 C    3.960 --    94 C    1.657    96 C    1.172   116 H    0.976
    96   6 C    3.923 --    60 C    1.357    97 N    1.233    95 C    1.172
    97   7 N    3.294 --    93 C    1.245    96 C    1.233    59 Zn   0.460
    98   1 H    1.002 --    60 C    0.971
    99   1 H    0.998 --    62 C    0.976
   100   1 H    1.005 --    63 C    0.973
   101   1 H    1.005 --    68 C    0.973
   102   1 H    0.999 --    69 C    0.970
   103   1 H    0.887 --    71 O    0.865
   104   1 H    0.999 --    72 C    0.971
   105   1 H    1.005 --    73 C    0.973
   106   1 H    1.005 --    75 C    0.973
   107   1 H    1.002 --    76 C    0.974
   108   1 H    1.002 --    81 C    0.974
   109   1 H    1.005 --    82 C    0.973
   110   1 H    1.005 --    87 C    0.973
   111   1 H    0.999 --    88 C    0.971
   112   1 H    0.887 --    90 O    0.865
   113   1 H    0.999 --    91 C    0.970
   114   1 H    1.005 --    92 C    0.973
   115   1 H    1.005 --    94 C    0.973
   116   1 H    0.998 --    95 C    0.976
   117   6 C    3.877 --   118 C    2.436    21 C    1.194   120 C    0.186
   118   6 C    3.933 --   117 C    2.436   119 C    1.346
   119   6 C    3.893 --   120 C    2.334   118 C    1.346   122 C    0.182
   120   6 C    3.925 --   119 C    2.334   121 C    1.370   117 C    0.186
   121   6 C    3.925 --   122 C    2.334   120 C    1.370   124 C    0.186
   122   6 C    3.893 --   121 C    2.334   123 C    1.346   119 C    0.182
   123   6 C    3.933 --   124 C    2.436   122 C    1.346
   124   6 C    3.877 --   123 C    2.436    79 C    1.194   121 C    0.186
 ---------------------------------------------------------------------------

           -------------------------------------------------
          | TOTAL ENERGY             -218.410018783450 Eh   |
          | GRADIENT NORM               0.000293617020 Eh/α |
          | HOMO-LUMO GAP               1.086960628174 eV   |
           -------------------------------------------------

 * finished run on 2022/07/30 at 11:51:04.197
