   * xtb version 6.5.1 (b24c23e) compiled by 'conda@728c89f4b128' on 2022-07-12
          program call               : xtb Co_PhNH2_C6_3.xyz --gfn 1 --opt -T 48

   ID    Z sym.   atoms
    1   27 Co     1, 61, 133
    2    6 C      2-6, 8-12, 14-18, 20-25, 27-31, 33-38, 62-66, 68-72, 74-78,
                  80-85, 87-91, 93-98, 121-132, 134-138, 140-144, 146-150,
                  152-157, 159-163, 165-170
    3    7 N      7, 13, 19, 26, 32, 39, 67, 73, 79, 86, 92, 99, 139, 145,
                  151, 158, 164, 171
    4    1 H      40-60, 100-120, 172-191

          :  Hamiltonian                  GFN1-xTB          :
 * total energy  :  -328.8420331 Eh     change        0.1342050E-07 Eh
 * total energy  :  -329.0787353 Eh     change       -0.2367022E+00 Eh
 * total energy  :  -329.1881460 Eh     change       -0.1094107E+00 Eh
 * total energy  :  -329.2631793 Eh     change       -0.7503332E-01 Eh
 * total energy  :  -329.3303848 Eh     change       -0.6720544E-01 Eh
 * total energy  :  -329.3825746 Eh     change       -0.5218988E-01 Eh
 * total energy  :  -329.4114950 Eh     change       -0.2892033E-01 Eh
 * total energy  :  -329.4338917 Eh     change       -0.2239668E-01 Eh
 * total energy  :  -329.4499292 Eh     change       -0.1603754E-01 Eh
 * total energy  :  -329.4603118 Eh     change       -0.1038261E-01 Eh
 * total energy  :  -329.5563578 Eh     change       -0.7782853E-04 Eh
 * total energy  :  -329.5564111 Eh     change       -0.5328999E-04 Eh
 * total energy  :  -329.5564506 Eh     change       -0.3948997E-04 Eh
 * total energy  :  -329.5564673 Eh     change       -0.1668895E-04 Eh
 * total energy  :  -329.5564868 Eh     change       -0.1957977E-04 Eh
 * total energy  :  -329.5565029 Eh     change       -0.1601637E-04 Eh
 * total energy  :  -329.5565174 Eh     change       -0.1456361E-04 Eh
 * total energy  :  -329.5565300 Eh     change       -0.1258897E-04 Eh
 * total energy  :  -329.5565350 Eh     change       -0.4948218E-05 Eh
   *** GEOMETRY OPTIMIZATION CONVERGED AFTER 65 ITERATIONS ***

 final structure:
================
191
 xtb: 6.5.1 (b24c23e)
Co          29.16871940409742        0.03019278922254        0.04108891291536
C           25.80273681317285        0.11816340419221        0.16101986099497
C           26.45617425615917        1.05958914948438       -0.60604665235875
C           25.79523462841208        2.05273276258392       -1.39584125886224
C           26.75616942850452        2.89700996718820       -1.84168835519566
C           28.00075630284095        2.42920531395579       -1.30596643191068
N           27.81374252603281        1.26170186306342       -0.61139602106587
C           29.19654163199419        3.13611159646004       -1.36786799236042
C           29.21346361704731        4.48171122933208       -1.97942109577575
C           30.07235356109769        4.76840521556565       -3.04420161191899
C           30.09344010561882        6.02545305133378       -3.62067230090998
C           29.26305629731471        7.03649649127401       -3.12931877772575
N           29.25462269529239        8.28391264826618       -3.72662891341175
C           28.39932570397375        6.75769350137317       -2.06647234464201
C           28.37611980397204        5.49450123104873       -1.50348940465621
C           30.37614943736122        2.61184997434878       -0.85726061215771
C           31.62016557646521        3.31899779492717       -0.81081787001323
C           32.56461462996857        2.42556973846695       -0.42675764536747
N           30.54869283327132        1.31421207017965       -0.43293654163082
C           31.89342471417314        1.18027456731861       -0.23193469198574
C           32.55612520929666       -0.03232733803571       -0.01973268860622
C           31.85860306183581       -1.22439407982596        0.19788760728159
C           32.49017434982679       -2.49682107936202        0.34248887741898
C           31.52399240407450       -3.36826948263549        0.72307000560407
C           30.30855943912463       -2.61849541836925        0.82748816341216
N           30.51600045470740       -1.31638809305621        0.43149493806487
C           29.13209962000740       -3.10721257078265        1.37822019159817
C           29.11371281784052       -4.46929440168034        1.95192382334716
C           30.01015465845460       -4.83019836037835        2.96174838969390
C           29.99348814094880       -6.10218580762819        3.50464886066360
C           29.08458104633374       -7.05384691567570        3.03424425903189
N           29.03917343490943       -8.31471826106008        3.60083030840766
C           28.18226992296302       -6.70037502977291        2.02711571025720
C           28.19815771508771       -5.42267081915485        1.49769202491677
C           27.97140787856691       -2.34138069933641        1.40935086335065
C           26.74581696442675       -2.75541891435630        2.02667223737435
C           25.80551901264382       -1.84278289857903        1.68330571466496
C           26.46012790131244       -0.86728557292352        0.86650790350758
N           27.80002071690609       -1.14673131931934        0.75943551946583
H           24.72036511402491        0.14947391113119        0.20506928909073
H           24.73172685429950        2.08559009989218       -1.57209531653403
H           26.64451487985374        3.76267660640051       -2.47433156630698
H           30.71353539741321        3.98702226803182       -3.43735964069658
H           30.75535831134511        6.23166619592881       -4.45469637704973
H           30.09113362376604        8.52104000534802       -4.23525805539649
H           28.89965808698253        9.03152910476416       -3.15237266045222
H           27.75123538141272        7.53773441508717       -1.68191635225438
H           27.71808794302680        5.29298593845569       -0.66524193668893
H           31.74437235750322        4.36467820530734       -1.04096936488469
H           33.62320254292804        2.57871502160411       -0.29131913891997
H           33.53886782275003       -2.68259956397336        0.17439718811632
H           31.61646356098719       -4.42432799540021        0.91810569438997
H           30.71129447477576       -4.09464269773926        3.34058463297984
H           30.68581562380650       -6.36585236614016        4.29672828607425
H           29.88654396115834       -8.60936024692143        4.05885441575004
H           28.61444841963053       -9.02669074379447        3.02867320189640
H           27.47261412143008       -7.43375944020987        1.65992694787516
H           27.50755997201466       -5.16275714204621        0.70282233435018
H           26.63224673198511       -3.63307426203195        2.64224710638848
H           24.75889430246468       -1.82015567780652        1.94262297525405
Co          61.06929737165279       -0.00716248433698        0.05464936419875
C           64.43804330274126        0.04055506388866        0.19340058980066
C           63.78337775491927       -1.11554049768182        0.56183454256069
C           64.44515761435719       -2.31919845331480        0.96215684391624
C           63.48392413996196       -3.15753787995928        1.41783738993732
C           62.23803335808395       -2.45628955933204        1.31327318466182
N           62.42521294089151       -1.23305401661839        0.72191469769145
C           61.03990917694043       -2.90472350225594        1.85662501652234
C           61.02344556800706       -4.15999712445322        2.63803388878347
C           60.18307340670682       -5.21509941850171        2.27254301813311
C           60.16409198861945       -6.39183221304910        2.99936124683729
C           60.97799689427474       -6.53319688113609        4.12654916119856
N           60.98966033972224       -7.72198036332976        4.83390153380920
C           61.82300323602358       -5.48373875806668        4.49770331911510
C           61.84418490031565       -4.31476614065931        3.75850322133581
C           59.85808666955234       -2.19553148269066        1.69357828317627
C           58.61121720233046       -2.56027110793825        2.29533256475072
C           57.66703235502274       -1.74524241656591        1.76505198801392
N           59.68705508468785       -1.11768131295366        0.85514418491703
C           58.34097337471439       -0.88089776801321        0.84948305587725
C           57.67920088416393       -0.01837699839017       -0.02819176633331
C           58.37564122767847        0.83558137603382       -0.88738253516497
C           57.74152591263698        1.67517655982013       -1.85287596904013
C           58.70860786166926        2.47324120545662       -2.36760032129846
C           59.92749757551124        2.12966214294239       -1.69932411871573
N           59.72045579552011        1.07315987133614       -0.84132913854287
C           61.10857862555316        2.84940098826052       -1.81128883117409
C           61.12918001260948        4.08205648860334       -2.62782641194836
C           60.25432654535409        5.13611741889186       -2.35110627436749
C           60.27332115077392        6.29216792223527       -3.11039616811804
C           61.16252051674230        6.41321036710696       -4.18163804937129
N           61.21066961006838        7.58248671873024       -4.91939506895559
C           62.04342885071182        5.36532298839984       -4.46287519986664
C           62.02562522824474        4.21737050982781       -3.69134960263546
C           62.27202919089650        2.44268605817621       -1.16812199346193
C           63.50179297364625        3.17899859622844       -1.18386486693248
C           64.44128116953151        2.38592352283049       -0.61576846013492
C           63.78236745913606        1.17119146598095       -0.24477136201048
N           62.44113691647691        1.24119583087506       -0.52968452033336
H           65.52046627995766        0.05864606792502        0.24303541631079
H           65.50947471157407       -2.48174649823221        0.89865707840843
H           63.59588092880698       -4.16107654954175        1.79528056623214
H           59.55469629172153       -5.11665605262454        1.39406453383209
H           59.51670810995282       -7.20824783502271        2.69824369958080
H           60.16116755124136       -8.28659167727985        4.73581777604080
H           61.32775553347287       -7.65353688763429        5.78031940294775
H           62.45828982663662       -5.58826620975409        5.37055045154617
H           62.48793935629115       -3.49759719437360        4.06528168541364
H           58.48540098764455       -3.33881149995851        3.03009733571310
H           56.60688848940185       -1.72373747862173        1.96016420916947
H           56.69065376943332        1.64720773741141       -2.09249204280497
H           58.61487557890563        3.22933083904712       -3.13008540594128
H           59.56821110655593        5.05450292682369       -1.51516476309028
H           59.59792202180962        7.10827273493090       -2.87779724209398
H           60.37120591220372        8.13880607573268       -4.89446309093052
H           61.61423223340866        7.49253519765228       -5.83796145812620
H           62.73785758786144        5.45471537968000       -5.29117738212194
H           62.69968063415303        3.40127742628951       -3.92788575087162
H           63.61787803578827        4.17458264071698       -1.58065632121893
H           65.49006264117720        2.58422354279449       -0.46104421361018
C           37.75315220399013       -0.08355795299048       -0.05683478305991
C           36.52369572837581       -0.07663955124334       -0.05187888703317
C           35.18154968424764       -0.06635679856316       -0.04294495831796
C           33.95678506378642       -0.05405772837963       -0.03364686230501
C           39.09519828401758       -0.08249362172835       -0.05859468661445
C           40.32023311262898       -0.07691714406346       -0.05755542549415
C           53.70933201667555       -0.01634913068541       -0.07609139771565
C           52.48041605131990       -0.01882611016612       -0.07902362892417
C           51.13723829013986       -0.02151577232984       -0.07451419059730
C           49.91271937707914       -0.01996437322226       -0.06238746526687
C           55.05268867370396       -0.01493417369683       -0.06489286781342
C           56.27693174188632       -0.01603524239807       -0.05191172016211
Co          45.11546534483195       -0.02589692931301        0.02383935484958
C           41.72061510679065       -0.06624121807357       -0.04581821201201
C           42.39703691122492        1.01002143404206       -0.62838511096462
C           41.72830397293849        2.11296549360678       -1.24112880542406
C           42.67396033518428        3.05279062822365       -1.48289447688664
C           43.91968577166431        2.51285882692692       -1.02923667747035
N           43.74157020471294        1.23636803388840       -0.54641260319260
C           45.09409423839161        3.24689610354704       -0.93065521968884
C           45.08416846614089        4.67571360720854       -1.32064485753498
C           44.81926316346910        5.05296862720491       -2.63900176934337
C           44.81495194765794        6.38678231890860       -3.00673286202993
C           45.07374332198994        7.37740988926555       -2.05574550169174
N           45.02256827270506        8.71396523283998       -2.40898187430457
C           45.32693922825138        7.00758575960843       -0.73211161158116
C           45.33940159358114        5.67111733617394       -0.37468099669698
C           46.28187379495503        2.68063894763215       -0.48622399980322
C           47.52606967355284        3.38564165422212       -0.42087738845822
C           48.48834444923484        2.46085152078021       -0.18559885961289
N           46.47832063196470        1.33918136477582       -0.25128484048862
C           47.82918983930119        1.19668188891026       -0.10947089846757
C           48.51117801990100       -0.02165628866038       -0.03654238072283
C           47.83663381593095       -1.24043122294774        0.07889433951809
C           48.49821839879684       -2.50446252240620        0.13447797224822
C           47.54981010157870       -3.42440051350567        0.43825302692211
C           46.31530094796966       -2.71378866063240        0.57509832020807
N           46.49358727639756       -1.38105604311776        0.28652042234908
C           45.13518340739210       -3.28325678217740        1.03671450852583
C           45.14692000614458       -4.68896745454045        1.49320206355005
C           44.30198361175506       -5.63636715592858        0.90823229569636
C           44.31608761836303       -6.95421704061136        1.32727870553113
C           45.17634869969827       -7.35492416517971        2.35353951043915
N           45.15759894646783       -8.66006139641759        2.80931917728573
C           46.01371876826964       -6.41045688808962        2.95397400817836
C           46.00347402525527       -5.09758016087298        2.51929117811736
C           43.94414892017963       -2.57017557750833        1.07125753900994
C           42.70927133995097       -3.09116119941981        1.57292553822844
C           41.74678261622000       -2.19250177466511        1.24985054065992
C           42.40141816441454       -1.12066347563411        0.57128451227466
N           43.74956133876907       -1.32733494197096        0.51414556585890
H           40.66805633334975        2.15803483223894       -1.43119486807392
H           42.54349673595210        4.03480066773104       -1.90711830864559
H           44.63637233429683        4.28913431703486       -3.38671977947984
H           44.61461589167013        6.66769758350111       -4.03485764523968
H           45.16064852471985        8.90265047146321       -3.38888239566169
H           45.52542947110069        9.33757295412074       -1.79809350045656
H           45.51471885144810        7.77274105721383        0.01306013031717
H           45.52832044681307        5.39224320751155        0.65612833897574
H           47.64322597284561        4.44712517073078       -0.56580587907711
H           49.55240386968829        2.60401408171475       -0.08739732124615
H           49.55313951933529       -2.65207189494133       -0.03192642829543
H           47.66578370019013       -4.48925211337356        0.55812923742471
H           43.64536493862392       -5.33760680248268        0.09843909359068
H           43.66293665466392       -7.68222363405744        0.85864458190363
H           45.98863448325144       -8.95719189201511        3.29496793915046
H           44.79971104845306       -9.33793038318352        2.15574950003328
H           46.67204954176086       -6.71229817474075        3.76126833558700
H           46.64986933531751       -4.36898409466397        2.99625793422766
H           42.60200826957859       -4.02349506809889        2.10287135698400
H           40.68753358307717       -2.23825427819561        1.44540937258872

          :  Hamiltonian                  GFN1-xTB          :
         :: total energy            -329.556534951616 Eh    ::
         :: gradient norm              0.000525205683 Eh/a0 ::
         :: HOMO-LUMO gap              0.001648382320 eV    ::
         :: SCC energy              -334.989358721494 Eh    ::
         :: repulsion energy           5.601048513002 Eh    ::

    * Orbital Energies and Occupations

         #    Occupation            Energy/Eh            Energy/eV
      -------------------------------------------------------------
         1        2.0000           -0.7818246             -21.2745
       ...           ...                  ...                  ...
       294        2.0000           -0.3858813             -10.5004
       295        2.0000           -0.3858587             -10.4998
       296        2.0000           -0.3842149             -10.4550
       297        1.9999           -0.3831206             -10.4252
       298        1.9999           -0.3829141             -10.4196
       299        1.9998           -0.3826663             -10.4129
       300        1.9998           -0.3825872             -10.4107
       301        1.9998           -0.3825867             -10.4107
       302        1.9998           -0.3825057             -10.4085
       303        1.9946           -0.3794149             -10.3244
       304        1.6127           -0.3751039             -10.2071
       305        1.1514           -0.3739669             -10.1762
       306        1.1357           -0.3739338             -10.1753 (HOMO)
       307        1.1067           -0.3738732             -10.1736 (LUMO)
       308                         -0.3357919              -9.1374
       309                         -0.3261801              -8.8758
       310                         -0.3210521              -8.7363
       311                         -0.3209636              -8.7339
       312                         -0.3189719              -8.6797
       313                         -0.3182819              -8.6609
       314                         -0.2998940              -8.1605
       315                         -0.2897942              -7.8857
       316                         -0.2880977              -7.8395
       317                         -0.2861433              -7.7864
       ...                                ...                  ...
       655                          1.5823497              43.0579
      -------------------------------------------------------------
                  HL-Gap            0.0000606 Eh            0.0016 eV

Wiberg/Mayer (AO) data.
largest (>0.10) Wiberg bond orders for each atom

     #   Z sym  total        # sym  WBO       # sym  WBO       # sym  WBO
 ---------------------------------------------------------------------------
     1  27 Co   3.027 --     7 N    0.635    39 N    0.635    26 N    0.630
                            19 N    0.630
     2   6 C    3.923 --    38 C    1.365     3 C    1.363    40 H    0.970
     3   6 C    3.926 --     2 C    1.363     7 N    1.200     4 C    1.177
     4   6 C    3.958 --     5 C    1.644     3 C    1.177    41 H    0.975
     5   6 C    3.963 --     4 C    1.644     6 C    1.179    42 H    0.973
     6   6 C    3.918 --     8 C    1.312     7 N    1.215     5 C    1.179
     7   7 N    3.342 --     6 C    1.215     3 C    1.200     1 Co   0.635
     8   6 C    3.929 --    16 C    1.327     6 C    1.312     9 C    1.039
     9   6 C    3.986 --    15 C    1.377    10 C    1.377     8 C    1.039
    10   6 C    3.985 --    11 C    1.471     9 C    1.377    43 H    0.972
    11   6 C    3.989 --    10 C    1.471    12 C    1.352    44 H    0.972
    12   6 C    3.950 --    11 C    1.352    14 C    1.352    13 N    1.119
    13   7 N    3.135 --    12 C    1.119    46 H    0.933    45 H    0.933
    14   6 C    3.988 --    15 C    1.471    12 C    1.352    47 H    0.972
    15   6 C    3.985 --    14 C    1.471     9 C    1.377    48 H    0.972
    16   6 C    3.916 --     8 C    1.327    19 N    1.194    17 C    1.184
    17   6 C    3.959 --    18 C    1.633    16 C    1.184    49 H    0.973
    18   6 C    3.959 --    17 C    1.633    20 C    1.193    50 H    0.974
    19   7 N    3.343 --    20 C    1.231    16 C    1.194     1 Co   0.630
    20   6 C    3.904 --    21 C    1.255    19 N    1.231    18 C    1.193
    21   6 C    3.928 --    20 C    1.255    22 C    1.254   124 C    1.198
    22   6 C    3.904 --    21 C    1.254    26 N    1.233    23 C    1.193
    23   6 C    3.959 --    24 C    1.633    22 C    1.193    51 H    0.974
    24   6 C    3.958 --    23 C    1.633    25 C    1.184    52 H    0.973
    25   6 C    3.916 --    27 C    1.329    26 N    1.193    24 C    1.184
    26   7 N    3.343 --    22 C    1.233    25 C    1.193     1 Co   0.630
    27   6 C    3.929 --    25 C    1.329    35 C    1.310    28 C    1.040
    28   6 C    3.986 --    34 C    1.377    29 C    1.377    27 C    1.040
    29   6 C    3.985 --    30 C    1.471    28 C    1.377    53 H    0.972
    30   6 C    3.989 --    29 C    1.471    31 C    1.352    54 H    0.972
    31   6 C    3.950 --    30 C    1.352    33 C    1.351    32 N    1.119
    32   7 N    3.135 --    31 C    1.119    56 H    0.933    55 H    0.933
    33   6 C    3.988 --    34 C    1.471    31 C    1.351    57 H    0.972
    34   6 C    3.985 --    33 C    1.471    28 C    1.377    58 H    0.972
    35   6 C    3.918 --    27 C    1.310    39 N    1.217    36 C    1.180
    36   6 C    3.963 --    37 C    1.644    35 C    1.180    59 H    0.973
    37   6 C    3.957 --    36 C    1.644    38 C    1.177    60 H    0.975
    38   6 C    3.926 --     2 C    1.365    39 N    1.199    37 C    1.177
    39   7 N    3.342 --    35 C    1.217    38 C    1.199     1 Co   0.635
    40   1 H    1.000 --     2 C    0.970
    41   1 H    0.998 --     4 C    0.975
    42   1 H    1.005 --     5 C    0.973
    43   1 H    1.005 --    10 C    0.972
    44   1 H    0.998 --    11 C    0.972
    45   1 H    0.960 --    13 N    0.933
    46   1 H    0.960 --    13 N    0.933
    47   1 H    0.998 --    14 C    0.972
    48   1 H    1.006 --    15 C    0.972
    49   1 H    1.005 --    17 C    0.973
    50   1 H    1.001 --    18 C    0.974
    51   1 H    1.001 --    23 C    0.974
    52   1 H    1.005 --    24 C    0.973
    53   1 H    1.006 --    29 C    0.972
    54   1 H    0.998 --    30 C    0.972
    55   1 H    0.960 --    32 N    0.933
    56   1 H    0.960 --    32 N    0.933
    57   1 H    0.998 --    33 C    0.972
    58   1 H    1.005 --    34 C    0.972
    59   1 H    1.005 --    36 C    0.973
    60   1 H    0.998 --    37 C    0.975
    61  27 Co   3.027 --    99 N    0.636    67 N    0.636    79 N    0.632
                            86 N    0.631
    62   6 C    3.926 --    98 C    1.365    63 C    1.364   100 H    0.970
    63   6 C    3.926 --    62 C    1.364    67 N    1.200    64 C    1.177
    64   6 C    3.958 --    65 C    1.645    63 C    1.177   101 H    0.975
    65   6 C    3.963 --    64 C    1.645    66 C    1.179   102 H    0.973
    66   6 C    3.918 --    68 C    1.314    67 N    1.214    65 C    1.179
    67   7 N    3.344 --    66 C    1.214    63 C    1.200    61 Co   0.636
    68   6 C    3.932 --    76 C    1.328    66 C    1.314    69 C    1.038
    69   6 C    3.986 --    75 C    1.378    70 C    1.378    68 C    1.038
    70   6 C    3.986 --    71 C    1.471    69 C    1.378   103 H    0.972
    71   6 C    3.989 --    70 C    1.471    72 C    1.352   104 H    0.972
    72   6 C    3.950 --    71 C    1.352    74 C    1.352    73 N    1.118
    73   7 N    3.135 --    72 C    1.118   106 H    0.933   105 H    0.933
    74   6 C    3.989 --    75 C    1.470    72 C    1.352   107 H    0.972
    75   6 C    3.985 --    74 C    1.470    69 C    1.378   108 H    0.972
    76   6 C    3.916 --    68 C    1.328    79 N    1.195    77 C    1.184
    77   6 C    3.959 --    78 C    1.634    76 C    1.184   109 H    0.973
    78   6 C    3.959 --    77 C    1.634    80 C    1.192   110 H    0.974
    79   7 N    3.345 --    80 C    1.229    76 C    1.195    61 Co   0.632
    80   6 C    3.905 --    81 C    1.258    79 N    1.229    78 C    1.192
    81   6 C    3.932 --    80 C    1.258    82 C    1.257   132 C    1.192
    82   6 C    3.905 --    81 C    1.257    86 N    1.231    83 C    1.192
    83   6 C    3.959 --    84 C    1.634    82 C    1.192   111 H    0.974
    84   6 C    3.959 --    83 C    1.634    85 C    1.183   112 H    0.973
    85   6 C    3.916 --    87 C    1.329    86 N    1.193    84 C    1.183
    86   7 N    3.345 --    82 C    1.231    85 C    1.193    61 Co   0.631
    87   6 C    3.932 --    85 C    1.329    95 C    1.312    88 C    1.038
    88   6 C    3.986 --    94 C    1.378    89 C    1.378    87 C    1.038
    89   6 C    3.986 --    90 C    1.470    88 C    1.378   113 H    0.972
    90   6 C    3.989 --    89 C    1.470    91 C    1.352   114 H    0.972
    91   6 C    3.950 --    90 C    1.352    93 C    1.352    92 N    1.118
    92   7 N    3.135 --    91 C    1.118   116 H    0.933   115 H    0.933
    93   6 C    3.989 --    94 C    1.471    91 C    1.352   117 H    0.972
    94   6 C    3.985 --    93 C    1.471    88 C    1.378   118 H    0.972
    95   6 C    3.918 --    87 C    1.312    99 N    1.215    96 C    1.179
    96   6 C    3.963 --    97 C    1.645    95 C    1.179   119 H    0.973
    97   6 C    3.958 --    96 C    1.645    98 C    1.177   120 H    0.975
    98   6 C    3.926 --    62 C    1.365    99 N    1.199    97 C    1.177
    99   7 N    3.344 --    95 C    1.215    98 C    1.199    61 Co   0.636
   100   1 H    1.000 --    62 C    0.970
   101   1 H    0.998 --    64 C    0.975
   102   1 H    1.005 --    65 C    0.973
   103   1 H    1.005 --    70 C    0.972
   104   1 H    0.998 --    71 C    0.972
   105   1 H    0.960 --    73 N    0.933
   106   1 H    0.960 --    73 N    0.933
   107   1 H    0.998 --    74 C    0.972
   108   1 H    1.006 --    75 C    0.972
   109   1 H    1.005 --    77 C    0.973
   110   1 H    1.002 --    78 C    0.974
   111   1 H    1.001 --    83 C    0.974
   112   1 H    1.005 --    84 C    0.973
   113   1 H    1.006 --    89 C    0.972
   114   1 H    0.998 --    90 C    0.972
   115   1 H    0.960 --    92 N    0.933
   116   1 H    0.960 --    92 N    0.933
   117   1 H    0.998 --    93 C    0.972
   118   1 H    1.005 --    94 C    0.972
   119   1 H    1.005 --    96 C    0.973
   120   1 H    0.998 --    97 C    0.975
   121   6 C    3.919 --   122 C    2.350   125 C    1.347   124 C    0.188
   122   6 C    3.917 --   121 C    2.350   123 C    1.346   126 C    0.188
   123   6 C    3.928 --   124 C    2.434   122 C    1.346
   124   6 C    3.881 --   123 C    2.434    21 C    1.198   121 C    0.188
   125   6 C    3.924 --   126 C    2.431   121 C    1.347
   126   6 C    3.883 --   125 C    2.431   134 C    1.201   122 C    0.188
   127   6 C    3.918 --   128 C    2.358   131 C    1.340   130 C    0.188
   128   6 C    3.920 --   127 C    2.358   129 C    1.341   132 C    0.188
   129   6 C    3.925 --   130 C    2.438   128 C    1.341
   130   6 C    3.884 --   129 C    2.438   153 C    1.196   127 C    0.188
   131   6 C    3.931 --   132 C    2.442   127 C    1.340
   132   6 C    3.882 --   131 C    2.442    81 C    1.192   128 C    0.188
   133  27 Co   2.996 --   139 N    0.625   158 N    0.624   151 N    0.624
                           171 N    0.622
   134   6 C    3.915 --   135 C    1.253   170 C    1.250   126 C    1.201
   135   6 C    3.905 --   134 C    1.253   139 N    1.235   136 C    1.192
   136   6 C    3.960 --   137 C    1.634   135 C    1.192   172 H    0.974
   137   6 C    3.959 --   136 C    1.634   138 C    1.185   173 H    0.972
   138   6 C    3.913 --   140 C    1.324   139 N    1.197   137 C    1.185
   139   7 N    3.336 --   135 C    1.235   138 C    1.197   133 Co   0.625
   140   6 C    3.922 --   138 C    1.324   148 C    1.322   141 C    1.029
   141   6 C    3.985 --   142 C    1.381   147 C    1.381   140 C    1.029
   142   6 C    3.987 --   143 C    1.468   141 C    1.381   174 H    0.973
   143   6 C    3.988 --   142 C    1.468   144 C    1.353   175 H    0.972
   144   6 C    3.951 --   143 C    1.353   146 C    1.353   145 N    1.118
   145   7 N    3.135 --   144 C    1.118   176 H    0.933   177 H    0.933
   146   6 C    3.988 --   147 C    1.469   144 C    1.353   178 H    0.972
   147   6 C    3.987 --   146 C    1.469   141 C    1.381   179 H    0.973
   148   6 C    3.912 --   140 C    1.322   151 N    1.198   149 C    1.186
   149   6 C    3.960 --   150 C    1.633   148 C    1.186   180 H    0.973
   150   6 C    3.960 --   149 C    1.633   152 C    1.193   181 H    0.974
   151   7 N    3.337 --   152 C    1.235   148 C    1.198   133 Co   0.624
   152   6 C    3.906 --   153 C    1.254   151 N    1.235   150 C    1.193
   153   6 C    3.916 --   154 C    1.255   152 C    1.254   130 C    1.196
   154   6 C    3.906 --   153 C    1.255   158 N    1.233   155 C    1.194
   155   6 C    3.958 --   156 C    1.630   154 C    1.194   182 H    0.974
   156   6 C    3.960 --   155 C    1.630   157 C    1.187   183 H    0.973
   157   6 C    3.913 --   159 C    1.317   158 N    1.201   156 C    1.187
   158   7 N    3.336 --   154 C    1.233   157 C    1.201   133 Co   0.624
   159   6 C    3.922 --   167 C    1.321   157 C    1.317   160 C    1.040
   160   6 C    3.985 --   166 C    1.376   161 C    1.376   159 C    1.040
   161   6 C    3.985 --   162 C    1.472   160 C    1.376   184 H    0.972
   162   6 C    3.988 --   161 C    1.472   163 C    1.351   185 H    0.972
   163   6 C    3.950 --   165 C    1.351   162 C    1.351   164 N    1.120
   164   7 N    3.137 --   163 C    1.120   186 H    0.933   187 H    0.933
   165   6 C    3.988 --   166 C    1.472   163 C    1.351   188 H    0.972
   166   6 C    3.985 --   165 C    1.472   160 C    1.376   189 H    0.972
   167   6 C    3.913 --   159 C    1.321   171 N    1.197   168 C    1.187
   168   6 C    3.959 --   169 C    1.629   167 C    1.187   190 H    0.973
   169   6 C    3.958 --   168 C    1.629   170 C    1.195   191 H    0.974
   170   6 C    3.905 --   134 C    1.250   171 N    1.237   169 C    1.195
   171   7 N    3.336 --   170 C    1.237   167 C    1.197   133 Co   0.622
   172   1 H    1.002 --   136 C    0.974
   173   1 H    1.005 --   137 C    0.972
   174   1 H    1.004 --   142 C    0.973
   175   1 H    0.998 --   143 C    0.972
   176   1 H    0.960 --   145 N    0.933
   177   1 H    0.960 --   145 N    0.933
   178   1 H    0.998 --   146 C    0.972
   179   1 H    1.004 --   147 C    0.973
   180   1 H    1.005 --   149 C    0.973
   181   1 H    1.002 --   150 C    0.974
   182   1 H    1.001 --   155 C    0.974
   183   1 H    1.005 --   156 C    0.973
   184   1 H    1.005 --   161 C    0.972
   185   1 H    0.998 --   162 C    0.972
   186   1 H    0.960 --   164 N    0.933
   187   1 H    0.960 --   164 N    0.933
   188   1 H    0.998 --   165 C    0.972
   189   1 H    1.005 --   166 C    0.972
   190   1 H    1.005 --   168 C    0.973
   191   1 H    1.001 --   169 C    0.974
 ---------------------------------------------------------------------------

           -------------------------------------------------
          | TOTAL ENERGY             -329.556534951616 Eh   |
          | GRADIENT NORM               0.000525205683 Eh/α |
          | HOMO-LUMO GAP               0.001648382320 eV   |
           -------------------------------------------------

 * finished run on 2022/07/30 at 00:27:47.629
