   * xtb version 6.5.1 (b24c23e) compiled by 'conda@728c89f4b128' on 2022-07-12
          program call               : xtb Ni_H_C8_4.xyz --gfn 1 --opt -T 48

   ID    Z sym.   atoms
    1   28 Ni     1, 37, 97, 132
    2    6 C      2-6, 8-11, 13-18, 20-24, 38-42, 44-47, 49-54, 56-60, 73-96,
                  98-102, 104-107, 109-114, 116-120, 133-137, 139-142,
                  144-149, 151-155
    3    7 N      7, 12, 19, 25, 43, 48, 55, 61, 103, 108, 115, 121, 138,
                  143, 150, 156
    4    1 H      26-36, 62-72, 122-131, 157-166

          :  Hamiltonian                  GFN1-xTB          :
 * total energy  :  -304.3258298 Eh     change        0.1040746E-08 Eh
 * total energy  :  -307.8567819 Eh     change       -0.3530952E+01 Eh
 * total energy  :  -308.4686381 Eh     change       -0.6118561E+00 Eh
 * total energy  :  -308.7275377 Eh     change       -0.2588997E+00 Eh
 * total energy  :  -308.8637504 Eh     change       -0.1362127E+00 Eh
 * total energy  :  -308.9488630 Eh     change       -0.8511257E-01 Eh
 * total energy  :  -309.0162211 Eh     change       -0.6735810E-01 Eh
 * total energy  :  -309.0794739 Eh     change       -0.6325284E-01 Eh
 * total energy  :  -309.1479806 Eh     change       -0.6850662E-01 Eh
 * total energy  :  -309.2199040 Eh     change       -0.7192341E-01 Eh
 * total energy  :  -309.5272437 Eh     change       -0.1666020E-04 Eh
 * total energy  :  -309.5273571 Eh     change       -0.1134028E-03 Eh
 * total energy  :  -309.5274473 Eh     change       -0.9015291E-04 Eh
 * total energy  :  -309.5274957 Eh     change       -0.4844803E-04 Eh
 * total energy  :  -309.5275187 Eh     change       -0.2297512E-04 Eh
 * total energy  :  -309.5275277 Eh     change       -0.9007873E-05 Eh
 * total energy  :  -309.5275334 Eh     change       -0.5719909E-05 Eh
 * total energy  :  -309.5275335 Eh     change       -0.9576303E-07 Eh
 * total energy  :  -309.5275378 Eh     change       -0.4273575E-05 Eh
   *** GEOMETRY OPTIMIZATION CONVERGED AFTER 40 ITERATIONS ***

 final structure:
================
166
 xtb: 6.5.1 (b24c23e)
Ni          16.55118881786974       -0.01673595427238       -0.01586098286504
C           13.14011018759170       -0.05711548532332       -0.05482763606854
C           13.80992756250406       -0.90781763160538       -0.90985645867211
C           13.15191883342975       -1.80578397370807       -1.81257819809909
C           14.12505551228081       -2.46886489920968       -2.47960568403529
C           15.37476285344300       -1.97438645845539       -1.98250673585870
N           15.17265276692193       -1.01784511444039       -1.02078748591668
C           16.60335900867003       -2.41710012074707       -2.42719223681808
C           17.81082746201167       -1.94820190098936       -1.95473146945559
C           19.07819240439439       -2.41744111221452       -2.42485468855653
C           20.02384043828100       -1.73414068574323       -1.73699057526249
N           17.97681840432054       -0.98489063749278       -0.98648235844680
C           19.33009330689188       -0.85125124696051       -0.85059029542526
C           19.98267017686916        0.02125037799054        0.02575426805333
C           19.29046762843764        0.87889298030762        0.88572710419689
C           19.94284032154101        1.77746126634813        1.78762470443395
C           18.96583755950011        2.44000359286988        2.45166623286005
C           17.72083076306766        1.94238794599157        1.95170229106933
N           17.93155883948600        0.98255746126273        0.98874706232705
C           16.49198078651654        2.38408253556127        2.39452639182673
C           15.28463791651329        1.91272908573217        1.92181335029644
C           14.01250453138805        2.37820342454564        2.38932495396820
C           13.07078879984434        1.69186775597373        1.70108885087883
C           13.77022058459797        0.80898127550648        0.81478637742120
N           15.12710943868298        0.95107496860400        0.95686045022604
H           12.05648797272591       -0.06971527097241       -0.06722191831321
H           12.08156686866571       -1.89941254948173       -1.90654344753668
H           14.02907615365213       -3.22637181847743       -3.24133143440119
H           16.62137477901562       -3.18131391464765       -3.19561866020344
H           19.20658515971178       -3.17269892247537       -3.18378061942387
H           21.09704933342532       -1.80747339039196       -1.80944043269931
H           21.01220082026279        1.87430986537169        1.88553741662990
H           19.05899745182002        3.19841382238501        3.21261791688489
H           16.47409417826350        3.14921946657325        3.16204996859584
H           13.88115960060172        3.13388167027657        3.14757895837590
H           11.99664375396929        1.76038653792746        1.77021473925216
Ni          72.39073323693495        0.00004952623909       -0.00938427243021
C           75.80166612538444        0.05931264617767       -0.01225382431845
C           75.13067459460129        1.26331355218066       -0.07180496290054
C           75.78745481438496        2.53568239102254       -0.13483078292550
C           74.81343544880971        3.47422004430346       -0.17938957412566
C           73.56435883721193        2.77277678926066       -0.14368020482833
N           73.76779753100584        1.41813460982607       -0.07810627368981
C           72.33519662294219        3.39844822145921       -0.17219466647390
C           71.12835397372631        2.73238496933198       -0.13933686593935
C           69.86028691838283        3.39462434090416       -0.17066212698357
C           68.91557849376682        2.42522999568998       -0.12560411665111
N           70.96379188069992        1.36799207463403       -0.07495258380599
C           69.61053142929110        1.17615830704306       -0.06679835286133
C           68.95961805404470       -0.05981423650203       -0.01199985324319
C           69.65274487290324       -1.27221110052329        0.04634755230666
C           69.00158574232039       -2.54454111736773        0.10687865370918
C           69.97944309299842       -3.48028404963239        0.15707987900223
C           71.22379699410185       -2.77434504818051        0.12624406697906
N           71.01189021372475       -1.41673174261765        0.05801726855184
C           72.45320839774404       -3.39777720385213        0.16080655291506
C           73.65983923481336       -2.72976993368024        0.12897807880779
C           74.93261573571138       -3.38739939422843        0.16281686140541
C           75.87338590279748       -2.41578859065680        0.11335736075265
C           75.17275101533245       -1.16705347464338        0.04988894097732
N           73.81605503238384       -1.36903294901325        0.06006012555909
H           76.88527042835420        0.07798370343646       -0.01370710734000
H           76.85768208588186        2.66912550014881       -0.14254083220124
H           74.90841411884972        4.54729244626869       -0.23183777338840
H           72.31618696058379        4.48092969532128       -0.22412947154110
H           69.73086609075349        4.46401457207677       -0.22108937101925
H           67.84224879933576        2.52700653616770       -0.13092474234136
H           67.93236514208556       -2.68330489760328        0.11021221380418
H           69.88730412830550       -4.55340699454558        0.21023518525324
H           72.47208353336272       -4.48013489035217        0.21535750885516
H           75.06496015676062       -4.45641246178997        0.21709873621476
H           76.94762145875822       -2.51197740681769        0.11825578082265
C           21.38727299000083        0.03421725793992        0.04001487887912
C           22.61143565753344        0.03991083608578        0.04247944816479
C           23.95460187197925        0.04111560430182        0.04397297331287
C           25.18498719710561        0.03410906917318        0.03932358141855
C           26.52319853166261        0.02456479955998        0.03206376769210
C           27.75359012063469        0.01446577273092        0.02220360916129
C           29.09643446209475        0.00305877699930        0.01102002092684
C           30.32069438367699       -0.00653002483076        0.00096752520950
C           40.00397039691222       -0.06054924907361       -0.03773330253574
C           41.22843640193197       -0.05757884469926       -0.03666485532145
C           42.57122189932899       -0.05049783181285       -0.03270348306736
C           43.80152971186159       -0.03971776983145       -0.02618702963416
C           45.13954640850906       -0.02830435065150       -0.02038323634116
C           46.37022853881570       -0.01784167762176       -0.01255847937091
C           47.71301748126554       -0.01160143594410       -0.01189222045885
C           48.93743018470487       -0.00545886572718       -0.01433295187122
C           58.62085958243798       -0.06029313147826       -0.03853436858040
C           59.84499092478903       -0.07091769636981       -0.03888677814746
C           61.18822178201093       -0.08119940376815       -0.03752644213599
C           62.41843329389062       -0.09148674381202       -0.03407899359356
C           63.75700687013470       -0.09714768695740       -0.02980359228548
C           64.98724831467463       -0.09890870883249       -0.02451503085278
C           66.33069973714261       -0.09195728117671       -0.01937123826361
C           67.55464525947518       -0.08192637708412       -0.01545263836094
Ni          35.16243962148737       -0.03015891543552       -0.02596799649468
C           31.72476173589740       -0.01494058200459       -0.00713554937438
C           32.40712230473861        0.89816892057430        0.80293394958178
C           31.74334823954175        1.84567068134634        1.64377351013222
C           32.71208525791909        2.55617928739088        2.26973957785846
C           33.96232588426421        2.03751485569990        1.80772095325631
N           33.76441845860012        1.01800410521604        0.90563507615726
C           35.18594927288002        2.51344010338083        2.22873620542385
C           36.40045073543891        2.02357814382732        1.79788941009388
C           37.66025645140973        2.52807377143123        2.24962130994261
C           38.61574396400226        1.80695117129961        1.61561128216333
N           36.57953676493130        1.00199613772560        0.89399796758934
C           37.93446405209452        0.86713086535011        0.78004649399455
C           38.59997482311037       -0.05359658531480       -0.03550864251355
C           37.91819502952511       -0.96345591703281       -0.84947924084548
C           38.58195801920872       -1.90919837784136       -1.69234309617536
C           37.61317571486899       -2.61255126427347       -2.32626936700251
C           36.36277045359795       -2.09242580936745       -1.86591294293801
N           36.56087721429434       -1.07828252110074       -0.95774856403802
C           35.13907429195122       -2.56429604311627       -2.29108206375673
C           33.92431995319252       -2.07824492804664       -1.85591699172723
C           32.66451941693959       -2.58425294701137       -2.30605017694349
C           31.70887379276816       -1.87017494743186       -1.66418213605987
C           32.38999503327849       -0.93209811488923       -0.82666025755845
N           33.74510947974323       -1.06207693286771       -0.94614034811449
H           30.67289154530163        1.94024614664704        1.73059502428985
H           32.60954037726092        3.35983447963083        2.98137246852139
H           35.19349371255733        3.32525759427128        2.94699065372158
H           37.77763827823291        3.33033195923961        2.96053823628062
H           39.68786791953850        1.88965231306519        1.69350279992640
H           39.65247079388401       -2.00704444705733       -1.77519786567824
H           37.71565844386581       -3.41278388183598       -3.04178865104392
H           35.13136263709963       -3.37182710455975       -3.01418591379463
H           32.54718189309926       -3.38316855547905       -3.02075257116170
H           30.63671020078950       -1.95618512101851       -1.73813538478777
Ni          53.77889648943817       -0.03062326215158       -0.02643116668037
C           50.34144534675729       -0.01014825004860       -0.01748766837406
C           51.02232959039313        0.90124273090939        0.79546490143392
C           50.35758030399926        1.84779720675416        1.63664179707854
C           51.32564086765159        2.55415567782708        2.26830167180522
C           52.57656814010983        2.03461154684784        1.80873436402104
N           52.37954956403570        1.01809082441020        0.90296286137135
C           53.79970146867453        2.50865489528833        2.23302966569100
C           55.01491628727936        2.02174317105065        1.80012585723389
C           56.27422784629689        2.52851103641598        2.25087977669204
C           57.23056775514834        1.81190993241671        1.61296240401763
N           55.19505997268718        1.00298693296953        0.89356231087020
C           56.55038424807656        0.87158316064254        0.77714264691397
C           57.21636359369253       -0.05023721880709       -0.03625350154410
C           56.53526161738922       -0.96427881379129       -0.84587360273006
C           57.20006511694013       -1.91339357658811       -1.68418515522326
C           56.23209186338470       -2.62109340941058       -2.31441699624659
C           54.98122013298940       -2.09955506413673       -1.85716359207953
N           55.17797618771709       -1.08093506948430       -0.95391280587928
C           53.75812168483915       -2.57272002015432       -2.28288298464236
C           52.54313027239081       -2.08239699472640       -1.85392134350822
C           51.28379624878605       -2.58635871968856       -2.30767242984707
C           50.32760692678822       -1.86748285268352       -1.67218209109804
C           51.00795567279884       -0.92898218015070       -0.83434990786624
N           52.36300952514087       -1.06265718801042       -0.94818093834808
H           49.28697095807203        1.94441798933274        1.71962076301716
H           51.22235426507853        3.35598855182460        2.98190256988704
H           53.80659553103400        3.31793774960125        2.95416380337471
H           56.39077354367018        3.32926996344484        2.96363885304542
H           58.30263620144857        1.89742201925602        1.68878553631626
H           58.27064495715074       -2.01035881679744       -1.76687435666762
H           56.33543850977244       -3.42473202034248       -3.02596398450890
H           53.75141799077515       -3.38357086178713       -3.00222862282615
H           51.16717786507632       -3.38705634381347       -3.02047363886515
H           49.25556560848226       -1.95068867915926       -1.75071504469558

          :  Hamiltonian                  GFN1-xTB          :
         :: total energy            -309.527537775751 Eh    ::
         :: gradient norm              0.000902740756 Eh/a0 ::
         :: HOMO-LUMO gap              1.022980455986 eV    ::
         :: SCC energy              -314.888484140655 Eh    ::
         :: repulsion energy           5.502748864727 Eh    ::

    * Orbital Energies and Occupations

         #    Occupation            Energy/Eh            Energy/eV
      -------------------------------------------------------------
         1        2.0000           -0.7845971             -21.3500
       ...           ...                  ...                  ...
       277        2.0000           -0.4000923             -10.8871
       278        2.0000           -0.4000819             -10.8868
       279        2.0000           -0.4000438             -10.8857
       280        2.0000           -0.3991921             -10.8626
       281        2.0000           -0.3991152             -10.8605
       282        2.0000           -0.3983739             -10.8403
       283        2.0000           -0.3982654             -10.8374
       284        2.0000           -0.3981893             -10.8353
       285        2.0000           -0.3981401             -10.8339
       286        2.0000           -0.3980677             -10.8320
       287        2.0000           -0.3941179             -10.7245
       288        2.0000           -0.3897962             -10.6069
       289        2.0000           -0.3853685             -10.4864 (HOMO)
       290                         -0.3477747              -9.4634 (LUMO)
       291                         -0.3419826              -9.3058
       292                         -0.3364493              -9.1553
       293                         -0.3337820              -9.0827
       294                         -0.3337719              -9.0824
       295                         -0.3334834              -9.0745
       296                         -0.3329176              -9.0591
       297                         -0.3329055              -9.0588
       298                         -0.3313603              -9.0168
       299                         -0.3312933              -9.0149
       300                         -0.3311364              -9.0107
       ...                                ...                  ...
       600                          1.6035603              43.6351
      -------------------------------------------------------------
                  HL-Gap            0.0375938 Eh            1.0230 eV

Wiberg/Mayer (AO) data.
largest (>0.10) Wiberg bond orders for each atom

     #   Z sym  total        # sym  WBO       # sym  WBO       # sym  WBO
 ---------------------------------------------------------------------------
     1  28 Ni   3.011 --    25 N    0.665     7 N    0.664    12 N    0.661
                            19 N    0.661
     2   6 C    3.939 --    24 C    1.365     3 C    1.365    26 H    0.970
     3   6 C    3.923 --     2 C    1.365     7 N    1.218     4 C    1.170
     4   6 C    3.960 --     5 C    1.655     3 C    1.170    27 H    0.975
     5   6 C    3.962 --     4 C    1.655     6 C    1.171    28 H    0.975
     6   6 C    3.921 --     8 C    1.362     7 N    1.218     5 C    1.171
     7   7 N    3.406 --     3 C    1.218     6 C    1.218     1 Ni   0.664
     8   6 C    3.944 --     9 C    1.370     6 C    1.362    29 H    0.970
     9   6 C    3.915 --     8 C    1.370    12 N    1.201    10 C    1.177
    10   6 C    3.958 --    11 C    1.643     9 C    1.177    30 H    0.975
    11   6 C    3.961 --    10 C    1.643    13 C    1.186    31 H    0.973
    12   7 N    3.409 --    13 C    1.245     9 C    1.201     1 Ni   0.661
    13   6 C    3.903 --    14 C    1.262    12 N    1.245    11 C    1.186
    14   6 C    3.948 --    15 C    1.263    13 C    1.262    73 C    1.186
    15   6 C    3.903 --    14 C    1.263    19 N    1.245    16 C    1.186
    16   6 C    3.961 --    17 C    1.643    15 C    1.186    32 H    0.973
    17   6 C    3.958 --    16 C    1.643    18 C    1.177    33 H    0.975
    18   6 C    3.915 --    20 C    1.370    19 N    1.202    17 C    1.177
    19   7 N    3.409 --    15 C    1.245    18 C    1.202     1 Ni   0.661
    20   6 C    3.944 --    18 C    1.370    21 C    1.362    34 H    0.970
    21   6 C    3.921 --    20 C    1.362    25 N    1.218    22 C    1.171
    22   6 C    3.962 --    23 C    1.655    21 C    1.171    35 H    0.975
    23   6 C    3.960 --    22 C    1.655    24 C    1.170    36 H    0.975
    24   6 C    3.923 --     2 C    1.365    25 N    1.218    23 C    1.170
    25   7 N    3.406 --    24 C    1.218    21 C    1.218     1 Ni   0.665
    26   1 H    1.000 --     2 C    0.970
    27   1 H    0.997 --     4 C    0.975
    28   1 H    0.997 --     5 C    0.975
    29   1 H    1.000 --     8 C    0.970
    30   1 H    0.997 --    10 C    0.975
    31   1 H    1.002 --    11 C    0.973
    32   1 H    1.002 --    16 C    0.973
    33   1 H    0.997 --    17 C    0.975
    34   1 H    1.000 --    20 C    0.970
    35   1 H    0.997 --    22 C    0.975
    36   1 H    0.997 --    23 C    0.975
    37  28 Ni   3.011 --    61 N    0.665    43 N    0.665    48 N    0.661
                            55 N    0.661
    38   6 C    3.939 --    60 C    1.365    39 C    1.365    62 H    0.970
    39   6 C    3.923 --    38 C    1.365    43 N    1.218    40 C    1.170
    40   6 C    3.960 --    41 C    1.655    39 C    1.170    63 H    0.975
    41   6 C    3.962 --    40 C    1.655    42 C    1.171    64 H    0.975
    42   6 C    3.921 --    44 C    1.363    43 N    1.218    41 C    1.171
    43   7 N    3.406 --    39 C    1.218    42 C    1.218    37 Ni   0.665
    44   6 C    3.944 --    45 C    1.370    42 C    1.363    65 H    0.970
    45   6 C    3.916 --    44 C    1.370    48 N    1.202    46 C    1.177
    46   6 C    3.958 --    47 C    1.643    45 C    1.177    66 H    0.975
    47   6 C    3.961 --    46 C    1.643    49 C    1.186    67 H    0.973
    48   7 N    3.410 --    49 C    1.244    45 C    1.202    37 Ni   0.661
    49   6 C    3.903 --    50 C    1.264    48 N    1.244    47 C    1.186
    50   6 C    3.949 --    51 C    1.264    49 C    1.264    96 C    1.184
    51   6 C    3.903 --    50 C    1.264    55 N    1.244    52 C    1.186
    52   6 C    3.961 --    53 C    1.643    51 C    1.186    68 H    0.973
    53   6 C    3.958 --    52 C    1.643    54 C    1.177    69 H    0.975
    54   6 C    3.916 --    56 C    1.370    55 N    1.202    53 C    1.177
    55   7 N    3.410 --    51 C    1.244    54 C    1.202    37 Ni   0.661
    56   6 C    3.944 --    54 C    1.370    57 C    1.363    70 H    0.970
    57   6 C    3.921 --    56 C    1.363    61 N    1.218    58 C    1.171
    58   6 C    3.962 --    59 C    1.655    57 C    1.171    71 H    0.975
    59   6 C    3.960 --    58 C    1.655    60 C    1.170    72 H    0.975
    60   6 C    3.923 --    38 C    1.365    61 N    1.218    59 C    1.170
    61   7 N    3.406 --    60 C    1.218    57 C    1.218    37 Ni   0.665
    62   1 H    1.000 --    38 C    0.970
    63   1 H    0.997 --    40 C    0.975
    64   1 H    0.997 --    41 C    0.975
    65   1 H    1.000 --    44 C    0.970
    66   1 H    0.997 --    46 C    0.975
    67   1 H    1.002 --    47 C    0.973
    68   1 H    1.002 --    52 C    0.973
    69   1 H    0.997 --    53 C    0.975
    70   1 H    1.000 --    56 C    0.970
    71   1 H    0.997 --    58 C    0.975
    72   1 H    0.997 --    59 C    0.975
    73   6 C    3.878 --    74 C    2.445    14 C    1.186    76 C    0.187
    74   6 C    3.939 --    73 C    2.445    75 C    1.341
    75   6 C    3.894 --    76 C    2.340    74 C    1.341    78 C    0.183
    76   6 C    3.928 --    75 C    2.340    77 C    1.367    73 C    0.187
    77   6 C    3.927 --    78 C    2.339    76 C    1.367    80 C    0.187
    78   6 C    3.895 --    77 C    2.339    79 C    1.342    75 C    0.183
    79   6 C    3.936 --    80 C    2.443    78 C    1.342
    80   6 C    3.878 --    79 C    2.443    98 C    1.188    77 C    0.187
    81   6 C    3.878 --    82 C    2.442   110 C    1.189    84 C    0.187
    82   6 C    3.936 --    81 C    2.442    83 C    1.343
    83   6 C    3.894 --    84 C    2.338    82 C    1.343    86 C    0.183
    84   6 C    3.927 --    83 C    2.338    85 C    1.368    81 C    0.187
    85   6 C    3.926 --    86 C    2.338    84 C    1.368    88 C    0.187
    86   6 C    3.894 --    85 C    2.338    87 C    1.343    83 C    0.183
    87   6 C    3.936 --    88 C    2.442    86 C    1.343
    88   6 C    3.878 --    87 C    2.442   133 C    1.188    85 C    0.187
    89   6 C    3.878 --    90 C    2.445   145 C    1.186    92 C    0.187
    90   6 C    3.936 --    89 C    2.445    91 C    1.340
    91   6 C    3.894 --    92 C    2.342    90 C    1.340    94 C    0.183
    92   6 C    3.926 --    91 C    2.342    93 C    1.365    89 C    0.187
    93   6 C    3.928 --    94 C    2.342    92 C    1.365    96 C    0.187
    94   6 C    3.894 --    93 C    2.342    95 C    1.339    91 C    0.183
    95   6 C    3.939 --    96 C    2.447    94 C    1.339
    96   6 C    3.878 --    95 C    2.447    50 C    1.184    93 C    0.187
    97  28 Ni   2.995 --   121 N    0.660   108 N    0.660   103 N    0.660
                           115 N    0.660
    98   6 C    3.938 --   120 C    1.261    99 C    1.260    80 C    1.188
    99   6 C    3.903 --    98 C    1.260   103 N    1.246   100 C    1.188
   100   6 C    3.959 --   101 C    1.640    99 C    1.188   122 H    0.973
   101   6 C    3.958 --   100 C    1.640   102 C    1.180   123 H    0.975
   102   6 C    3.913 --   104 C    1.366   103 N    1.201   101 C    1.180
   103   7 N    3.404 --    99 C    1.246   102 C    1.201    97 Ni   0.660
   104   6 C    3.939 --   105 C    1.367   102 C    1.366   124 H    0.970
   105   6 C    3.913 --   104 C    1.367   108 N    1.201   106 C    1.179
   106   6 C    3.958 --   107 C    1.640   105 C    1.179   125 H    0.975
   107   6 C    3.959 --   106 C    1.640   109 C    1.187   126 H    0.973
   108   7 N    3.403 --   109 C    1.246   105 C    1.201    97 Ni   0.660
   109   6 C    3.903 --   110 C    1.260   108 N    1.246   107 C    1.187
   110   6 C    3.938 --   111 C    1.261   109 C    1.260    81 C    1.189
   111   6 C    3.903 --   110 C    1.261   115 N    1.246   112 C    1.187
   112   6 C    3.959 --   113 C    1.640   111 C    1.187   127 H    0.973
   113   6 C    3.958 --   112 C    1.640   114 C    1.179   128 H    0.975
   114   6 C    3.913 --   116 C    1.367   115 N    1.201   113 C    1.179
   115   7 N    3.403 --   111 C    1.246   114 C    1.201    97 Ni   0.660
   116   6 C    3.939 --   114 C    1.367   117 C    1.366   129 H    0.970
   117   6 C    3.913 --   116 C    1.366   121 N    1.201   118 C    1.180
   118   6 C    3.958 --   119 C    1.640   117 C    1.180   130 H    0.975
   119   6 C    3.959 --   118 C    1.640   120 C    1.187   131 H    0.973
   120   6 C    3.903 --    98 C    1.261   121 N    1.246   119 C    1.187
   121   7 N    3.404 --   120 C    1.246   117 C    1.201    97 Ni   0.660
   122   1 H    1.002 --   100 C    0.973
   123   1 H    0.997 --   101 C    0.975
   124   1 H    1.000 --   104 C    0.970
   125   1 H    0.997 --   106 C    0.975
   126   1 H    1.002 --   107 C    0.973
   127   1 H    1.001 --   112 C    0.973
   128   1 H    0.997 --   113 C    0.975
   129   1 H    1.000 --   116 C    0.970
   130   1 H    0.997 --   118 C    0.975
   131   1 H    1.002 --   119 C    0.973
   132  28 Ni   2.996 --   156 N    0.660   143 N    0.660   150 N    0.660
                           138 N    0.660
   133   6 C    3.938 --   134 C    1.261   155 C    1.260    88 C    1.188
   134   6 C    3.903 --   133 C    1.261   138 N    1.246   135 C    1.187
   135   6 C    3.959 --   136 C    1.640   134 C    1.187   157 H    0.973
   136   6 C    3.958 --   135 C    1.640   137 C    1.179   158 H    0.975
   137   6 C    3.913 --   139 C    1.367   138 N    1.201   136 C    1.179
   138   7 N    3.404 --   134 C    1.246   137 C    1.201   132 Ni   0.660
   139   6 C    3.939 --   137 C    1.367   140 C    1.366   159 H    0.970
   140   6 C    3.913 --   139 C    1.366   143 N    1.202   141 C    1.179
   141   6 C    3.959 --   142 C    1.640   140 C    1.179   160 H    0.975
   142   6 C    3.959 --   141 C    1.640   144 C    1.187   161 H    0.973
   143   7 N    3.404 --   144 C    1.245   140 C    1.202   132 Ni   0.660
   144   6 C    3.903 --   145 C    1.262   143 N    1.245   142 C    1.187
   145   6 C    3.938 --   144 C    1.262   146 C    1.261    89 C    1.186
   146   6 C    3.903 --   145 C    1.261   150 N    1.245   147 C    1.187
   147   6 C    3.959 --   148 C    1.640   146 C    1.187   162 H    0.973
   148   6 C    3.959 --   147 C    1.640   149 C    1.179   163 H    0.975
   149   6 C    3.913 --   151 C    1.366   150 N    1.201   148 C    1.179
   150   7 N    3.404 --   146 C    1.245   149 C    1.201   132 Ni   0.660
   151   6 C    3.939 --   152 C    1.367   149 C    1.366   164 H    0.970
   152   6 C    3.913 --   151 C    1.367   156 N    1.201   153 C    1.179
   153   6 C    3.958 --   154 C    1.640   152 C    1.179   165 H    0.975
   154   6 C    3.959 --   153 C    1.640   155 C    1.187   166 H    0.973
   155   6 C    3.903 --   133 C    1.260   156 N    1.246   154 C    1.187
   156   7 N    3.404 --   155 C    1.246   152 C    1.201   132 Ni   0.660
   157   1 H    1.001 --   135 C    0.973
   158   1 H    0.997 --   136 C    0.975
   159   1 H    1.000 --   139 C    0.970
   160   1 H    0.997 --   141 C    0.975
   161   1 H    1.001 --   142 C    0.973
   162   1 H    1.002 --   147 C    0.973
   163   1 H    0.997 --   148 C    0.975
   164   1 H    1.000 --   151 C    0.970
   165   1 H    0.997 --   153 C    0.975
   166   1 H    1.002 --   154 C    0.973
 ---------------------------------------------------------------------------

           -------------------------------------------------
          | TOTAL ENERGY             -309.527537775751 Eh   |
          | GRADIENT NORM               0.000902740756 Eh/α |
          | HOMO-LUMO GAP               1.022980455986 eV   |
           -------------------------------------------------

 * finished run on 2022/07/30 at 02:17:37.339
