   * xtb version 6.5.1 (b24c23e) compiled by 'conda@728c89f4b128' on 2022-07-12
          program call               : xtb Ni_Ph_C8_2.xyz --gfn 1 --opt -T 48

   ID    Z sym.   atoms
    1   28 Ni     1, 57
    2    6 C      2-6, 8-11, 13-29, 32-37, 58-62, 64-67, 69-85, 88-93, 113-120
    3    7 N      7, 12, 30, 31, 63, 68, 86, 87
    4    1 H      38-56, 94-112
########################################################################
[WARNING] Please study the warnings concerning your input carefully
-1- prog_main_parseArguments: Unknown option '-T' provided
########################################################################

          :  Hamiltonian                  GFN1-xTB          :
 * total energy  :  -205.9933952 Eh     change       -0.6744472E-10 Eh
 * total energy  :  -206.1900681 Eh     change       -0.1966729E+00 Eh
 * total energy  :  -206.2481117 Eh     change       -0.5804356E-01 Eh
 * total energy  :  -206.2693084 Eh     change       -0.2119675E-01 Eh
 * total energy  :  -206.2786278 Eh     change       -0.9319350E-02 Eh
 * total energy  :  -206.2831217 Eh     change       -0.4493953E-02 Eh
 * total energy  :  -206.2836087 Eh     change       -0.4869391E-03 Eh
 * total energy  :  -206.2864632 Eh     change       -0.2854548E-02 Eh
 * total energy  :  -206.2870447 Eh     change       -0.5814800E-03 Eh
 * total energy  :  -206.2877969 Eh     change       -0.7522646E-03 Eh
 * total energy  :  -206.2897481 Eh     change       -0.6651586E-05 Eh
 * total energy  :  -206.2897555 Eh     change       -0.7399421E-05 Eh
 * total energy  :  -206.2897655 Eh     change       -0.1000652E-04 Eh
 * total energy  :  -206.2897786 Eh     change       -0.1308313E-04 Eh
 * total energy  :  -206.2897933 Eh     change       -0.1470568E-04 Eh
 * total energy  :  -206.2898040 Eh     change       -0.1070498E-04 Eh
 * total energy  :  -206.2898121 Eh     change       -0.8141963E-05 Eh
 * total energy  :  -206.2898201 Eh     change       -0.7986498E-05 Eh
 * total energy  :  -206.2898216 Eh     change       -0.1452393E-05 Eh
   *** GEOMETRY OPTIMIZATION CONVERGED AFTER 44 ITERATIONS ***

 final structure:
================
120
 xtb: 6.5.1 (b24c23e)
Ni          11.48958853863282       -0.03646943267965       -0.01537744233112
C            8.09487266510552       -0.05689593168642       -0.04221793754347
C            8.75036559511119       -1.25912913570572       -0.20637297400188
C            8.07293844390765       -2.50871892887886       -0.37195013625031
C            9.02859917028328       -3.46633222878713       -0.40624203509068
C           10.29044730637691       -2.79925782813369       -0.27172699936535
N           10.10983485917685       -1.44283617790343       -0.16237667420598
C           11.50725001061808       -3.46202963154527       -0.18354668520166
C           12.71691574811911       -2.79743159888644       -0.04009200496129
C           13.98307196431337       -3.46274398487979        0.01863999644151
C           14.93133623280624       -2.49667621312993        0.06084306974325
N           12.88953304750538       -1.43114369408830       -0.02481049343109
C           14.24353248811814       -1.24559568166594        0.02203659053915
C           14.90459317538524       -0.01499947161324       -0.02517976546681
C           14.22580848570687        1.20625610159889       -0.06150276828789
C           14.89442373446885        2.46573151007349       -0.13874763822670
C           13.93434999216296        3.41942932024909       -0.08002789632743
C           12.68136664953306        2.73812139993932        0.04275286944597
C           11.46359621583231        3.38835772054673        0.19002660063560
C           11.45432996087086        4.86864640257983        0.28018113041808
C           10.79289871714224        5.63118105413652       -0.68336063979184
C           10.78697007240731        7.01536337998770       -0.59892257216226
C           11.43697199786945        7.65374272771002        0.44853439860348
C           12.09584398405704        6.90188838708171        1.41176788896284
C           12.10730658944525        5.51762260644411        1.32884065547924
C           10.25335646861513        2.70923161031164        0.24912957876641
C            8.98495505777886        3.35224669257525        0.43123640391420
C            8.04050909925827        2.38583081272488        0.35311451248279
C            8.73303962847264        1.15216243037849        0.13950548582946
N           10.09015122468560        1.35402001447138        0.10505122197536
N           12.87092390475056        1.37423577516076        0.02010117970430
C           11.51589806216750       -4.94529825310287       -0.24819938140492
C           11.14959155117185       -5.60304644684798       -1.42240369924386
C           11.16222533349886       -6.98872676006844       -1.48121768628086
C           11.53523786264296       -7.73131091690610       -0.36922513892480
C           11.89835810958432       -7.08293394952054        0.80331680510322
C           11.89178489547272       -5.69736769395741        0.86481494018159
H            7.01108531364636       -0.06423614682918       -0.04616019949509
H            7.00223858350032       -2.61927173585563       -0.43804625917582
H            8.90333679419048       -4.53271043288691       -0.50080052469962
H           14.11901684748961       -4.53179911155609        0.01216293081626
H           16.00300519426975       -2.60554733044225        0.10343591304865
H           15.96181151594277        2.58779209562325       -0.22769370890878
H           14.05333291446398        4.48965837611168       -0.12263433316809
H           10.29607785538023        5.13456386819738       -1.50940125159372
H           10.27332898556323        7.59811376454165       -1.35552184600217
H           11.43027812186079        8.73585132883180        0.51389017167651
H           12.60323935836498        7.39571894228438        2.23306721677115
H           12.61204745046227        4.93136162815025        2.08864843906566
H            8.84797340069102        4.40783916844887        0.60072091522524
H            6.96919873672232        2.47935342433871        0.43403478244882
H           10.86841810178795       -5.02341759054190       -2.29459027534600
H           10.88063235794490       -7.49069589920877       -2.40022468813069
H           11.54311055824907       -8.81436197365137       -0.41644039280092
H           12.18815685973441       -7.65874582430133        1.67528171026596
H           12.16654989398085       -5.19159152665181        1.78373959402447
Ni          30.06264578632325        0.03388100812631       -0.01428342169387
C           33.45757054386219        0.05591811483463       -0.03772423575154
C           32.80214827841196        1.26436746927941       -0.14725301842127
C           33.47967342178848        2.52022493909336       -0.25474393675066
C           32.52389037066031        3.47830045358800       -0.24773943654351
C           31.26190305970930        2.80566413645193       -0.14630944497990
N           31.44257595075570        1.44574987037019       -0.09740206799345
C           30.04459091595914        3.46363254377761       -0.03288486899311
C           28.83477977649141        2.79310615250099        0.07806709598404
C           27.56831818235488        3.45512365656704        0.16190573396986
C           26.62026052853929        2.48796023380101        0.16158277454114
N           28.66253476169477        1.42733796664067        0.03505762703212
C           27.30848562597722        1.23973388843280        0.07180171543523
C           26.64748730135333        0.01212297860547       -0.02669611764445
C           27.32624657589722       -1.20655025099427       -0.11373600614102
C           26.65770726832412       -2.46175982649232       -0.24339363155874
C           27.61796120300110       -3.41692799575600       -0.22568713356728
C           28.87095260771487       -2.74115549330543       -0.07556181584037
C           30.08904148113004       -3.39677929524626        0.04166298312179
C           30.09922591612332       -4.87964633304595        0.06749624480006
C           30.75780845646812       -5.59912308135636       -0.93047720350333
C           30.76593942133606       -6.98564411898471       -0.90550888043712
C           30.12106027890910       -7.66930614299197        0.11622227656876
C           29.46477771908727       -6.96044971359850        1.11323116441143
C           29.45100399051168       -5.57390983435986        1.08972871833897
C           31.29925342419558       -2.72069287198142        0.12887426722388
C           32.56782415812160       -3.37115776248122        0.28093323412428
C           33.51214965749048       -2.40214524752619        0.24569616591903
C           32.81938304526243       -1.16018299937214        0.08828391602608
N           31.46226802346121       -1.36037887866757        0.04527476826252
N           28.68118914276047       -1.37757564641396       -0.04012974679198
C           30.03544340476654        4.94827966914883       -0.03334522604665
C           30.40631369098712        5.65618862831861       -1.17655035782633
C           30.39299017633160        7.04310101890177       -1.17569625377966
C           30.01466370280770        7.73691947223663       -0.03438598881336
C           29.64699624339588        7.03846517488994        1.10758174841241
C           29.65431531633161        5.65153940048384        1.10940896935668
H           34.54136028479911        0.06341154723191       -0.04063830539846
H           34.55048279818514        2.63376873590366       -0.31358093067653
H           32.64913317906167        4.54787639885756       -0.29369414161716
H           27.43204125729771        4.52347008465394        0.20001962410684
H           25.54848378044098        2.59476387205462        0.20648743917123
H           25.59025940261622       -2.58010019299096       -0.33659733047632
H           27.49916233992423       -4.48446319604697       -0.31305763323027
H           31.25090708408021       -5.06674391218181       -1.73622424234229
H           31.27746858547576       -7.53463375022100       -1.68833386126405
H           30.12978608169626       -8.75320520364284        0.13529305678927
H           28.96136302884103       -7.48982627300899        1.91459668194629
H           28.94834623479283       -5.02150092310523        1.87582505862509
H           32.70492998223723       -4.43329281308606        0.40270837447589
H           34.58352011477802       -2.49907325745867        0.32164582859829
H           30.69151771664859        5.11479420908309       -2.07169653928141
H           30.67811796476023        7.58431335716790       -2.07103169488139
H           30.00619343388829        8.82099420666512       -0.03496766605692
H           29.35303751553547        7.57605680038505        2.00226048418320
H           29.37603818070390        5.10652838146431        2.00453672266364
C           16.30922173616662       -0.00621028213428       -0.03629467281554
C           17.53339373225919       -0.00199607224965       -0.04053595175757
C           18.87647260096337        0.00092049107207       -0.04546680996547
C           20.10689498849616        0.00199117467753       -0.04860426119046
C           21.44520302678876        0.00043784938535       -0.05082026710227
C           22.67557188597820       -0.00377831314109       -0.04602680631246
C           24.01866033876981        0.00220711853123       -0.04541619645097
C           25.24284862929249        0.00420866780906       -0.03774452398812

          :  Hamiltonian                  GFN1-xTB          :
         :: total energy            -206.289821582018 Eh    ::
         :: gradient norm              0.000705463823 Eh/a0 ::
         :: HOMO-LUMO gap              1.202095615372 eV    ::
         :: SCC energy              -209.775558517289 Eh    ::
         :: repulsion energy           3.591974876147 Eh    ::

    * Orbital Energies and Occupations

         #    Occupation            Energy/Eh            Energy/eV
      -------------------------------------------------------------
         1        2.0000           -0.7809007             -21.2494
       ...           ...                  ...                  ...
       181        2.0000           -0.4077615             -11.0958
       182        2.0000           -0.3986523             -10.8479
       183        2.0000           -0.3986475             -10.8477
       184        2.0000           -0.3982109             -10.8359
       185        2.0000           -0.3982048             -10.8357
       186        2.0000           -0.3974449             -10.8150
       187        2.0000           -0.3974381             -10.8148
       188        2.0000           -0.3963847             -10.7862
       189        2.0000           -0.3963786             -10.7860
       190        2.0000           -0.3963395             -10.7849
       191        2.0000           -0.3963290             -10.7847
       192        2.0000           -0.3933115             -10.7026
       193        2.0000           -0.3841991             -10.4546 (HOMO)
       194                         -0.3400229              -9.2525 (LUMO)
       195                         -0.3300189              -8.9803
       196                         -0.3298065              -8.9745
       197                         -0.3297883              -8.9740
       198                         -0.3286139              -8.9420
       199                         -0.3285899              -8.9414
       200                         -0.3027341              -8.2378
       201                         -0.3003498              -8.1729
       202                         -0.2937447              -7.9932
       203                         -0.2757183              -7.5027
       204                         -0.2656907              -7.2298
       ...                                ...                  ...
       414                          1.6063919              43.7121
      -------------------------------------------------------------
                  HL-Gap            0.0441762 Eh            1.2021 eV

Wiberg/Mayer (AO) data.
largest (>0.10) Wiberg bond orders for each atom

     #   Z sym  total        # sym  WBO       # sym  WBO       # sym  WBO
 ---------------------------------------------------------------------------
     1  28 Ni   3.011 --     7 N    0.664    30 N    0.664    31 N    0.662
                            12 N    0.661
     2   6 C    3.934 --     3 C    1.364    29 C    1.363    38 H    0.970
     3   6 C    3.924 --     2 C    1.364     7 N    1.214     4 C    1.175
     4   6 C    3.960 --     5 C    1.649     3 C    1.175    39 H    0.975
     5   6 C    3.963 --     4 C    1.649     6 C    1.177    40 H    0.973
     6   6 C    3.919 --     8 C    1.324     7 N    1.221     5 C    1.177
     7   7 N    3.402 --     6 C    1.221     3 C    1.214     1 Ni   0.664
     8   6 C    3.939 --     9 C    1.332     6 C    1.324    32 C    1.020
     9   6 C    3.915 --     8 C    1.332    12 N    1.204    10 C    1.183
    10   6 C    3.959 --    11 C    1.637     9 C    1.183    41 H    0.973
    11   6 C    3.961 --    10 C    1.637    13 C    1.191    42 H    0.973
    12   7 N    3.406 --    13 C    1.240     9 C    1.204     1 Ni   0.661
    13   6 C    3.903 --    14 C    1.262    12 N    1.240    11 C    1.191
    14   6 C    3.944 --    15 C    1.262    13 C    1.262   113 C    1.186
    15   6 C    3.903 --    14 C    1.262    31 N    1.240    16 C    1.192
    16   6 C    3.961 --    17 C    1.635    15 C    1.192    43 H    0.973
    17   6 C    3.959 --    16 C    1.635    18 C    1.184    44 H    0.973
    18   6 C    3.915 --    19 C    1.329    31 N    1.205    17 C    1.184
    19   6 C    3.939 --    18 C    1.329    26 C    1.322    20 C    1.026
    20   6 C    3.989 --    25 C    1.395    21 C    1.395    19 C    1.026
                            23 C    0.108
    21   6 C    3.988 --    22 C    1.447    20 C    1.395    45 H    0.973
                            24 C    0.110
    22   6 C    3.995 --    21 C    1.447    23 C    1.438    46 H    0.973
                            25 C    0.110
    23   6 C    3.990 --    24 C    1.438    22 C    1.438    47 H    0.974
                            20 C    0.108
    24   6 C    3.995 --    25 C    1.447    23 C    1.438    48 H    0.973
                            21 C    0.110
    25   6 C    3.988 --    24 C    1.447    20 C    1.395    49 H    0.973
                            22 C    0.110
    26   6 C    3.920 --    19 C    1.322    30 N    1.221    27 C    1.177
    27   6 C    3.963 --    28 C    1.648    26 C    1.177    50 H    0.973
    28   6 C    3.959 --    27 C    1.648    29 C    1.176    51 H    0.975
    29   6 C    3.924 --     2 C    1.363    30 N    1.214    28 C    1.176
    30   7 N    3.402 --    26 C    1.221    29 C    1.214     1 Ni   0.664
    31   7 N    3.406 --    15 C    1.240    18 C    1.205     1 Ni   0.662
    32   6 C    3.988 --    33 C    1.398    37 C    1.398     8 C    1.020
                            35 C    0.109
    33   6 C    3.989 --    34 C    1.446    32 C    1.398    52 H    0.973
                            36 C    0.110
    34   6 C    3.995 --    33 C    1.446    35 C    1.438    53 H    0.973
                            37 C    0.110
    35   6 C    3.991 --    34 C    1.438    36 C    1.438    54 H    0.974
                            32 C    0.109
    36   6 C    3.995 --    37 C    1.446    35 C    1.438    55 H    0.973
                            33 C    0.110
    37   6 C    3.989 --    36 C    1.446    32 C    1.398    56 H    0.973
                            34 C    0.110
    38   1 H    1.000 --     2 C    0.970
    39   1 H    0.998 --     4 C    0.975
    40   1 H    1.005 --     5 C    0.973
    41   1 H    1.005 --    10 C    0.973
    42   1 H    1.002 --    11 C    0.973
    43   1 H    1.002 --    16 C    0.973
    44   1 H    1.005 --    17 C    0.973
    45   1 H    1.005 --    21 C    0.973
    46   1 H    1.003 --    22 C    0.973
    47   1 H    1.003 --    23 C    0.974
    48   1 H    1.003 --    24 C    0.973
    49   1 H    1.005 --    25 C    0.973
    50   1 H    1.005 --    27 C    0.973
    51   1 H    0.998 --    28 C    0.975
    52   1 H    1.004 --    33 C    0.973
    53   1 H    1.003 --    34 C    0.973
    54   1 H    1.003 --    35 C    0.974
    55   1 H    1.003 --    36 C    0.973
    56   1 H    1.004 --    37 C    0.973
    57  28 Ni   3.010 --    63 N    0.664    86 N    0.664    87 N    0.661
                            68 N    0.661
    58   6 C    3.934 --    59 C    1.364    85 C    1.363    94 H    0.970
    59   6 C    3.924 --    58 C    1.364    63 N    1.214    60 C    1.175
    60   6 C    3.960 --    61 C    1.649    59 C    1.175    95 H    0.975
    61   6 C    3.963 --    60 C    1.649    62 C    1.177    96 H    0.973
    62   6 C    3.919 --    64 C    1.324    63 N    1.221    61 C    1.177
    63   7 N    3.402 --    62 C    1.221    59 C    1.214    57 Ni   0.664
    64   6 C    3.939 --    65 C    1.332    62 C    1.324    88 C    1.020
    65   6 C    3.915 --    64 C    1.332    68 N    1.204    66 C    1.183
    66   6 C    3.959 --    67 C    1.637    65 C    1.183    97 H    0.973
    67   6 C    3.961 --    66 C    1.637    69 C    1.191    98 H    0.973
    68   7 N    3.407 --    69 C    1.240    65 C    1.204    57 Ni   0.661
    69   6 C    3.903 --    70 C    1.262    68 N    1.240    67 C    1.191
    70   6 C    3.944 --    71 C    1.262    69 C    1.262   120 C    1.186
    71   6 C    3.903 --    70 C    1.262    87 N    1.240    72 C    1.192
    72   6 C    3.961 --    73 C    1.635    71 C    1.192    99 H    0.973
    73   6 C    3.959 --    72 C    1.635    74 C    1.184   100 H    0.973
    74   6 C    3.915 --    75 C    1.329    87 N    1.205    73 C    1.184
    75   6 C    3.939 --    74 C    1.329    82 C    1.322    76 C    1.026
    76   6 C    3.988 --    81 C    1.395    77 C    1.395    75 C    1.026
                            79 C    0.108
    77   6 C    3.988 --    78 C    1.447    76 C    1.395   101 H    0.973
                            80 C    0.110
    78   6 C    3.995 --    77 C    1.447    79 C    1.438   102 H    0.973
                            81 C    0.110
    79   6 C    3.990 --    80 C    1.438    78 C    1.438   103 H    0.974
                            76 C    0.108
    80   6 C    3.995 --    81 C    1.447    79 C    1.438   104 H    0.973
                            77 C    0.110
    81   6 C    3.988 --    80 C    1.447    76 C    1.395   105 H    0.973
                            78 C    0.110
    82   6 C    3.920 --    75 C    1.322    86 N    1.221    83 C    1.177
    83   6 C    3.963 --    84 C    1.648    82 C    1.177   106 H    0.973
    84   6 C    3.959 --    83 C    1.648    85 C    1.176   107 H    0.975
    85   6 C    3.924 --    58 C    1.363    86 N    1.214    84 C    1.176
    86   7 N    3.402 --    82 C    1.221    85 C    1.214    57 Ni   0.664
    87   7 N    3.406 --    71 C    1.240    74 C    1.205    57 Ni   0.661
    88   6 C    3.988 --    89 C    1.398    93 C    1.398    64 C    1.020
                            91 C    0.109
    89   6 C    3.989 --    90 C    1.446    88 C    1.398   108 H    0.973
                            92 C    0.110
    90   6 C    3.995 --    89 C    1.446    91 C    1.438   109 H    0.973
                            93 C    0.110
    91   6 C    3.991 --    90 C    1.438    92 C    1.438   110 H    0.974
                            88 C    0.109
    92   6 C    3.995 --    93 C    1.446    91 C    1.438   111 H    0.973
                            89 C    0.110
    93   6 C    3.989 --    92 C    1.446    88 C    1.398   112 H    0.973
                            90 C    0.110
    94   1 H    1.000 --    58 C    0.970
    95   1 H    0.998 --    60 C    0.975
    96   1 H    1.005 --    61 C    0.973
    97   1 H    1.005 --    66 C    0.973
    98   1 H    1.002 --    67 C    0.973
    99   1 H    1.002 --    72 C    0.973
   100   1 H    1.005 --    73 C    0.973
   101   1 H    1.005 --    77 C    0.973
   102   1 H    1.003 --    78 C    0.973
   103   1 H    1.003 --    79 C    0.974
   104   1 H    1.003 --    80 C    0.973
   105   1 H    1.005 --    81 C    0.973
   106   1 H    1.005 --    83 C    0.973
   107   1 H    0.998 --    84 C    0.975
   108   1 H    1.004 --    89 C    0.973
   109   1 H    1.003 --    90 C    0.973
   110   1 H    1.003 --    91 C    0.974
   111   1 H    1.003 --    92 C    0.973
   112   1 H    1.004 --    93 C    0.973
   113   6 C    3.878 --   114 C    2.445    14 C    1.186   116 C    0.187
   114   6 C    3.938 --   113 C    2.445   115 C    1.341
   115   6 C    3.894 --   116 C    2.340   114 C    1.341   118 C    0.183
   116   6 C    3.928 --   115 C    2.340   117 C    1.367   113 C    0.187
   117   6 C    3.928 --   118 C    2.340   116 C    1.367   120 C    0.187
   118   6 C    3.894 --   117 C    2.340   119 C    1.341   115 C    0.183
   119   6 C    3.938 --   120 C    2.445   118 C    1.341
   120   6 C    3.878 --   119 C    2.445    70 C    1.186   117 C    0.187
 ---------------------------------------------------------------------------

           -------------------------------------------------
          | TOTAL ENERGY             -206.289821582018 Eh   |
          | GRADIENT NORM               0.000705463823 Eh/α |
          | HOMO-LUMO GAP               1.202095615372 eV   |
           -------------------------------------------------

 * finished run on 2022/07/30 at 05:55:09.331
