   * xtb version 6.5.1 (b24c23e) compiled by 'conda@728c89f4b128' on 2022-07-12
          program call               : xtb Zn_DHP_C6_2.xyz --gfn 1 --opt -T 48

   ID    Z sym.   atoms
    1   30 Zn     1, 59
    2    6 C      2-6, 8-11, 13-17, 19-24, 26-29, 31-36, 60-64, 66-69, 71-75,
                  77-82, 84-87, 89-94, 117-122
    3    7 N      7, 12, 18, 25, 30, 37, 65, 70, 76, 83, 88, 95
    4    1 H      38-58, 96-116
########################################################################
[WARNING] Please study the warnings concerning your input carefully
-1- prog_main_parseArguments: Unknown option '-T' provided
########################################################################

          :  Hamiltonian                  GFN1-xTB          :
 * total energy  :  -199.4365312 Eh     change       -0.4414744E-09 Eh
 * total energy  :  -201.3690874 Eh     change       -0.1932556E+01 Eh
 * total energy  :  -201.5820606 Eh     change       -0.2129732E+00 Eh
 * total energy  :  -201.6665573 Eh     change       -0.8449669E-01 Eh
 * total energy  :  -201.7151819 Eh     change       -0.4862463E-01 Eh
 * total energy  :  -201.7377248 Eh     change       -0.2254291E-01 Eh
 * total energy  :  -201.7541513 Eh     change       -0.1642651E-01 Eh
 * total energy  :  -201.7665399 Eh     change       -0.1238863E-01 Eh
 * total energy  :  -201.7759244 Eh     change       -0.9384411E-02 Eh
 * total energy  :  -201.7831979 Eh     change       -0.7273532E-02 Eh
 * total energy  :  -201.8115385 Eh     change       -0.4760971E-04 Eh
 * total energy  :  -201.8115760 Eh     change       -0.3741510E-04 Eh
 * total energy  :  -201.8116108 Eh     change       -0.3483017E-04 Eh
 * total energy  :  -201.8116279 Eh     change       -0.1707007E-04 Eh
 * total energy  :  -201.8116403 Eh     change       -0.1246440E-04 Eh
 * total energy  :  -201.8116470 Eh     change       -0.6714708E-05 Eh
 * total energy  :  -201.8116552 Eh     change       -0.8150822E-05 Eh
 * total energy  :  -201.8116661 Eh     change       -0.1094004E-04 Eh
 * total energy  :  -201.8116668 Eh     change       -0.6417671E-06 Eh
   *** GEOMETRY OPTIMIZATION CONVERGED AFTER 44 ITERATIONS ***

 final structure:
================
122
 xtb: 6.5.1 (b24c23e)
Zn          12.62778896546274       -0.03448849179113       -0.00670746859360
C            9.21979782182828       -0.05459328270479       -0.14945775413993
C            9.84815465404465       -1.29423191347467       -0.17589754449754
C            9.17215608671996       -2.55990727990904       -0.22788362631694
C           10.12966862653090       -3.52116668409763       -0.24077146909056
C           11.40389803132244       -2.85382535490151       -0.20821934741383
N           11.19683862911199       -1.50563326788898       -0.15797858499813
C           12.65373416596959       -3.48531749448515       -0.20900112807776
C           12.67077210663207       -4.96632094511900       -0.30935039822365
C           12.17787777467323       -5.60504238915351       -1.38084670528564
C           12.17079899285557       -7.10743525175978       -1.49442197793678
N           13.09669211403324       -7.71489700311453       -0.53452444011246
C           13.41372202861560       -7.06323275236912        0.63037416093496
C           13.25978605619414       -5.73580367716642        0.77790272688670
C           13.89170344846340       -2.83820809386804       -0.12843457477276
C           15.17136942923390       -3.48906943689189       -0.17428044058534
C           16.11782904803045       -2.51970771841278       -0.08631622925026
N           14.08561581908795       -1.48611638386177       -0.02339791742829
C           15.42727969985086       -1.26728617132598        0.00727958427353
C           16.05813524832191       -0.01120262845121        0.11807970573966
C           15.40456698299509        1.23570534984136        0.18989387615563
C           16.06971439099674        2.49669353598148        0.33759324172017
C           15.10647210206583        3.45316620128738        0.36000036711985
C           13.84225284302370        2.78586850474944        0.21763257077060
N           14.06116164727706        1.43681001299470        0.12515703723876
C           12.59380592549056        3.41753641080954        0.19992373702121
C           12.58302935306506        4.89880232079110        0.29809734218707
C           11.99521558566048        5.53263632312620        1.32362146322184
C           11.95504168033322        7.03492156231988        1.43185171388328
N           12.93303702704369        7.65810778419327        0.53562210002028
C           13.35637499528796        7.00560392400201       -0.59406981217066
C           13.24401142743079        5.67409298657332       -0.74255171877854
C           11.35609197991422        2.77083766711845        0.09554719768189
C           10.07554747259444        3.42281671634111        0.01995038399145
C            9.13440949257148        2.45018157763149       -0.07517430851578
C            9.82771187709993        1.19273605022238       -0.06955033323141
N           11.17042568402105        1.42053062648906        0.02773844822579
H            8.13505952545082       -0.06176120650342       -0.19624284940504
H            8.10070105344164       -2.68596373105000       -0.24328325589488
H            9.98942504555866       -4.59015541338652       -0.25899548513652
H           11.74243457621278       -5.06774807683871       -2.21534260568055
H           12.48065572309323       -7.41237720995890       -2.50295508262289
H           11.14801894637102       -7.49810471194603       -1.33499970025593
H           13.01539710918860       -8.71964410331157       -0.47284734583180
H           13.87699455922005       -7.68688460201157        1.38835353854779
H           13.56287867805547       -5.23063489339103        1.68406603832662
H           15.32456942503940       -4.55205122789978       -0.26938612765579
H           17.19008791258207       -2.63517147268901       -0.08945876854822
H           17.13742079545210        2.62527551658561        0.41924380003681
H           15.23723727908224        4.51775244199119        0.46981990798106
H           11.50137217603163        4.99080481788320        2.12190544023260
H           12.18965971351004        7.34673828921685        2.45865065567477
H           10.93879435851957        7.40716095554159        1.20221596081052
H           12.83265562011435        8.66003792933795        0.45880799852696
H           13.86414652426842        7.63457825416593       -1.31842285467550
H           13.62954928701926        5.17021679395684       -1.61755545379406
H            9.92127284457904        4.49000301409121        0.02645520968894
H            8.06412029331831        2.56334921159402       -0.15155731758842
Zn          28.66232183815858        0.03457702652535        0.00180363940823
C           32.07033540481676        0.08538633512211       -0.13410705245029
C           31.44195388828331        1.30176836679821        0.10622353998293
C           32.11778411401638        2.54930020383402        0.32653350695869
C           31.16015651354039        3.49075433478354        0.52051797780597
C           29.88602292655847        2.83167214556587        0.40983145898455
N           30.09325650353658        1.50410956733771        0.16972237843023
C           28.63609330037474        3.44827138117591        0.54510748096523
C           28.61889314496824        4.91638807057365        0.76442315090333
C           29.11108438151129        5.76961701174592       -0.14594968410054
C           29.11822373652270        7.26150452519528        0.06453128252422
N           28.19304745553086        7.64939269827302        1.13283495373908
C           27.87685446397520        6.76357252082892        2.13158345553194
C           28.03075089567142        5.43531041508072        1.99157878424972
C           27.39825921118868        2.79864873336193        0.48538246857388
C           26.11857411264302        3.44401826120108        0.58097881507560
C           25.17216659726013        2.47831297458342        0.45874674123006
N           27.20446195268278        1.45554443153218        0.29763787193251
C           25.86276349221069        1.23507095648998        0.28126071012928
C           25.23212018217092       -0.01561958824615        0.12021775351949
C           25.88587025728657       -1.24876979021695       -0.07764869312589
C           25.22076821537410       -2.51212960811139       -0.20403834471711
C           26.18405956234635       -3.45106857845392       -0.38743398813940
C           27.44821000655736       -2.76862820807122       -0.38390375428783
N           27.22919608256354       -1.43115046591836       -0.18470329068367
C           28.69675614760640       -3.38146660606331       -0.53728985349225
C           28.70764960226592       -4.84918964961562       -0.75991564908411
C           29.29614775144871       -5.68890875864515        0.10466475919751
C           29.33615774005823       -7.17928607699574       -0.11305744425564
N           28.35745765009507       -7.59502349392761       -1.12170894481702
C           27.93330161045490       -6.71461996525703       -2.08408844495007
C           28.04575472620913       -5.38237551663277       -1.94253305033564
C           29.93432444476068       -2.72710786410465       -0.50083538708335
C           31.21492535264443       -3.34736848123632       -0.71521217121039
C           32.15590973811781       -2.37682373408691       -0.59951310543638
C           31.46245777503674       -1.15007227758590       -0.32366697132937
N           30.11982567393620       -1.39372504185637       -0.27704626000728
H           33.15505636162460        0.10245149114181       -0.17865420935243
H           33.18920867327198        2.67604410641823        0.33794350252507
H           31.30036235868150        4.53881707077520        0.73182160103862
H           29.54587738488382        5.42326342962493       -1.07636355309228
H           28.80767464323849        7.77514553839950       -0.85518010208518
H           30.14114747311004        7.60909067480660        0.30312648003607
H           28.27431965070827        8.61770984064039        1.40794136032199
H           27.41424292299790        7.21059938447347        3.00580284648409
H           27.72832362363565        4.74796890970878        2.76894288283159
H           25.96532324351098        4.50257080444753        0.71675496743812
H           24.09990785001716        2.59173504135020        0.48084050657678
H           24.15308922388458       -2.65527088767267       -0.15148209030858
H           26.05333511526771       -4.51446744312250       -0.50822981102480
H           29.79067410325762       -5.33168142469856        1.00051965556944
H           29.10221923290328       -7.70480947972276        0.82272634204681
H           30.35218499022419       -7.49337320074578       -0.41815452821266
H           28.45784814062192       -8.55687296206447       -1.41259093218694
H           27.42485925101594       -7.17291478489302       -2.92645112194975
H           27.65958042955707       -4.70194658308498       -2.68821731803906
H           31.36925187762526       -4.39100730373927       -0.93820435853119
H           33.22618255640713       -2.47065791559552       -0.69885462098516
C           21.25930655957251       -0.02952540266806        0.18026245152402
C           20.03083059491269       -0.01772444929966        0.18404848310589
C           18.68664270458001       -0.00861876164530        0.17463985813688
C           17.46267984292193       -0.00416471576775        0.15591273119641
C           22.60352750973058       -0.02704267360814        0.17069792707798
C           23.82752256956714       -0.03016546750515        0.15349582982130

          :  Hamiltonian                  GFN1-xTB          :
         :: total energy            -201.811666775087 Eh    ::
         :: gradient norm              0.000927435034 Eh/a0 ::
         :: HOMO-LUMO gap              1.017006551701 eV    ::
         :: SCC energy              -205.019679237302 Eh    ::
         :: repulsion energy           3.312979143320 Eh    ::

    * Orbital Energies and Occupations

         #    Occupation            Energy/Eh            Energy/eV
      -------------------------------------------------------------
         1        2.0000           -0.7771828             -21.1482
       ...           ...                  ...                  ...
       173        2.0000           -0.4111902             -11.1891
       174        2.0000           -0.4111720             -11.1886
       175        2.0000           -0.4111061             -11.1868
       176        2.0000           -0.4057332             -11.0406
       177        2.0000           -0.4008304             -10.9072
       178        2.0000           -0.3838580             -10.4453
       179        2.0000           -0.3838574             -10.4453
       180        2.0000           -0.3784570             -10.2983
       181        2.0000           -0.3701544             -10.0724
       182        2.0000           -0.3674140              -9.9978
       183        2.0000           -0.3674083              -9.9977
       184        2.0000           -0.3662653              -9.9666
       185        2.0000           -0.3640789              -9.9071 (HOMO)
       186                         -0.3267046              -8.8901 (LUMO)
       187                         -0.3158562              -8.5949
       188                         -0.3158557              -8.5949
       189                         -0.3149968              -8.5715
       190                         -0.2877320              -7.8296
       191                         -0.2807476              -7.6395
       192                         -0.2724597              -7.4140
       193                         -0.2618292              -7.1247
       194                         -0.2616413              -7.1196
       195                         -0.2616277              -7.1193
       196                         -0.2600878              -7.0774
       ...                                ...                  ...
       404                          1.5911086              43.2963
      -------------------------------------------------------------
                  HL-Gap            0.0373743 Eh            1.0170 eV

Wiberg/Mayer (AO) data.
largest (>0.10) Wiberg bond orders for each atom

     #   Z sym  total        # sym  WBO       # sym  WBO       # sym  WBO
 ---------------------------------------------------------------------------
     1  30 Zn   2.000 --     7 N    0.460    37 N    0.459    18 N    0.458
                            25 N    0.457
     2   6 C    3.925 --    36 C    1.356     3 C    1.356    38 H    0.972
     3   6 C    3.924 --     2 C    1.356     7 N    1.234     4 C    1.172
     4   6 C    3.960 --     5 C    1.656     3 C    1.172    39 H    0.976
     5   6 C    3.964 --     4 C    1.656     6 C    1.174    40 H    0.974
     6   6 C    3.918 --     8 C    1.314     7 N    1.243     5 C    1.174
     7   7 N    3.293 --     6 C    1.243     3 C    1.234     1 Zn   0.460
     8   6 C    3.934 --    15 C    1.323     6 C    1.314     9 C    1.025
     9   6 C    3.988 --    10 C    1.769    14 C    1.097     8 C    1.025
    10   6 C    3.971 --     9 C    1.769    11 C    1.012    41 H    0.972
    11   6 C    3.961 --    10 C    1.012    42 H    0.976    43 H    0.966
                            12 N    0.949
    12   7 N    3.245 --    13 C    1.158    11 C    0.949    44 H    0.929
                            14 C    0.126
    13   6 C    3.958 --    14 C    1.695    12 N    1.158    45 H    0.971
    14   6 C    3.969 --    13 C    1.695     9 C    1.097    46 H    0.974
                            12 N    0.126
    15   6 C    3.912 --     8 C    1.323    18 N    1.224    16 C    1.181
    16   6 C    3.960 --    17 C    1.645    15 C    1.181    47 H    0.973
    17   6 C    3.962 --    16 C    1.645    19 C    1.187    48 H    0.974
    18   7 N    3.298 --    19 C    1.263    15 C    1.224     1 Zn   0.458
    19   6 C    3.902 --    18 N    1.263    20 C    1.252    17 C    1.187
    20   6 C    3.937 --    21 C    1.253    19 C    1.252   120 C    1.193
    21   6 C    3.902 --    25 N    1.263    20 C    1.253    22 C    1.187
    22   6 C    3.962 --    23 C    1.645    21 C    1.187    49 H    0.974
    23   6 C    3.960 --    22 C    1.645    24 C    1.180    50 H    0.973
    24   6 C    3.912 --    26 C    1.323    25 N    1.224    23 C    1.180
    25   7 N    3.298 --    21 C    1.263    24 C    1.224     1 Zn   0.457
    26   6 C    3.934 --    24 C    1.323    33 C    1.314    27 C    1.025
    27   6 C    3.988 --    28 C    1.769    32 C    1.097    26 C    1.025
    28   6 C    3.971 --    27 C    1.769    29 C    1.013    51 H    0.972
    29   6 C    3.961 --    28 C    1.013    52 H    0.976    53 H    0.967
                            30 N    0.949
    30   7 N    3.245 --    31 C    1.159    29 C    0.949    54 H    0.929
                            32 C    0.127
    31   6 C    3.958 --    32 C    1.694    30 N    1.159    55 H    0.971
    32   6 C    3.968 --    31 C    1.694    27 C    1.097    56 H    0.974
                            30 N    0.127
    33   6 C    3.918 --    26 C    1.314    37 N    1.243    34 C    1.174
    34   6 C    3.964 --    35 C    1.656    33 C    1.174    57 H    0.974
    35   6 C    3.960 --    34 C    1.656    36 C    1.172    58 H    0.976
    36   6 C    3.924 --     2 C    1.356    37 N    1.234    35 C    1.172
    37   7 N    3.293 --    33 C    1.243    36 C    1.234     1 Zn   0.459
    38   1 H    1.002 --     2 C    0.972
    39   1 H    0.999 --     4 C    0.976
    40   1 H    1.007 --     5 C    0.974
    41   1 H    1.004 --    10 C    0.972
    42   1 H    1.019 --    11 C    0.976
    43   1 H    1.008 --    11 C    0.966
    44   1 H    0.964 --    12 N    0.929
    45   1 H    1.002 --    13 C    0.971
    46   1 H    1.003 --    14 C    0.974
    47   1 H    1.006 --    16 C    0.973
    48   1 H    1.003 --    17 C    0.974
    49   1 H    1.002 --    22 C    0.974
    50   1 H    1.006 --    23 C    0.973
    51   1 H    1.003 --    28 C    0.972
    52   1 H    1.019 --    29 C    0.976
    53   1 H    1.008 --    29 C    0.967
    54   1 H    0.964 --    30 N    0.929
    55   1 H    1.002 --    31 C    0.971
    56   1 H    1.003 --    32 C    0.974
    57   1 H    1.007 --    34 C    0.974
    58   1 H    0.999 --    35 C    0.976
    59  30 Zn   2.000 --    65 N    0.460    95 N    0.459    76 N    0.458
                            83 N    0.457
    60   6 C    3.925 --    94 C    1.356    61 C    1.356    96 H    0.972
    61   6 C    3.924 --    60 C    1.356    65 N    1.234    62 C    1.172
    62   6 C    3.960 --    63 C    1.656    61 C    1.172    97 H    0.976
    63   6 C    3.964 --    62 C    1.656    64 C    1.174    98 H    0.974
    64   6 C    3.918 --    66 C    1.314    65 N    1.243    63 C    1.174
    65   7 N    3.293 --    64 C    1.243    61 C    1.234    59 Zn   0.460
    66   6 C    3.934 --    73 C    1.323    64 C    1.314    67 C    1.025
    67   6 C    3.988 --    68 C    1.769    72 C    1.097    66 C    1.025
    68   6 C    3.971 --    67 C    1.769    69 C    1.012    99 H    0.972
    69   6 C    3.961 --    68 C    1.012   100 H    0.976   101 H    0.966
                            70 N    0.949
    70   7 N    3.245 --    71 C    1.158    69 C    0.949   102 H    0.929
                            72 C    0.126
    71   6 C    3.958 --    72 C    1.695    70 N    1.158   103 H    0.971
    72   6 C    3.969 --    71 C    1.695    67 C    1.097   104 H    0.974
                            70 N    0.126
    73   6 C    3.912 --    66 C    1.323    76 N    1.224    74 C    1.181
    74   6 C    3.960 --    75 C    1.645    73 C    1.181   105 H    0.973
    75   6 C    3.962 --    74 C    1.645    77 C    1.187   106 H    0.974
    76   7 N    3.298 --    77 C    1.263    73 C    1.224    59 Zn   0.458
    77   6 C    3.902 --    76 N    1.263    78 C    1.252    75 C    1.187
    78   6 C    3.937 --    79 C    1.253    77 C    1.252   122 C    1.193
    79   6 C    3.902 --    83 N    1.263    78 C    1.253    80 C    1.187
    80   6 C    3.962 --    81 C    1.645    79 C    1.187   107 H    0.974
    81   6 C    3.960 --    80 C    1.645    82 C    1.180   108 H    0.973
    82   6 C    3.912 --    84 C    1.323    83 N    1.224    81 C    1.180
    83   7 N    3.298 --    79 C    1.263    82 C    1.224    59 Zn   0.457
    84   6 C    3.934 --    82 C    1.323    91 C    1.314    85 C    1.025
    85   6 C    3.988 --    86 C    1.769    90 C    1.097    84 C    1.025
    86   6 C    3.971 --    85 C    1.769    87 C    1.013   109 H    0.972
    87   6 C    3.961 --    86 C    1.013   110 H    0.976   111 H    0.967
                            88 N    0.949
    88   7 N    3.245 --    89 C    1.159    87 C    0.949   112 H    0.929
                            90 C    0.127
    89   6 C    3.958 --    90 C    1.694    88 N    1.159   113 H    0.971
    90   6 C    3.968 --    89 C    1.694    85 C    1.097   114 H    0.974
                            88 N    0.127
    91   6 C    3.918 --    84 C    1.314    95 N    1.243    92 C    1.174
    92   6 C    3.964 --    93 C    1.656    91 C    1.174   115 H    0.974
    93   6 C    3.960 --    92 C    1.656    94 C    1.172   116 H    0.976
    94   6 C    3.924 --    60 C    1.356    95 N    1.234    93 C    1.172
    95   7 N    3.293 --    91 C    1.243    94 C    1.234    59 Zn   0.459
    96   1 H    1.002 --    60 C    0.972
    97   1 H    0.999 --    62 C    0.976
    98   1 H    1.007 --    63 C    0.974
    99   1 H    1.004 --    68 C    0.972
   100   1 H    1.019 --    69 C    0.976
   101   1 H    1.008 --    69 C    0.966
   102   1 H    0.964 --    70 N    0.929
   103   1 H    1.002 --    71 C    0.971
   104   1 H    1.003 --    72 C    0.974
   105   1 H    1.006 --    74 C    0.973
   106   1 H    1.003 --    75 C    0.974
   107   1 H    1.002 --    80 C    0.974
   108   1 H    1.006 --    81 C    0.973
   109   1 H    1.003 --    86 C    0.972
   110   1 H    1.019 --    87 C    0.976
   111   1 H    1.008 --    87 C    0.967
   112   1 H    0.964 --    88 N    0.929
   113   1 H    1.002 --    89 C    0.971
   114   1 H    1.003 --    90 C    0.974
   115   1 H    1.007 --    92 C    0.974
   116   1 H    0.999 --    93 C    0.976
   117   6 C    3.925 --   118 C    2.367   121 C    1.336   120 C    0.190
   118   6 C    3.925 --   117 C    2.367   119 C    1.336   122 C    0.190
   119   6 C    3.933 --   120 C    2.447   118 C    1.336
   120   6 C    3.890 --   119 C    2.447    20 C    1.193   117 C    0.190
   121   6 C    3.933 --   122 C    2.447   117 C    1.336
   122   6 C    3.890 --   121 C    2.447    78 C    1.193   118 C    0.190
 ---------------------------------------------------------------------------

           -------------------------------------------------
          | TOTAL ENERGY             -201.811666775087 Eh   |
          | GRADIENT NORM               0.000927435034 Eh/α |
          | HOMO-LUMO GAP               1.017006551701 eV   |
           -------------------------------------------------

 * finished run on 2022/07/30 at 08:12:45.139
