   * xtb version 6.5.1 (b24c23e) compiled by 'conda@728c89f4b128' on 2022-07-12
          program call               : xtb Zn_PhNO2_C8_2.xyz --gfn 1 --opt -T 48

   ID    Z sym.   atoms
    1   30 Zn     1, 61
    2    6 C      2-6, 8-12, 16-20, 22-27, 29-33, 37-42, 62-66, 68-72, 76-80,
                  82-87, 89-93, 97-102, 121-128
    3    7 N      7, 13, 21, 28, 34, 43, 67, 73, 81, 88, 94, 103
    4    8 O      14, 15, 35, 36, 74, 75, 95, 96
    5    1 H      44-60, 104-120
########################################################################
[WARNING] Please study the warnings concerning your input carefully
-1- prog_main_parseArguments: Unknown option '-T' provided
########################################################################

          :  Hamiltonian                  GFN1-xTB          :
 * total energy  :  -246.7818235 Eh     change        0.8100187E-11 Eh
 * total energy  :  -247.1566372 Eh     change       -0.3748137E+00 Eh
 * total energy  :  -247.2818072 Eh     change       -0.1251700E+00 Eh
 * total energy  :  -247.3124227 Eh     change       -0.3061546E-01 Eh
 * total energy  :  -247.3261435 Eh     change       -0.1372082E-01 Eh
 * total energy  :  -247.3326507 Eh     change       -0.6507188E-02 Eh
 * total energy  :  -247.3369070 Eh     change       -0.4256330E-02 Eh
 * total energy  :  -247.3390725 Eh     change       -0.2165441E-02 Eh
 * total energy  :  -247.3417315 Eh     change       -0.2659060E-02 Eh
 * total energy  :  -247.3433299 Eh     change       -0.1598374E-02 Eh
 * total energy  :  -247.3499319 Eh     change       -0.2670472E-04 Eh
 * total energy  :  -247.3499595 Eh     change       -0.2751467E-04 Eh
 * total energy  :  -247.3499874 Eh     change       -0.2792614E-04 Eh
 * total energy  :  -247.3499900 Eh     change       -0.2643313E-05 Eh
 * total energy  :  -247.3500068 Eh     change       -0.1672121E-04 Eh
 * total energy  :  -247.3500188 Eh     change       -0.1204485E-04 Eh
 * total energy  :  -247.3500229 Eh     change       -0.4076854E-05 Eh
 * total energy  :  -247.3500300 Eh     change       -0.7135333E-05 Eh
 * total energy  :  -247.3500335 Eh     change       -0.3489256E-05 Eh
   *** GEOMETRY OPTIMIZATION CONVERGED AFTER 41 ITERATIONS ***

 final structure:
================
128
 xtb: 6.5.1 (b24c23e)
Zn          13.36657793362165       -0.01854106060633       -0.01490948378803
C            9.96076433445236       -0.04273906987919       -0.15270439072026
C           10.59531377672682       -1.26594359796687       -0.33018749413429
C            9.92557439248985       -2.52054149806262       -0.53189327561566
C           10.88749026480916       -3.46719945894159       -0.66346380966803
C           12.15830753245583       -2.79932814159399       -0.55534133472141
N           11.94563962918753       -1.46945965891851       -0.34293887909811
C           13.41301708009109       -3.41844300913187       -0.62476498102543
C           13.43443557391527       -4.87600503633483       -0.89018624269875
C           14.00347700465412       -5.75584437935215        0.03628280031738
C           14.02862823639242       -7.11654204658725       -0.20815925220921
C           13.48356703650449       -7.60396930072095       -1.39294183369029
N           13.51165069704989       -9.03054896592909       -1.65719214513106
O           13.02131691544130       -9.41740555345560       -2.68742878282097
O           14.02245778396485       -9.74173680287525       -0.82967403623157
C           12.91276636894862       -6.74576889765838       -2.32887086556558
C           12.88866599761330       -5.38727859922681       -2.07207512337066
C           14.64994546118357       -2.78097822949342       -0.46895178410563
C           15.93366014558377       -3.41369019835692       -0.60067277098219
C           16.87369038166142       -2.45677729127273       -0.39448835904828
N           14.83463766698783       -1.45145701092159       -0.20221463366147
C           16.17541863737561       -1.22994597457593       -0.14575735415451
C           16.79993742694676        0.00628297565406        0.11622850021108
C           16.14031651628623        1.23278372388583        0.33218474060786
C           16.79956832250773        2.46998385266002        0.63034817955673
C           15.83238950263654        3.41288937777657        0.76366411876411
C           14.57176133521254        2.76094827013805        0.53699636549364
N           14.79578876128444        1.43409004521910        0.28759804546446
C           13.31706347898508        3.37957711609800        0.59642738189587
C           13.29377998729460        4.83694408404197        0.86427616517010
C           12.65450282958493        5.33415219600257        2.00451557530617
C           12.63147280521199        6.69224270317198        2.26318518943342
C           13.24862102378987        7.56412087649716        1.37031956145542
N           13.22503804136237        8.99073364909984        1.63528856891409
O           12.66326173499067        9.36396258617182        2.63352039190727
O           13.76943562906429        9.71514541608849        0.84164035121735
C           13.88757898481912        7.09060701450899        0.22764872899021
C           13.90944829226475        5.73002296898284       -0.01837367777472
C           12.08068554310623        2.74286337656381        0.42800312078897
C           10.79601011409448        3.39266287907580        0.43657220231689
C            9.86095001868185        2.43338243173097        0.22623657274782
C           10.56204005561657        1.18882922558997        0.07581899508940
N           11.90406938960205        1.41081700293127        0.19655974152746
H            8.87615467746139       -0.05020648982010       -0.19649850528002
H            8.85506911995893       -2.64961850635150       -0.55856861401659
H           10.75258513732753       -4.52718411457060       -0.80749029361807
H           14.41330650460002       -5.36583647593967        0.96070122656309
H           14.46276018864658       -7.80538844003250        0.50649573574689
H           12.49905340533440       -7.14922593757016       -3.24524650031623
H           12.46013891706670       -4.70805116801671       -2.79986808766549
H           16.09526684774298       -4.45321472468045       -0.83590139157043
H           17.94643291733503       -2.56335408218402       -0.41516848890640
H           17.86614540233166        2.59201285603724        0.73147554678674
H           15.95998499331693        4.45523685972277        1.00710754958321
H           12.18878890638652        4.64435660543882        2.69871466081445
H           12.14468157937486        7.08517908259113        3.14764844136763
H           14.35626118989322        7.79004993573981       -0.45415087566305
H           14.39261340034335        5.35060493518757       -0.91121930183184
H           10.63514334344876        4.45004936545227        0.57283046082221
H            8.79001904880201        2.54780863464793        0.16810019121869
Zn          31.97399434162786        0.01968188196591       -0.00729815299437
C           35.37974398280397        0.09485932792797       -0.12649785225742
C           34.74486444669291        1.29505437726405        0.16812571743872
C           35.41428529425079        2.53382109540902        0.45196845654233
C           34.45213768916887        3.46047742525326        0.68504943433752
C           33.18146258854976        2.80057275438461        0.53447865273078
N           33.39447471803067        1.48818838831784        0.23255904922329
C           31.92652963175959        3.40024230294564        0.70198908629302
C           31.90475017715820        4.85100011179265        1.00220647744912
C           31.33397777730860        5.31953968262871        2.19006597934896
C           31.30860312719938        6.67265064704529        2.47347825664076
C           31.85548282665995        7.56858725861045        1.55878770535561
N           31.82789154934494        8.99009079914045        1.84890149977086
O           32.32129068303849        9.73462592396608        1.04037518802560
O           31.31309469358289        9.33962187484359        2.88055095205075
C           32.42796364465976        7.12366166190994        0.37024632074807
C           32.45204802633567        5.76799877307050        0.09899765976183
C           30.68978804308977        2.75044497974098        0.60735072682775
C           29.40583795091552        3.38600465187987        0.72213757404222
C           28.46611151279799        2.42125491472345        0.55483672027544
N           30.50550242229338        1.41776563753869        0.35651796578422
C           29.16476741408931        1.19078952340884        0.32582057064042
C           28.54070207564985       -0.05374397659371        0.10548693727223
C           29.20077368877847       -1.27156609441914       -0.15389714093407
C           28.54191281486843       -2.53061858918960       -0.34079739279776
C           29.50933095434284       -3.45438008556710       -0.57105582636092
C           30.76969940479090       -2.76448706676342       -0.53745638479291
N           30.54529375455563       -1.44096105225237       -0.27121045304334
C           32.02451609608021       -3.35971903756122       -0.71497905574876
C           32.04830053926302       -4.81115284213700       -1.01328246552955
C           32.68783071488732       -5.69946379898658       -0.14268953503728
C           32.71139435153188       -7.05542024760726       -0.41225978060312
C           32.09455888919940       -7.52900061255732       -1.56700763335948
N           32.11833103281784       -8.95088393483191       -1.85619809186464
O           32.68184399325197       -9.67080760129948       -1.07175784921624
O           31.57361861808988       -9.32508787868407       -2.86346607869391
C           31.45548033853665       -6.66171005465938       -2.44882755834010
C           31.43298598102845       -5.30818849405903       -2.16654191074301
C           33.26064049647276       -2.70579125466011       -0.63291911173173
C           34.54540634271331       -3.31085581073776       -0.86940191411770
C           35.48019583155434       -2.34240737193106       -0.70480837828045
C           34.77880845168209       -1.13263226028038       -0.37684999567176
N           33.43688368973363       -1.38416057517626       -0.34769243586975
H           36.46434065665291        0.11854504231137       -0.16446365041114
H           36.48476281307635        2.66368459393976        0.47584448798323
H           34.58688498796726        4.49705864333485        0.94933816498690
H           30.92302871852174        4.61153575725862        2.90032717198507
H           30.87310661895554        7.04341481358182        3.39359024523066
H           32.84302806071119        7.84116938675669       -0.32732161542289
H           32.88184535026946        5.41111713167250       -0.82975676872431
H           29.24390597400683        4.43791566935584        0.89339298028945
H           27.39333222339460        2.52743830488923        0.57556753835158
H           27.47542452856263       -2.68211414874282       -0.29221982465525
H           29.38214164884042       -4.51205260484296       -0.73599125687683
H           33.15330878755462       -5.32019802034825        0.75958975007743
H           33.19833076730164       -7.75123227364190        0.26033939331393
H           30.98706537054672       -7.05454765600892       -3.34322518194918
H           30.94958954464789       -4.62174846395638       -2.85188027451574
H           34.70649678202003       -4.34205202864174       -1.13995559566219
H           36.55110525991545       -2.42628087002597       -0.80218176143984
C           18.20441757551354        0.01305490240409        0.15960668387074
C           19.42876253381047        0.00371122791977        0.18643813116878
C           20.77106091607473       -0.00986414672613        0.20505337163962
C           22.00151136464417       -0.03572530802142        0.21028553039887
C           23.33907987564455       -0.05458600528162        0.20588214842984
C           24.56957629488023       -0.07369773939144        0.19243956043208
C           25.91186354590581       -0.07920249456507        0.17036897977499
C           27.13622997562100       -0.07719439272550        0.14261331815778

          :  Hamiltonian                  GFN1-xTB          :
         :: total energy            -247.350033504044 Eh    ::
         :: gradient norm              0.000635993615 Eh/a0 ::
         :: HOMO-LUMO gap              1.133439778852 eV    ::
         :: SCC energy              -250.928608192387 Eh    ::
         :: repulsion energy           3.691225423519 Eh    ::

    * Orbital Energies and Occupations

         #    Occupation            Energy/Eh            Energy/eV
      -------------------------------------------------------------
         1        2.0000           -0.9206701             -25.0527
       ...           ...                  ...                  ...
       205        2.0000           -0.4439766             -12.0812
       206        2.0000           -0.4439748             -12.0812
       207        2.0000           -0.4437374             -12.0747
       208        2.0000           -0.4436619             -12.0727
       209        2.0000           -0.4432603             -12.0617
       210        2.0000           -0.4432580             -12.0617
       211        2.0000           -0.4428558             -12.0507
       212        2.0000           -0.4330176             -11.7830
       213        2.0000           -0.4232800             -11.5180
       214        2.0000           -0.4159630             -11.3189
       215        2.0000           -0.4159622             -11.3189
       216        2.0000           -0.4094243             -11.1410
       217        2.0000           -0.3998891             -10.8815 (HOMO)
       218                         -0.3582359              -9.7481 (LUMO)
       219                         -0.3557093              -9.6793
       220                         -0.3557003              -9.6791
       221                         -0.3480367              -9.4706
       222                         -0.3472901              -9.4502
       223                         -0.3472823              -9.4500
       224                         -0.3403431              -9.2612
       225                         -0.3403393              -9.2611
       226                         -0.3198284              -8.7030
       227                         -0.3159591              -8.5977
       228                         -0.3118468              -8.4858
       ...                                ...                  ...
       444                          1.5903605              43.2759
      -------------------------------------------------------------
                  HL-Gap            0.0416531 Eh            1.1334 eV

Wiberg/Mayer (AO) data.
largest (>0.10) Wiberg bond orders for each atom

     #   Z sym  total        # sym  WBO       # sym  WBO       # sym  WBO
 ---------------------------------------------------------------------------
     1  30 Zn   1.990 --    43 N    0.459     7 N    0.458    28 N    0.454
                            21 N    0.454
     2   6 C    3.929 --     3 C    1.358    42 C    1.358    44 H    0.971
     3   6 C    3.919 --     2 C    1.358     7 N    1.232     4 C    1.169
     4   6 C    3.960 --     5 C    1.661     3 C    1.169    45 H    0.975
     5   6 C    3.963 --     4 C    1.661     6 C    1.170    46 H    0.973
     6   6 C    3.919 --     8 C    1.311     7 N    1.248     5 C    1.170
     7   7 N    3.293 --     6 C    1.248     3 C    1.232     1 Zn   0.458
     8   6 C    3.930 --    18 C    1.318     6 C    1.311     9 C    1.036
     9   6 C    3.983 --    17 C    1.382    10 C    1.382     8 C    1.036
    10   6 C    3.986 --    11 C    1.465     9 C    1.382    47 H    0.971
                            16 C    0.101
    11   6 C    3.987 --    10 C    1.465    12 C    1.385    48 H    0.965
                            17 C    0.101
    12   6 C    3.939 --    16 C    1.385    11 C    1.385    13 N    0.923
    13   7 N    3.865 --    15 O    1.453    14 O    1.453    12 C    0.923
    14   8 O    1.827 --    13 N    1.453    15 O    0.251
    15   8 O    1.827 --    13 N    1.453    14 O    0.251
    16   6 C    3.987 --    17 C    1.465    12 C    1.385    49 H    0.965
                            10 C    0.101
    17   6 C    3.986 --    16 C    1.465     9 C    1.382    50 H    0.971
                            11 C    0.101
    18   6 C    3.912 --     8 C    1.318    21 N    1.229    19 C    1.177
    19   6 C    3.959 --    20 C    1.647    18 C    1.177    51 H    0.973
    20   6 C    3.961 --    19 C    1.647    22 C    1.185    52 H    0.973
    21   7 N    3.296 --    22 C    1.261    18 C    1.229     1 Zn   0.454
    22   6 C    3.898 --    21 N    1.261    23 C    1.254    20 C    1.185
    23   6 C    3.940 --    24 C    1.254    22 C    1.254   121 C    1.193
    24   6 C    3.899 --    28 N    1.261    23 C    1.254    25 C    1.185
    25   6 C    3.961 --    26 C    1.647    24 C    1.185    53 H    0.974
    26   6 C    3.959 --    25 C    1.647    27 C    1.177    54 H    0.973
    27   6 C    3.912 --    29 C    1.318    28 N    1.229    26 C    1.177
    28   7 N    3.296 --    24 C    1.261    27 C    1.229     1 Zn   0.454
    29   6 C    3.930 --    27 C    1.318    39 C    1.311    30 C    1.035
    30   6 C    3.983 --    38 C    1.382    31 C    1.382    29 C    1.035
    31   6 C    3.986 --    32 C    1.465    30 C    1.382    55 H    0.971
                            37 C    0.101
    32   6 C    3.987 --    31 C    1.465    33 C    1.385    56 H    0.965
                            38 C    0.101
    33   6 C    3.940 --    37 C    1.386    32 C    1.385    34 N    0.923
    34   7 N    3.865 --    36 O    1.453    35 O    1.453    33 C    0.923
    35   8 O    1.827 --    34 N    1.453    36 O    0.251
    36   8 O    1.827 --    34 N    1.453    35 O    0.251
    37   6 C    3.987 --    38 C    1.465    33 C    1.386    57 H    0.965
                            31 C    0.101
    38   6 C    3.986 --    37 C    1.465    30 C    1.382    58 H    0.971
                            32 C    0.101
    39   6 C    3.919 --    29 C    1.311    43 N    1.247    40 C    1.170
    40   6 C    3.963 --    41 C    1.661    39 C    1.170    59 H    0.973
    41   6 C    3.960 --    40 C    1.661    42 C    1.169    60 H    0.975
    42   6 C    3.919 --     2 C    1.358    43 N    1.232    41 C    1.169
    43   7 N    3.293 --    39 C    1.247    42 C    1.232     1 Zn   0.459
    44   1 H    1.001 --     2 C    0.971
    45   1 H    0.997 --     4 C    0.975
    46   1 H    1.003 --     5 C    0.973
    47   1 H    1.004 --    10 C    0.971
    48   1 H    1.006 --    11 C    0.965
    49   1 H    1.006 --    16 C    0.965
    50   1 H    1.004 --    17 C    0.971
    51   1 H    1.003 --    19 C    0.973
    52   1 H    1.002 --    20 C    0.973
    53   1 H    1.001 --    25 C    0.974
    54   1 H    1.003 --    26 C    0.973
    55   1 H    1.004 --    31 C    0.971
    56   1 H    1.006 --    32 C    0.965
    57   1 H    1.006 --    37 C    0.965
    58   1 H    1.004 --    38 C    0.971
    59   1 H    1.003 --    40 C    0.973
    60   1 H    0.997 --    41 C    0.975
    61  30 Zn   1.990 --   103 N    0.459    67 N    0.458    81 N    0.454
                            88 N    0.454
    62   6 C    3.929 --    63 C    1.359   102 C    1.358   104 H    0.971
    63   6 C    3.919 --    62 C    1.359    67 N    1.232    64 C    1.169
    64   6 C    3.960 --    65 C    1.661    63 C    1.169   105 H    0.975
    65   6 C    3.963 --    64 C    1.661    66 C    1.170   106 H    0.973
    66   6 C    3.919 --    68 C    1.311    67 N    1.248    65 C    1.170
    67   7 N    3.293 --    66 C    1.248    63 C    1.232    61 Zn   0.458
    68   6 C    3.930 --    78 C    1.318    66 C    1.311    69 C    1.036
    69   6 C    3.983 --    77 C    1.382    70 C    1.381    68 C    1.036
    70   6 C    3.986 --    71 C    1.465    69 C    1.381   107 H    0.971
                            76 C    0.101
    71   6 C    3.987 --    70 C    1.465    72 C    1.385   108 H    0.965
                            77 C    0.101
    72   6 C    3.939 --    76 C    1.385    71 C    1.385    73 N    0.923
    73   7 N    3.865 --    75 O    1.453    74 O    1.453    72 C    0.923
    74   8 O    1.826 --    73 N    1.453    75 O    0.251
    75   8 O    1.827 --    73 N    1.453    74 O    0.251
    76   6 C    3.987 --    77 C    1.465    72 C    1.385   109 H    0.965
                            70 C    0.101
    77   6 C    3.986 --    76 C    1.465    69 C    1.382   110 H    0.971
                            71 C    0.101
    78   6 C    3.912 --    68 C    1.318    81 N    1.229    79 C    1.177
    79   6 C    3.959 --    80 C    1.647    78 C    1.177   111 H    0.973
    80   6 C    3.961 --    79 C    1.647    82 C    1.185   112 H    0.973
    81   7 N    3.296 --    82 C    1.261    78 C    1.229    61 Zn   0.454
    82   6 C    3.898 --    81 N    1.261    83 C    1.254    80 C    1.185
    83   6 C    3.940 --    84 C    1.254    82 C    1.254   128 C    1.193
    84   6 C    3.899 --    88 N    1.261    83 C    1.254    85 C    1.185
    85   6 C    3.961 --    86 C    1.647    84 C    1.185   113 H    0.974
    86   6 C    3.959 --    85 C    1.647    87 C    1.177   114 H    0.973
    87   6 C    3.912 --    89 C    1.318    88 N    1.229    86 C    1.177
    88   7 N    3.296 --    84 C    1.261    87 C    1.229    61 Zn   0.454
    89   6 C    3.930 --    87 C    1.318    99 C    1.311    90 C    1.035
    90   6 C    3.983 --    98 C    1.382    91 C    1.382    89 C    1.035
    91   6 C    3.986 --    92 C    1.465    90 C    1.382   115 H    0.971
                            97 C    0.101
    92   6 C    3.987 --    91 C    1.465    93 C    1.385   116 H    0.965
                            98 C    0.101
    93   6 C    3.940 --    97 C    1.386    92 C    1.385    94 N    0.923
    94   7 N    3.865 --    96 O    1.453    95 O    1.453    93 C    0.923
    95   8 O    1.827 --    94 N    1.453    96 O    0.251
    96   8 O    1.827 --    94 N    1.453    95 O    0.251
    97   6 C    3.987 --    98 C    1.465    93 C    1.386   117 H    0.965
                            91 C    0.101
    98   6 C    3.986 --    97 C    1.465    90 C    1.382   118 H    0.971
                            92 C    0.101
    99   6 C    3.919 --    89 C    1.311   103 N    1.247   100 C    1.170
   100   6 C    3.963 --   101 C    1.661    99 C    1.170   119 H    0.973
   101   6 C    3.960 --   100 C    1.661   102 C    1.169   120 H    0.975
   102   6 C    3.919 --    62 C    1.358   103 N    1.232   101 C    1.169
   103   7 N    3.293 --    99 C    1.247   102 C    1.232    61 Zn   0.459
   104   1 H    1.001 --    62 C    0.971
   105   1 H    0.997 --    64 C    0.975
   106   1 H    1.003 --    65 C    0.973
   107   1 H    1.004 --    70 C    0.971
   108   1 H    1.006 --    71 C    0.965
   109   1 H    1.006 --    76 C    0.965
   110   1 H    1.004 --    77 C    0.971
   111   1 H    1.003 --    79 C    0.973
   112   1 H    1.002 --    80 C    0.973
   113   1 H    1.001 --    85 C    0.974
   114   1 H    1.003 --    86 C    0.973
   115   1 H    1.004 --    91 C    0.971
   116   1 H    1.006 --    92 C    0.965
   117   1 H    1.006 --    97 C    0.965
   118   1 H    1.004 --    98 C    0.971
   119   1 H    1.003 --   100 C    0.973
   120   1 H    0.997 --   101 C    0.975
   121   6 C    3.878 --   122 C    2.439    23 C    1.193   124 C    0.187
   122   6 C    3.934 --   121 C    2.439   123 C    1.345
   123   6 C    3.893 --   124 C    2.336   122 C    1.345   126 C    0.182
   124   6 C    3.925 --   123 C    2.336   125 C    1.369   121 C    0.187
   125   6 C    3.925 --   126 C    2.336   124 C    1.369   128 C    0.187
   126   6 C    3.893 --   125 C    2.336   127 C    1.345   123 C    0.182
   127   6 C    3.934 --   128 C    2.438   126 C    1.345
   128   6 C    3.878 --   127 C    2.438    83 C    1.193   125 C    0.187
 ---------------------------------------------------------------------------

           -------------------------------------------------
          | TOTAL ENERGY             -247.350033504044 Eh   |
          | GRADIENT NORM               0.000635993615 Eh/α |
          | HOMO-LUMO GAP               1.133439778852 eV   |
           -------------------------------------------------

 * finished run on 2022/07/30 at 10:21:37.744
