   * xtb version 6.5.1 (b24c23e) compiled by 'conda@728c89f4b128' on 2022-07-12
          program call               : xtb Cu_BSA_C4_2.xyz --gfn 1 --opt -T 48

   ID    Z sym.   atoms
    1   29 Cu     1, 65
    2    6 C      2-6, 8-12, 17-21, 23-28, 30-34, 39-44, 66-70, 72-76, 81-85,
                  87-92, 94-98, 103-108, 129-132
    3    7 N      7, 22, 29, 45, 71, 86, 93, 109
    4   16 S      13, 35, 77, 99
    5    8 O      14-16, 36-38, 78-80, 100-102
    6    1 H      46-64, 110-128
########################################################################
[WARNING] Please study the warnings concerning your input carefully
-1- prog_main_parseArguments: Unknown option '-T' provided
########################################################################

          :  Hamiltonian                  GFN1-xTB          :
 * total energy  :  -269.1906294 Eh     change        0.1419608E-08 Eh
 * total energy  :  -269.3572031 Eh     change       -0.1665738E+00 Eh
 * total energy  :  -269.4288423 Eh     change       -0.7163920E-01 Eh
 * total energy  :  -269.4571275 Eh     change       -0.2828520E-01 Eh
 * total energy  :  -269.4702495 Eh     change       -0.1312194E-01 Eh
 * total energy  :  -269.4782827 Eh     change       -0.8033217E-02 Eh
 * total energy  :  -269.4840718 Eh     change       -0.5789132E-02 Eh
 * total energy  :  -269.4888541 Eh     change       -0.4782312E-02 Eh
 * total energy  :  -269.4929463 Eh     change       -0.4092212E-02 Eh
 * total energy  :  -269.4954239 Eh     change       -0.2477603E-02 Eh
 * total energy  :  -269.5045848 Eh     change       -0.1498512E-04 Eh
 * total energy  :  -269.5045963 Eh     change       -0.1144857E-04 Eh
 * total energy  :  -269.5046051 Eh     change       -0.8850410E-05 Eh
 * total energy  :  -269.5046130 Eh     change       -0.7926394E-05 Eh
 * total energy  :  -269.5046218 Eh     change       -0.8787878E-05 Eh
 * total energy  :  -269.5046292 Eh     change       -0.7340302E-05 Eh
 * total energy  :  -269.5046370 Eh     change       -0.7798805E-05 Eh
 * total energy  :  -269.5046439 Eh     change       -0.6924570E-05 Eh
 * total energy  :  -269.5046474 Eh     change       -0.3468530E-05 Eh
   *** GEOMETRY OPTIMIZATION CONVERGED AFTER 58 ITERATIONS ***

 final structure:
================
132
 xtb: 6.5.1 (b24c23e)
Cu          17.00233691988339        0.02221245047136        0.05252777668477
C           13.59743282481514        0.11741410526167        0.09944657471288
C           14.22923703408683       -0.19973810812513        1.29238903397956
C           13.55064641793137       -0.52582586682982        2.51432557740440
C           14.50672182911684       -0.77445076901197        3.44284402156479
C           15.77937139537984       -0.58953226331223        2.79867216071813
N           15.57954980050640       -0.24959106145577        1.49219861598196
C           17.02385772454722       -0.75393668745047        3.41188166309450
C           17.03362179364773       -1.09497195635550        4.85563888963588
C           16.48855154679357       -0.21348455252207        5.79263912224068
C           16.49780726174946       -0.52659843996979        7.14188758864536
C           17.05213119635088       -1.73201902602897        7.54097431403347
S           17.07680537214701       -2.12969452786035        9.24803419694100
O           17.00835915522275       -0.94182654035814       10.04697556184714
O           15.64176697617293       -2.88672454619743        9.33574944414762
O           18.10278009928676       -3.08901324535122        9.53531259422529
C           17.60125685403522       -2.62619546541488        6.63629203054821
C           17.59071286060293       -2.30042167939874        5.29011102174397
C           18.25964427744895       -0.62305848097922        2.77433398144801
C           19.53592137754098       -0.72471883147474        3.42441987981483
C           20.48340602422029       -0.52609867747659        2.47343798870230
N           18.44995135762247       -0.35260950531327        1.44565735450616
C           19.79412691304741       -0.29530178599092        1.23937008050896
C           20.43131180641552       -0.05671818562660        0.00914667135858
C           19.77455171559454        0.20503203759360       -1.20594875807863
C           20.44212064571409        0.40037596996692       -2.45796521433762
C           19.48067102562488        0.63770532839876       -3.38580716410584
C           18.21807566577587        0.59769042040709       -2.70310294019549
N           18.42957345389990        0.32189923674051       -1.37869226115148
C           16.97424930326162        0.78984221434645       -3.30869537948438
C           16.96415390020384        1.12789830699283       -4.75321668448985
C           16.34635033548981        0.27760981726079       -5.67351388888905
C           16.33432694860488        0.59076079765511       -7.02286854731722
C           16.94388891198966        1.76307258805847       -7.43908518480335
S           16.92081291917517        2.17142562446422       -9.14446342762105
O           17.05587329671983        3.58610774782869       -9.33935511302124
O           18.32662477919930        1.48605630518682       -9.58199329254217
O           15.85002452383809        1.48556030140809       -9.80337120836774
C           17.56017789027502        2.62896312480945       -6.55017590329656
C           17.56921853795797        2.30402820921185       -5.20385052682101
C           15.73976750435834        0.69457720067051       -2.66161555104194
C           14.46205095268337        0.94934847484194       -3.27112762326667
C           13.51981969533719        0.75865264950210       -2.31525344660269
C           14.21267162732370        0.39729318707739       -1.11133924268550
N           15.55752133581790        0.36962788536783       -1.34876143870705
H           12.51291540847769        0.14884754124653        0.11474436855411
H           12.47907537569349       -0.56566039491343        2.62991859949160
H           14.36946204471823       -1.06885958429173        4.47085047448447
H           16.07112698265653        0.72999510506813        5.46073894220223
H           16.08826548466466        0.15422816275614        7.87748932735646
H           15.50425341270180       -3.23698505691587       10.22431096030442
H           18.03129949608961       -3.55718988294365        6.98370940789223
H           18.00594896291187       -2.99042360455916        4.56480964051926
H           19.68455256665692       -0.90822022350331        4.47617795751192
H           21.55540389761254       -0.52720110515458        2.58911722148743
H           21.50976682947753        0.35220071604436       -2.60072925686774
H           19.61061599320703        0.81033329244537       -4.44187885489243
H           15.88498289594222       -0.64044159813180       -5.32875566403935
H           15.85766568856976       -0.06057834228969       -7.74457158156944
H           18.64727539587852        1.87870232446458      -10.40340489067573
H           18.01664422271853        3.54324112647494       -6.90821194096095
H           18.03460638113589        2.97384506737184       -4.49016210257714
H           14.31291921096523        1.24790826830581       -4.29624764324024
H           12.44946637517141        0.85951957021238       -2.40101247114071
Cu          30.46726946590294        0.03962837947278       -0.04051441226246
C           33.87230218697324        0.14426985602808       -0.04719510916042
C           33.24111438839180        0.29045728439217       -1.27320783240254
C           33.92033633958899        0.43857499569747       -2.52885167497612
C           32.96475504289054        0.55155862928476       -3.48390629150816
C           31.69177630020170        0.48605570745786       -2.81753453704307
N           31.89089450711569        0.31889842701297       -1.47786555559472
C           30.44767062930428        0.56045696977558       -3.44875447435510
C           30.43880273404173        0.77684579016266       -4.91637643949011
C           30.98392880111136        1.94205327623692       -5.46149701947686
C           30.97556057793794        2.14894656661861       -6.83108743430800
C           30.42219818936181        1.17568322849453       -7.64723969981020
S           30.39849545542039        1.43596254132860       -9.38057519893709
O           30.46684025662650        2.83481265915364       -9.68476928833068
O           31.83382851613602        0.76493108237653       -9.74076861452151
O           29.37297729808331        0.65016117615462      -10.00210221870797
C           29.87293424018518        0.01063531477173       -7.13679909765428
C           29.88251477946487       -0.18332134433512       -5.76543111726415
C           29.21149855914138        0.44630926783557       -2.80877295847746
C           27.93558822500926        0.59182536722766       -3.45119735789270
C           26.98752807337962        0.42432220107617       -2.49481977978434
N           29.02039344536138        0.20615726343086       -1.47439513370414
C           27.67612936828155        0.18258206601375       -1.26243805945892
C           27.03824647118271       -0.05058141634015       -0.03156955872639
C           27.69429691641856       -0.25617976262639        1.19468213490559
C           27.02613179241095       -0.53697142036023        2.43000023507561
C           27.98704775901828       -0.65853615652577        3.38051630556210
C           29.24995164674663       -0.44332071509351        2.73197432112720
N           29.03918999405924       -0.21086824187936        1.39918934449517
C           30.49339452027423       -0.48785223650083        3.36649081526911
C           30.50283627772733       -0.70694641611637        4.83378222883163
C           31.12030444676611       -1.83713343123252        5.37512171845575
C           31.13172264559821       -2.04459614437435        6.74469335989457
C           30.52188046703473       -1.10889184279016        7.56427055630890
S           30.54363565515750       -1.36027833986136        9.29976971220211
O           30.40846336020129       -0.11817598523029       10.00439150614805
O           29.13750788913890       -2.15840808758629        9.45187332967678
O           31.61396754041819       -2.24160357264541        9.65860344414514
C           29.90623346315363        0.02435449119155        7.05789494003743
C           29.89780810259192        0.21975836218480        5.68673875805263
C           31.72827877495855       -0.33748287667853        2.73075689656612
C           33.00557683836468       -0.32565605085103        3.39205307798841
C           33.94843314742753       -0.15055594104121        2.43381437312213
C           33.25635306226913       -0.04217483162858        1.18108411860267
N           31.91136179273479       -0.15518320921472        1.39074935993772
H           34.95683779286114        0.17853144930852       -0.04934549928479
H           34.99196074675279        0.44342334349098       -2.65053264717447
H           33.10245894071934        0.65798297184821       -4.54786973735816
H           31.40068481413958        2.69654208389585       -4.80451850445099
H           31.38510722038980        3.05331048257283       -7.26324377376230
H           31.97153796266329        0.76697157228339      -10.69584544190542
H           29.44357843155542       -0.72657396992226       -7.80355019260125
H           29.46716020789648       -1.09231627496342       -5.34616229050286
H           27.78763116362620        0.81027765440955       -4.49634804307566
H           25.91558012676932        0.46552147793884       -2.60342853039090
H           25.95844835180381       -0.63486578540686        2.54422699271085
H           27.85655192270776       -0.88787795972109        4.42567413315830
H           31.58189394501256       -2.56295388817757        4.71583859892364
H           31.60807714071811       -2.91652921050431        7.17494744976277
H           28.81426313575500       -2.09410317115843       10.35908236144071
H           29.44977237532132        0.74185094161486        7.72819472537496
H           29.43287588932114        1.10598333630778        5.27076115638080
H           33.15410301711395       -0.42624509111873        4.45510326626560
H           35.01872397151299       -0.08860746973967        2.55138010318016
C           23.05961143949489       -0.08380052236427       -0.01323839024619
C           21.83795473259658       -0.07664332278526       -0.00548531683978
C           24.40996598729054       -0.08297908261494       -0.02078338953861
C           25.63157832775192       -0.07370860833433       -0.02596154414292

          :  Hamiltonian                  GFN1-xTB          :
         :: total energy            -269.504647367829 Eh    ::
         :: gradient norm              0.000809228848 Eh/a0 ::
         :: HOMO-LUMO gap              0.002200821188 eV    ::
         :: SCC energy              -272.990690447685 Eh    ::
         :: repulsion energy           3.606674984199 Eh    ::

    * Orbital Energies and Occupations

         #    Occupation            Energy/Eh            Energy/eV
      -------------------------------------------------------------
         1        2.0000           -1.0359449             -28.1895
       ...           ...                  ...                  ...
       222        2.0000           -0.4280606             -11.6481
       223        2.0000           -0.4280507             -11.6479
       224        2.0000           -0.4249308             -11.5630
       225        2.0000           -0.4249294             -11.5629
       226        2.0000           -0.4248557             -11.5609
       227        2.0000           -0.4247834             -11.5589
       228        2.0000           -0.4247813             -11.5589
       229        2.0000           -0.4247707             -11.5586
       230        2.0000           -0.4129040             -11.2357
       231        2.0000           -0.4129029             -11.2357
       232        2.0000           -0.4113687             -11.1939
       233        2.0000           -0.3987855             -10.8515
       234        1.0213           -0.3725958             -10.1388 (HOMO)
       235        0.9787           -0.3725149             -10.1366 (LUMO)
       236                         -0.3550646              -9.6618
       237                         -0.3473347              -9.4515
       238                         -0.3473306              -9.4513
       239                         -0.3410379              -9.2801
       240                         -0.3194881              -8.6937
       241                         -0.3159671              -8.5979
       242                         -0.3083267              -8.3900
       243                         -0.3082974              -8.3892
       244                         -0.3040436              -8.2734
       245                         -0.2994823              -8.1493
       ...                                ...                  ...
       482                          1.5027954              40.8931
      -------------------------------------------------------------
                  HL-Gap            0.0000809 Eh            0.0022 eV

Wiberg/Mayer (AO) data.
largest (>0.10) Wiberg bond orders for each atom

     #   Z sym  total        # sym  WBO       # sym  WBO       # sym  WBO
 ---------------------------------------------------------------------------
     1  29 Cu   2.179 --    45 N    0.503     7 N    0.503    29 N    0.500
                            22 N    0.500
     2   6 C    3.931 --    44 C    1.362     3 C    1.362    46 H    0.971
     3   6 C    3.915 --     2 C    1.362     7 N    1.229     4 C    1.169
     4   6 C    3.955 --     5 C    1.658     3 C    1.169    47 H    0.975
     5   6 C    3.958 --     4 C    1.658     6 C    1.170    48 H    0.973
     6   6 C    3.914 --     8 C    1.319     7 N    1.241     5 C    1.170
     7   7 N    3.243 --     6 C    1.241     3 C    1.229     1 Cu   0.503
     8   6 C    3.933 --    19 C    1.324     6 C    1.319     9 C    1.029
     9   6 C    3.986 --    10 C    1.391    18 C    1.390     8 C    1.029
    10   6 C    3.986 --    11 C    1.450     9 C    1.391    49 H    0.971
                            17 C    0.106
    11   6 C    3.989 --    10 C    1.450    12 C    1.407    50 H    0.967
                            18 C    0.106
    12   6 C    3.930 --    11 C    1.407    17 C    1.407    13 S    0.754
    13  16 S    5.263 --    14 O    1.721    16 O    1.717    15 O    1.012
                            12 C    0.754
    14   8 O    2.079 --    13 S    1.721    16 O    0.139
    15   8 O    2.087 --    13 S    1.012    51 H    0.828
    16   8 O    2.076 --    13 S    1.717    14 O    0.139
    17   6 C    3.989 --    18 C    1.450    12 C    1.407    52 H    0.967
                            10 C    0.106
    18   6 C    3.987 --    17 C    1.450     9 C    1.390    53 H    0.971
                            11 C    0.106
    19   6 C    3.909 --     8 C    1.324    22 N    1.225    20 C    1.178
    20   6 C    3.954 --    21 C    1.644    19 C    1.178    54 H    0.973
    21   6 C    3.956 --    20 C    1.644    23 C    1.186    55 H    0.974
    22   7 N    3.247 --    23 C    1.256    19 C    1.225     1 Cu   0.500
    23   6 C    3.897 --    24 C    1.261    22 N    1.256    21 C    1.186
    24   6 C    3.940 --    23 C    1.261    25 C    1.261   130 C    1.185
    25   6 C    3.897 --    24 C    1.261    29 N    1.256    26 C    1.186
    26   6 C    3.956 --    27 C    1.644    25 C    1.186    56 H    0.974
    27   6 C    3.954 --    26 C    1.644    28 C    1.178    57 H    0.973
    28   6 C    3.908 --    30 C    1.324    29 N    1.224    27 C    1.178
    29   7 N    3.247 --    25 C    1.256    28 C    1.224     1 Cu   0.500
    30   6 C    3.933 --    28 C    1.324    41 C    1.319    31 C    1.029
    31   6 C    3.986 --    32 C    1.391    40 C    1.390    30 C    1.029
    32   6 C    3.986 --    33 C    1.449    31 C    1.391    58 H    0.971
                            39 C    0.106
    33   6 C    3.989 --    32 C    1.449    34 C    1.408    59 H    0.967
                            40 C    0.106
    34   6 C    3.930 --    33 C    1.408    39 C    1.407    35 S    0.754
    35  16 S    5.268 --    38 O    1.728    36 O    1.712    37 O    1.015
                            34 C    0.754
    36   8 O    2.071 --    35 S    1.712    38 O    0.138
    37   8 O    2.089 --    35 S    1.015    60 H    0.828
    38   8 O    2.086 --    35 S    1.728    36 O    0.138
    39   6 C    3.989 --    40 C    1.451    34 C    1.407    61 H    0.967
                            32 C    0.106
    40   6 C    3.987 --    39 C    1.451    31 C    1.390    62 H    0.971
                            33 C    0.106
    41   6 C    3.914 --    30 C    1.319    45 N    1.241    42 C    1.170
    42   6 C    3.958 --    43 C    1.658    41 C    1.170    63 H    0.973
    43   6 C    3.955 --    42 C    1.658    44 C    1.169    64 H    0.975
    44   6 C    3.915 --     2 C    1.362    45 N    1.229    43 C    1.169
    45   7 N    3.243 --    41 C    1.241    44 C    1.229     1 Cu   0.503
    46   1 H    1.001 --     2 C    0.971
    47   1 H    0.997 --     4 C    0.975
    48   1 H    1.003 --     5 C    0.973
    49   1 H    1.003 --    10 C    0.971
    50   1 H    0.999 --    11 C    0.967
    51   1 H    0.854 --    15 O    0.828
    52   1 H    1.000 --    17 C    0.967
    53   1 H    1.003 --    18 C    0.971
    54   1 H    1.003 --    20 C    0.973
    55   1 H    1.002 --    21 C    0.974
    56   1 H    1.002 --    26 C    0.974
    57   1 H    1.003 --    27 C    0.973
    58   1 H    1.003 --    32 C    0.971
    59   1 H    1.000 --    33 C    0.967
    60   1 H    0.854 --    37 O    0.828
    61   1 H    0.999 --    39 C    0.967
    62   1 H    1.003 --    40 C    0.971
    63   1 H    1.003 --    42 C    0.973
    64   1 H    0.997 --    43 C    0.975
    65  29 Cu   2.179 --   109 N    0.503    71 N    0.503    93 N    0.500
                            86 N    0.500
    66   6 C    3.931 --   108 C    1.362    67 C    1.362   110 H    0.971
    67   6 C    3.915 --    66 C    1.362    71 N    1.229    68 C    1.169
    68   6 C    3.955 --    69 C    1.658    67 C    1.169   111 H    0.975
    69   6 C    3.958 --    68 C    1.658    70 C    1.170   112 H    0.973
    70   6 C    3.914 --    72 C    1.319    71 N    1.241    69 C    1.170
    71   7 N    3.243 --    70 C    1.241    67 C    1.229    65 Cu   0.503
    72   6 C    3.933 --    83 C    1.324    70 C    1.319    73 C    1.029
    73   6 C    3.986 --    74 C    1.391    82 C    1.390    72 C    1.029
    74   6 C    3.986 --    75 C    1.450    73 C    1.391   113 H    0.971
                            81 C    0.106
    75   6 C    3.989 --    74 C    1.450    76 C    1.407   114 H    0.967
                            82 C    0.106
    76   6 C    3.930 --    75 C    1.407    81 C    1.407    77 S    0.754
    77  16 S    5.263 --    78 O    1.721    80 O    1.717    79 O    1.012
                            76 C    0.754
    78   8 O    2.079 --    77 S    1.721    80 O    0.139
    79   8 O    2.087 --    77 S    1.012   115 H    0.828
    80   8 O    2.076 --    77 S    1.717    78 O    0.139
    81   6 C    3.989 --    82 C    1.450    76 C    1.407   116 H    0.967
                            74 C    0.106
    82   6 C    3.987 --    81 C    1.450    73 C    1.390   117 H    0.971
                            75 C    0.106
    83   6 C    3.909 --    72 C    1.324    86 N    1.225    84 C    1.178
    84   6 C    3.954 --    85 C    1.644    83 C    1.178   118 H    0.973
    85   6 C    3.956 --    84 C    1.644    87 C    1.186   119 H    0.974
    86   7 N    3.247 --    87 C    1.256    83 C    1.225    65 Cu   0.500
    87   6 C    3.897 --    88 C    1.261    86 N    1.256    85 C    1.186
    88   6 C    3.940 --    87 C    1.261    89 C    1.261   132 C    1.185
    89   6 C    3.897 --    88 C    1.261    93 N    1.256    90 C    1.186
    90   6 C    3.956 --    91 C    1.644    89 C    1.186   120 H    0.974
    91   6 C    3.954 --    90 C    1.644    92 C    1.178   121 H    0.973
    92   6 C    3.908 --    94 C    1.324    93 N    1.224    91 C    1.178
    93   7 N    3.247 --    89 C    1.256    92 C    1.224    65 Cu   0.500
    94   6 C    3.933 --    92 C    1.324   105 C    1.319    95 C    1.029
    95   6 C    3.986 --    96 C    1.391   104 C    1.390    94 C    1.029
    96   6 C    3.986 --    97 C    1.449    95 C    1.391   122 H    0.971
                           103 C    0.106
    97   6 C    3.989 --    96 C    1.449    98 C    1.408   123 H    0.967
                           104 C    0.106
    98   6 C    3.930 --    97 C    1.408   103 C    1.407    99 S    0.753
    99  16 S    5.268 --   102 O    1.729   100 O    1.712   101 O    1.015
                            98 C    0.753
   100   8 O    2.071 --    99 S    1.712   102 O    0.138
   101   8 O    2.089 --    99 S    1.015   124 H    0.828
   102   8 O    2.086 --    99 S    1.729   100 O    0.138
   103   6 C    3.989 --   104 C    1.451    98 C    1.407   125 H    0.967
                            96 C    0.106
   104   6 C    3.987 --   103 C    1.451    95 C    1.390   126 H    0.971
                            97 C    0.106
   105   6 C    3.914 --    94 C    1.319   109 N    1.241   106 C    1.170
   106   6 C    3.958 --   107 C    1.658   105 C    1.170   127 H    0.973
   107   6 C    3.955 --   106 C    1.658   108 C    1.169   128 H    0.975
   108   6 C    3.915 --    66 C    1.362   109 N    1.229   107 C    1.169
   109   7 N    3.243 --   105 C    1.241   108 C    1.229    65 Cu   0.503
   110   1 H    1.001 --    66 C    0.971
   111   1 H    0.997 --    68 C    0.975
   112   1 H    1.003 --    69 C    0.973
   113   1 H    1.003 --    74 C    0.971
   114   1 H    0.999 --    75 C    0.967
   115   1 H    0.854 --    79 O    0.828
   116   1 H    1.000 --    81 C    0.967
   117   1 H    1.003 --    82 C    0.971
   118   1 H    1.003 --    84 C    0.973
   119   1 H    1.002 --    85 C    0.974
   120   1 H    1.002 --    90 C    0.974
   121   1 H    1.003 --    91 C    0.973
   122   1 H    1.003 --    96 C    0.971
   123   1 H    1.000 --    97 C    0.967
   124   1 H    0.854 --   101 O    0.828
   125   1 H    0.999 --   103 C    0.967
   126   1 H    1.003 --   104 C    0.971
   127   1 H    1.003 --   106 C    0.973
   128   1 H    0.997 --   107 C    0.975
   129   6 C    3.937 --   130 C    2.482   131 C    1.305
   130   6 C    3.927 --   129 C    2.482    24 C    1.185   132 C    0.200
   131   6 C    3.937 --   132 C    2.482   129 C    1.305
   132   6 C    3.927 --   131 C    2.482    88 C    1.185   130 C    0.200
 ---------------------------------------------------------------------------

           -------------------------------------------------
          | TOTAL ENERGY             -269.504647367829 Eh   |
          | GRADIENT NORM               0.000809228848 Eh/α |
          | HOMO-LUMO GAP               0.002200821188 eV   |
           -------------------------------------------------

 * finished run on 2022/07/30 at 13:32:12.591
