   * xtb version 6.5.1 (b24c23e) compiled by 'conda@728c89f4b128' on 2022-07-12
          program call               : xtb Ni_m-CP_C4_3.xyz --gfn 1 --opt -T 48

   ID    Z sym.   atoms
    1   28 Ni     1, 63, 133
    2    6 C      2-6, 8-12, 15-20, 22-27, 29-35, 38-42, 64-68, 70-74, 77-82,
                  84-89, 91-97, 100-104, 125-132, 134-138, 140-144, 147-152,
                  154-159, 161-167, 170-174
    3    7 N      7, 21, 28, 43, 69, 83, 90, 105, 139, 153, 160, 175
    4    8 O      13, 14, 36, 37, 75, 76, 98, 99, 145, 146, 168, 169
    5    1 H      44-62, 106-124, 176-193
########################################################################
[WARNING] Please study the warnings concerning your input carefully
-1- prog_main_parseArguments: Unknown option '-T' provided
########################################################################

          :  Hamiltonian                  GFN1-xTB          :
 * total energy  :  -367.9469151 Eh     change        0.3748312E-08 Eh
 * total energy  :  -368.9152060 Eh     change       -0.9682909E+00 Eh
 * total energy  :  -369.1305001 Eh     change       -0.2152941E+00 Eh
 * total energy  :  -369.2622758 Eh     change       -0.1317756E+00 Eh
 * total energy  :  -369.3348604 Eh     change       -0.7258465E-01 Eh
 * total energy  :  -369.3912441 Eh     change       -0.5638369E-01 Eh
 * total energy  :  -369.4408594 Eh     change       -0.4961526E-01 Eh
 * total energy  :  -369.4800315 Eh     change       -0.3917211E-01 Eh
 * total energy  :  -369.5045091 Eh     change       -0.2447763E-01 Eh
 * total energy  :  -369.5279834 Eh     change       -0.2347427E-01 Eh
 * total energy  :  -369.7703007 Eh     change       -0.2541653E-04 Eh
 * total energy  :  -369.7703158 Eh     change       -0.1508066E-04 Eh
 * total energy  :  -369.7703429 Eh     change       -0.2706893E-04 Eh
 * total energy  :  -369.7703496 Eh     change       -0.6710489E-05 Eh
 * total energy  :  -369.7703634 Eh     change       -0.1384617E-04 Eh
 * total energy  :  -369.7703666 Eh     change       -0.3176780E-05 Eh
 * total energy  :  -369.7703663 Eh     change        0.2989473E-06 Eh
 * total energy  :  -369.7703763 Eh     change       -0.9962607E-05 Eh
 * total energy  :  -369.7703805 Eh     change       -0.4245312E-05 Eh
   *** GEOMETRY OPTIMIZATION CONVERGED AFTER 126 ITERATIONS ***

 final structure:
================
193
 xtb: 6.5.1 (b24c23e)
Ni          31.70447362863892        0.10487908428372       -0.30600635929061
C           28.32624335929212        0.06610227360772       -0.05051255498172
C           28.95914138293541        1.29100680617469       -0.10206440779714
C           28.26979355672693        2.54519157775113       -0.10048460675620
C           29.21801294782964        3.50984116953140       -0.05039451186385
C           30.48660169182752        2.84284464821987        0.00096937214865
N           30.31796679374496        1.48346050462214       -0.08326958199602
C           31.70075588885131        3.48779446064763        0.20104080870846
C           31.70341046015162        4.95525213632766        0.40903183349688
C           31.00500396197465        5.52115271842302        1.47197034577248
C           31.00783734530836        6.90195091976579        1.66510428580816
C           30.24247037726055        7.44427981986819        2.81602823995147
O           30.31605708682880        8.77841155153022        2.92747038988394
O           29.60732397433222        6.77182980594936        3.58727716247424
C           31.71232824453072        7.72891624910633        0.79034567937110
C           32.40849159151298        7.16794917453619       -0.26886962225042
C           32.40690115163130        5.79341284429262       -0.45950994869741
C           32.91279642998471        2.80926856922502        0.23028942597904
C           34.16954519714131        3.42657953994171        0.52817061878393
C           35.12223818461091        2.47826576114441        0.35610194484846
N           33.09194655783810        1.47952436154794       -0.07502864949806
C           34.44583566877839        1.28526890575321       -0.04248902277149
C           35.10894292088987        0.12618424745262       -0.45613135933230
C           34.42722310946657       -1.03407961286310       -0.83467495133961
C           35.07883387761682       -2.20378131593241       -1.33134020421450
C           34.12127826253495       -3.15219391307896       -1.47288692756539
C           32.88876787063841       -2.56237988219049       -1.04525866351227
N           33.08204643249486       -1.24332819558578       -0.70230216817169
C           31.69508007326500       -3.26072601930709       -0.91714478422984
C           31.68701506742698       -4.71778920165832       -1.19014631276060
C           32.48754408865533       -5.58401891722807       -0.44211307952272
C           32.47657871414517       -6.94930095632879       -0.69165116987205
C           31.66940564649686       -7.46628867058126       -1.69112235006017
C           30.86535090158003       -6.61078804012684       -2.44594356048231
C           30.01354096621923       -7.20345519785430       -3.50754243284900
O           29.26903808121999       -6.30204070070630       -4.16446415799797
O           29.97548760989806       -8.37804459962299       -3.77108197253315
C           30.87430970522714       -5.24043399120167       -2.19395299980821
C           30.50784211147511       -2.64997544361893       -0.53177084181323
C           29.27523838499420       -3.35020949572236       -0.31602021224859
C           28.33055407851845       -2.41343941416814       -0.06570671993771
C           28.98691451749315       -1.14293851733511       -0.12230683551884
N           30.32891987987851       -1.30000228472353       -0.36508056840980
H           27.24634446153703        0.05300128551034        0.03906404144638
H           27.19748840820529        2.65316391741747       -0.13579121083137
H           29.08296745640769        4.57917115521578       -0.04627723473194
H           30.46384960676741        4.89289533745320        2.17101442257898
H           29.79274773521192        9.05287790223863        3.69802431113644
H           31.71204142387069        8.80163568653505        0.94092707912884
H           32.95589910611204        7.80507072946241       -0.95427949783409
H           32.94307324316761        5.36248746749486       -1.29767263255654
H           34.29629687144291        4.45159057530461        0.83629677792727
H           36.18976871933955        2.56547347609018        0.47858985835537
H           36.13400974779762       -2.27481546186519       -1.54055955387380
H           34.22999224291360       -4.16148194696240       -1.83499167090347
H           33.10959746421032       -5.18289345567748        0.35019490921606
H           33.10001210213902       -7.60984483083808       -0.09995989745540
H           31.64873430412347       -8.53008155907098       -1.89916810012344
H           28.74496176839616       -6.76671584573875       -4.83697759208129
H           30.25883114100932       -4.57681910743083       -2.78976530645496
H           29.16130236477914       -4.42152282648502       -0.35014925908853
H           27.28015754651304       -2.55024582389532        0.13616142186300
Ni          58.49852815736647        0.15306278670090       -0.11214314329643
C           61.85984069556196        0.04883395415923        0.32136317284275
C           61.23220080694175       -1.08717021648716       -0.14625741521768
C           61.92761422867504       -2.28411753810472       -0.50923801277178
C           60.98679928397030       -3.18065224424390       -0.88671818875806
C           59.71383788607493       -2.54067606606394       -0.72223746723080
N           59.87838827935668       -1.24234683583236       -0.30782097833006
C           58.49324636884790       -3.18312720853496       -0.88410004597509
C           58.48474345991047       -4.62000809927259       -1.24999981480315
C           59.07731804984540       -5.56762243851485       -0.42034695576346
C           59.06911074255139       -6.91745060228924       -0.76971784447502
C           59.72149403899218       -7.87846860280038        0.15519498115714
O           59.64628381588437       -9.15266518468368       -0.25543266307067
O           60.27384971370218       -7.56780378151561        1.17928788800225
C           58.46460835052373       -7.32870552666442       -1.95742632949620
C           57.87201459177559       -6.38717450156782       -2.78423160002943
C           57.87924193687245       -5.04403984611467       -2.43532560895520
C           57.27632596922754       -2.54353760077013       -0.68427766609717
C           56.01127658600151       -3.21294915119475       -0.71378173806924
C           55.06272569894391       -2.26654049118622       -0.51319115377766
N           57.10416010111737       -1.20043602112479       -0.44054500379084
C           55.74930215887363       -1.02252031109638       -0.36921810332126
C           55.09230513765296        0.20733075446714       -0.27826089851542
C           55.77762815371931        1.42238697275044       -0.18774141490171
C           55.12561819667708        2.69253727431356       -0.21975526720849
C           56.09195513660369        3.62968492340008       -0.06626580683250
C           57.32926042672403        2.92589055795800        0.08605488775225
N           57.12798634322095        1.56875853735612       -0.03088231895323
C           58.53709931640432        3.54049076269507        0.38702063811022
C           58.56246539982979        5.01168818871369        0.57498993869694
C           57.82443581427185        5.60969023621738        1.59870511657005
C           57.84949473538389        6.98605961623575        1.77632449866460
C           58.60771485914825        7.78131206307310        0.93339882396568
C           59.35023727371532        7.19493063641266       -0.09273611817179
C           60.14915248457084        8.08194190528099       -0.97556296243127
O           60.83312284867599        7.42314837948310       -1.92213269897199
O           60.19485768161582        9.28089982580433       -0.87087903393978
C           59.32892823650881        5.81278817107709       -0.26843225246024
C           59.72018243089995        2.83121149846271        0.55039995511335
C           60.95511237178786        3.42268906905981        0.97573649542350
C           61.87992426848894        2.43446895651528        0.98640102694223
C           61.21166826571144        1.24268882905079        0.56015233042810
N           59.88129931676480        1.48736153483763        0.32645623827052
H           62.93156816412413        0.01094038189551        0.47756867607276
H           62.99932588890970       -2.40005263222920       -0.48243980753746
H           61.12972399210340       -4.18791022666588       -1.24251650060667
H           59.53834006763420       -5.26886143587959        0.51472824474994
H           60.09420684214904       -9.71404623152026        0.39815632170859
H           58.46101234394568       -8.37757347660195       -2.22812503418719
H           57.40184428505229       -6.69956173863316       -3.70980946906765
H           57.42411982019828       -4.31129500951814       -3.09230620341072
H           55.87710567549208       -4.27283488648517       -0.85611895655279
H           53.99178869409394       -2.38327975561256       -0.47220498042615
H           54.06513751813495        2.83373937100626       -0.35258297993203
H           55.98564650833454        4.70209991365467       -0.05541434892871
H           57.24000020605910        4.98724987049657        2.26708381143047
H           57.27484624830296        7.43625709883914        2.57777668975636
H           58.63697355678946        8.85802343963800        1.05673090062415
H           61.32415559347898        8.07046536574597       -2.45408520168790
H           59.89812662907711        5.36005201740548       -1.07174980766825
H           61.08162229200707        4.46029545847531        1.23894246568395
H           62.92505287625058        2.48934196554634        1.24627889387910
C           37.73367163835294        0.15253936698385       -0.56264901117806
C           36.51332194191845        0.13554713198746       -0.51052614995510
C           39.08200406431832        0.18299506998764       -0.63063701775939
C           40.30082377084191        0.22576685225906       -0.70269706586182
C           51.12037872262345        0.29246371245802       -0.46052230741707
C           49.90282035114957        0.32724963971440       -0.55456183653952
C           52.46775331108547        0.26089210289957       -0.37802398034735
C           53.68777073467253        0.23041197295993       -0.32597311979382
Ni          45.10549522872400        0.39663353141086       -0.94291299072352
C           41.70157825599813        0.28396728101410       -0.79454738675513
C           42.37794472579002       -0.74672333720720       -1.45540964360606
C           41.71587901118644       -1.80820886411499       -2.14382629163038
C           42.68492970283148       -2.61919630298744       -2.63383320236947
C           43.93634953028280       -2.07019402710514       -2.20819593650690
N           43.73514061038362       -0.89186674779159       -1.52413756378104
C           45.16104446904087       -2.70465512282445       -2.36429417845233
C           45.21210308245379       -4.02051127692584       -3.04557273490766
C           44.52711426266639       -5.11948770250269       -2.53625569875777
C           44.59231651642231       -6.35341680247692       -3.18268245552030
C           43.84591302478827       -7.49050360681025       -2.58708535063583
O           43.98292918541232       -8.63681816312523       -3.26885227906358
O           43.17563626620699       -7.41531411608285       -1.58940468320874
C           45.34327686146020       -6.49348592746695       -4.34954399164708
C           46.02667177804182       -5.40006697960401       -4.85821338037585
C           45.96628554655943       -4.17396541009722       -4.21156567592722
C           46.34838634370465       -2.17822314222755       -1.86990781954008
C           47.58947840091306       -2.88986904823195       -1.84783017195767
C           48.51470373345133       -2.04721656397054       -1.32710855590435
N           46.50789080163306       -0.91745529066750       -1.34511558570819
C           47.84051125326381       -0.81885351161963       -1.05121328503710
C           48.50450095644496        0.35608869464439       -0.68607824640273
C           47.83475050162030        1.57323212180784       -0.52330660771159
C           48.50286096963116        2.82027890027120       -0.33159326400484
C           47.53782767071095        3.76014940087833       -0.18083091724211
C           46.28212439974053        3.07592554457712       -0.24261829173957
N           46.47815636571074        1.73771853767744       -0.50238031551548
C           45.05669478822674        3.66486187533968        0.03886474390924
C           45.01624916630949        5.10113479954147        0.40466019515986
C           44.28152777498448        6.00007428260486       -0.37188446994064
C           44.23769717748072        7.34751419092442       -0.04238520130281
C           44.92163144524709        7.81308450549253        1.06816087195191
C           45.65391302347309        6.92344621255530        1.85569116649628
C           46.36906306407122        7.46131190134468        3.04059015428718
O           47.04851605190620        6.53055067288863        3.72575453454682
O           46.35648292423041        8.61875826379647        3.37305707601645
C           45.70062294645259        5.57100914541835        1.52341175981479
C           43.86244894432312        2.95390179716214        0.03410599863793
C           42.61491600008317        3.48428954987534        0.49190398088660
C           41.68474667102671        2.51671780396104        0.30215222145636
C           42.36293407094984        1.40615629435613       -0.28611113429816
N           43.70121043137581        1.66249655760984       -0.41021722726211
H           40.64635766128377       -1.90085921298653       -2.24225211090054
H           42.57067040768636       -3.51424025462205       -3.22306213455006
H           43.95099181940221       -5.03403685775390       -1.62143809935009
H           43.46921597356968       -9.32677817025087       -2.81828652564994
H           45.39056164212740       -7.45247622576618       -4.85103949944046
H           46.61194562014158       -5.50145802679272       -5.76512633287189
H           46.49786360933811       -3.32030222802530       -4.61704256256998
H           47.72243519673516       -3.90820915354022       -2.17493875069124
H           49.56438595755102       -2.22237337080020       -1.15498547593001
H           49.57342043745608        2.94737127724010       -0.32793040634829
H           47.65791220135677        4.82102355556012       -0.03408997631331
H           43.75331199092764        5.63790118474989       -1.24683159614649
H           43.66753001758074        8.03429825654466       -0.65750238409411
H           44.89805953774737        8.86225080899148        1.34033076374346
H           47.48332204729277        6.95936555005018        4.48074157135932
H           46.25623835321351        4.88027514425522        2.14652227986621
H           42.48056138660403        4.46548210779140        0.91723659433915
H           40.62968135214604        2.54375575514680        0.52186033303427

          :  Hamiltonian                  GFN1-xTB          :
         :: total energy            -369.770380501508 Eh    ::
         :: gradient norm              0.000463612677 Eh/a0 ::
         :: HOMO-LUMO gap              1.030754222752 eV    ::
         :: SCC energy              -375.117129891879 Eh    ::
         :: repulsion energy           5.522242505057 Eh    ::

    * Orbital Energies and Occupations

         #    Occupation            Energy/Eh            Energy/eV
      -------------------------------------------------------------
         1        2.0000           -0.8357898             -22.7430
       ...           ...                  ...                  ...
       317        2.0000           -0.4050976             -11.0233
       318        2.0000           -0.4047463             -11.0137
       319        2.0000           -0.4046873             -11.0121
       320        2.0000           -0.4045552             -11.0085
       321        2.0000           -0.4045273             -11.0077
       322        2.0000           -0.4044844             -11.0066
       323        2.0000           -0.4037482             -10.9865
       324        2.0000           -0.4034280             -10.9778
       325        2.0000           -0.4033425             -10.9755
       326        2.0000           -0.4026291             -10.9561
       327        2.0000           -0.4025395             -10.9537
       328        2.0000           -0.3974070             -10.8140
       329        2.0000           -0.3890598             -10.5869 (HOMO)
       330                         -0.3511803              -9.5561 (LUMO)
       331                         -0.3408549              -9.2751
       332                         -0.3388736              -9.2212
       333                         -0.3376861              -9.1889
       334                         -0.3371297              -9.1738
       335                         -0.3351868              -9.1209
       336                         -0.3351080              -9.1188
       337                         -0.3336824              -9.0800
       338                         -0.3324016              -9.0451
       339                         -0.3151104              -8.5746
       340                         -0.3138984              -8.5416
       ...                                ...                  ...
       675                          1.5106324              41.1064
      -------------------------------------------------------------
                  HL-Gap            0.0378795 Eh            1.0308 eV

Wiberg/Mayer (AO) data.
largest (>0.10) Wiberg bond orders for each atom

     #   Z sym  total        # sym  WBO       # sym  WBO       # sym  WBO
 ---------------------------------------------------------------------------
     1  28 Ni   3.021 --     7 N    0.665    43 N    0.665    21 N    0.661
                            28 N    0.661
     2   6 C    3.935 --    42 C    1.364     3 C    1.364    44 H    0.970
     3   6 C    3.922 --     2 C    1.364     7 N    1.212     4 C    1.174
     4   6 C    3.960 --     5 C    1.650     3 C    1.174    45 H    0.975
     5   6 C    3.963 --     4 C    1.650     6 C    1.175    46 H    0.972
     6   6 C    3.920 --     8 C    1.323     7 N    1.221     5 C    1.175
     7   7 N    3.402 --     6 C    1.221     3 C    1.212     1 Ni   0.665
     8   6 C    3.938 --    18 C    1.326     6 C    1.323     9 C    1.028
     9   6 C    3.988 --    10 C    1.407    17 C    1.387     8 C    1.028
                            15 C    0.102
    10   6 C    3.984 --     9 C    1.407    11 C    1.397    47 H    0.967
                            16 C    0.104
    11   6 C    3.988 --    10 C    1.397    15 C    1.391    12 C    1.004
    12   6 C    3.836 --    14 O    1.693    13 O    1.090    11 C    1.004
    13   8 O    2.099 --    12 C    1.090    48 H    0.838    14 O    0.129
    14   8 O    1.962 --    12 C    1.693    13 O    0.129
    15   6 C    3.987 --    16 C    1.448    11 C    1.391    49 H    0.970
                             9 C    0.102
    16   6 C    3.994 --    15 C    1.448    17 C    1.442    50 H    0.972
                            10 C    0.104
    17   6 C    3.987 --    16 C    1.442     9 C    1.387    51 H    0.972
    18   6 C    3.916 --     8 C    1.326    21 N    1.207    19 C    1.184
    19   6 C    3.959 --    20 C    1.635    18 C    1.184    52 H    0.973
    20   6 C    3.961 --    19 C    1.635    22 C    1.192    53 H    0.973
    21   7 N    3.405 --    22 C    1.236    18 C    1.207     1 Ni   0.661
    22   6 C    3.904 --    23 C    1.264    21 N    1.236    20 C    1.192
    23   6 C    3.944 --    22 C    1.264    24 C    1.263   126 C    1.182
    24   6 C    3.904 --    23 C    1.263    28 N    1.238    25 C    1.192
    25   6 C    3.961 --    26 C    1.635    24 C    1.192    54 H    0.973
    26   6 C    3.959 --    25 C    1.635    27 C    1.184    55 H    0.973
    27   6 C    3.916 --    29 C    1.328    28 N    1.206    26 C    1.184
    28   7 N    3.405 --    24 C    1.238    27 C    1.206     1 Ni   0.661
    29   6 C    3.938 --    27 C    1.328    39 C    1.321    30 C    1.027
    30   6 C    3.988 --    38 C    1.405    31 C    1.389    29 C    1.027
                            33 C    0.102
    31   6 C    3.987 --    32 C    1.440    30 C    1.389    56 H    0.972
    32   6 C    3.994 --    33 C    1.450    31 C    1.440    57 H    0.972
                            38 C    0.104
    33   6 C    3.985 --    32 C    1.450    34 C    1.388    58 H    0.969
                            30 C    0.102
    34   6 C    3.988 --    38 C    1.400    33 C    1.388    35 C    1.005
    35   6 C    3.836 --    37 O    1.693    36 O    1.090    34 C    1.005
    36   8 O    2.099 --    35 C    1.090    59 H    0.838    37 O    0.129
    37   8 O    1.961 --    35 C    1.693    36 O    0.129
    38   6 C    3.985 --    30 C    1.405    34 C    1.400    60 H    0.969
                            32 C    0.104
    39   6 C    3.920 --    29 C    1.321    43 N    1.222    40 C    1.176
    40   6 C    3.963 --    41 C    1.649    39 C    1.176    61 H    0.973
    41   6 C    3.960 --    40 C    1.649    42 C    1.175    62 H    0.975
    42   6 C    3.922 --     2 C    1.364    43 N    1.211    41 C    1.175
    43   7 N    3.402 --    39 C    1.222    42 C    1.211     1 Ni   0.665
    44   1 H    1.000 --     2 C    0.970
    45   1 H    0.997 --     4 C    0.975
    46   1 H    1.003 --     5 C    0.972
    47   1 H    1.007 --    10 C    0.967
    48   1 H    0.873 --    13 O    0.838
    49   1 H    1.005 --    15 C    0.970
    50   1 H    1.002 --    16 C    0.972
    51   1 H    1.004 --    17 C    0.972
    52   1 H    1.004 --    19 C    0.973
    53   1 H    1.002 --    20 C    0.973
    54   1 H    1.002 --    25 C    0.973
    55   1 H    1.003 --    26 C    0.973
    56   1 H    1.004 --    31 C    0.972
    57   1 H    1.001 --    32 C    0.972
    58   1 H    1.005 --    33 C    0.969
    59   1 H    0.873 --    36 O    0.838
    60   1 H    1.007 --    38 C    0.969
    61   1 H    1.004 --    40 C    0.973
    62   1 H    0.997 --    41 C    0.975
    63  28 Ni   3.013 --    69 N    0.664   105 N    0.664    83 N    0.661
                            90 N    0.660
    64   6 C    3.935 --   104 C    1.365    65 C    1.363   106 H    0.970
    65   6 C    3.922 --    64 C    1.363    69 N    1.214    66 C    1.174
    66   6 C    3.960 --    67 C    1.651    65 C    1.174   107 H    0.975
    67   6 C    3.963 --    66 C    1.651    68 C    1.175   108 H    0.972
    68   6 C    3.920 --    70 C    1.325    69 N    1.220    67 C    1.175
    69   7 N    3.402 --    68 C    1.220    65 C    1.214    63 Ni   0.664
    70   6 C    3.938 --    80 C    1.325    68 C    1.325    71 C    1.027
    71   6 C    3.988 --    72 C    1.408    79 C    1.387    70 C    1.027
                            77 C    0.102
    72   6 C    3.984 --    71 C    1.408    73 C    1.396   109 H    0.967
                            78 C    0.104
    73   6 C    3.988 --    72 C    1.396    77 C    1.392    74 C    1.004
                            79 C    0.100
    74   6 C    3.836 --    76 O    1.693    75 O    1.090    73 C    1.004
    75   8 O    2.099 --    74 C    1.090   110 H    0.838    76 O    0.129
    76   8 O    1.962 --    74 C    1.693    75 O    0.129
    77   6 C    3.987 --    78 C    1.448    73 C    1.392   111 H    0.970
                            71 C    0.102
    78   6 C    3.994 --    77 C    1.448    79 C    1.441   112 H    0.972
                            72 C    0.104
    79   6 C    3.987 --    78 C    1.441    71 C    1.387   113 H    0.973
                            73 C    0.100
    80   6 C    3.915 --    70 C    1.325    83 N    1.209    81 C    1.184
    81   6 C    3.959 --    82 C    1.635    80 C    1.184   114 H    0.973
    82   6 C    3.961 --    81 C    1.635    84 C    1.191   115 H    0.973
    83   7 N    3.406 --    84 C    1.236    80 C    1.209    63 Ni   0.661
    84   6 C    3.904 --    85 C    1.265    83 N    1.236    82 C    1.191
    85   6 C    3.944 --    84 C    1.265    86 C    1.262   132 C    1.182
    86   6 C    3.904 --    85 C    1.262    90 N    1.240    87 C    1.192
    87   6 C    3.961 --    88 C    1.635    86 C    1.192   116 H    0.973
    88   6 C    3.958 --    87 C    1.635    89 C    1.183   117 H    0.973
    89   6 C    3.916 --    91 C    1.330    90 N    1.205    88 C    1.183
    90   7 N    3.405 --    86 C    1.240    89 C    1.205    63 Ni   0.660
    91   6 C    3.938 --    89 C    1.330   101 C    1.322    92 C    1.024
    92   6 C    3.988 --   100 C    1.407    93 C    1.390    91 C    1.024
                            95 C    0.103
    93   6 C    3.988 --    94 C    1.439    92 C    1.390   118 H    0.972
                            96 C    0.100
    94   6 C    3.994 --    95 C    1.451    93 C    1.439   119 H    0.972
                           100 C    0.104
    95   6 C    3.986 --    94 C    1.451    96 C    1.388   120 H    0.969
                            92 C    0.103
    96   6 C    3.988 --   100 C    1.400    95 C    1.388    97 C    1.005
                            93 C    0.100
    97   6 C    3.836 --    99 O    1.693    98 O    1.090    96 C    1.005
    98   8 O    2.099 --    97 C    1.090   121 H    0.838    99 O    0.129
    99   8 O    1.961 --    97 C    1.693    98 O    0.129
   100   6 C    3.986 --    92 C    1.407    96 C    1.400   122 H    0.970
                            94 C    0.104
   101   6 C    3.920 --    91 C    1.322   105 N    1.223   102 C    1.176
   102   6 C    3.963 --   103 C    1.650   101 C    1.176   123 H    0.973
   103   6 C    3.959 --   102 C    1.650   104 C    1.174   124 H    0.975
   104   6 C    3.922 --    64 C    1.365   105 N    1.212   103 C    1.174
   105   7 N    3.402 --   101 C    1.223   104 C    1.212    63 Ni   0.664
   106   1 H    1.000 --    64 C    0.970
   107   1 H    0.997 --    66 C    0.975
   108   1 H    1.004 --    67 C    0.972
   109   1 H    1.007 --    72 C    0.967
   110   1 H    0.873 --    75 O    0.838
   111   1 H    1.005 --    77 C    0.970
   112   1 H    1.002 --    78 C    0.972
   113   1 H    1.004 --    79 C    0.973
   114   1 H    1.004 --    81 C    0.973
   115   1 H    1.002 --    82 C    0.973
   116   1 H    1.002 --    87 C    0.973
   117   1 H    1.004 --    88 C    0.973
   118   1 H    1.004 --    93 C    0.972
   119   1 H    1.001 --    94 C    0.972
   120   1 H    1.005 --    95 C    0.969
   121   1 H    0.873 --    98 O    0.838
   122   1 H    1.007 --   100 C    0.970
   123   1 H    1.003 --   102 C    0.973
   124   1 H    0.997 --   103 C    0.975
   125   6 C    3.938 --   126 C    2.483   127 C    1.304
   126   6 C    3.926 --   125 C    2.483    23 C    1.182   128 C    0.200
   127   6 C    3.935 --   128 C    2.482   125 C    1.304
   128   6 C    3.927 --   127 C    2.482   134 C    1.185   126 C    0.200
   129   6 C    3.935 --   130 C    2.481   131 C    1.304
   130   6 C    3.927 --   129 C    2.481   155 C    1.185   132 C    0.200
   131   6 C    3.938 --   132 C    2.483   129 C    1.304
   132   6 C    3.926 --   131 C    2.483    85 C    1.182   130 C    0.200
   133  28 Ni   3.007 --   153 N    0.661   175 N    0.661   139 N    0.660
                           160 N    0.660
   134   6 C    3.934 --   174 C    1.263   135 C    1.259   128 C    1.185
   135   6 C    3.904 --   134 C    1.259   139 N    1.242   136 C    1.192
   136   6 C    3.960 --   137 C    1.634   135 C    1.192   176 H    0.973
   137   6 C    3.959 --   136 C    1.634   138 C    1.184   177 H    0.972
   138   6 C    3.914 --   140 C    1.330   139 N    1.202   137 C    1.184
   139   7 N    3.400 --   135 C    1.242   138 C    1.202   133 Ni   0.660
   140   6 C    3.933 --   138 C    1.330   150 C    1.320   141 C    1.026
   141   6 C    3.988 --   142 C    1.409   149 C    1.387   140 C    1.026
                           147 C    0.102
   142   6 C    3.984 --   141 C    1.409   143 C    1.396   178 H    0.967
                           148 C    0.104
   143   6 C    3.988 --   142 C    1.396   147 C    1.392   144 C    1.004
                           149 C    0.100
   144   6 C    3.836 --   146 O    1.693   145 O    1.090   143 C    1.004
   145   8 O    2.099 --   144 C    1.090   179 H    0.838   146 O    0.129
   146   8 O    1.962 --   144 C    1.693   145 O    0.129
   147   6 C    3.987 --   148 C    1.447   143 C    1.392   180 H    0.970
                           141 C    0.102
   148   6 C    3.994 --   147 C    1.447   149 C    1.442   181 H    0.972
                           142 C    0.104
   149   6 C    3.987 --   148 C    1.442   141 C    1.387   182 H    0.973
                           143 C    0.100
   150   6 C    3.913 --   140 C    1.320   153 N    1.209   151 C    1.187
   151   6 C    3.960 --   152 C    1.633   150 C    1.187   183 H    0.973
   152   6 C    3.959 --   151 C    1.633   154 C    1.192   184 H    0.973
   153   7 N    3.400 --   154 C    1.235   150 C    1.209   133 Ni   0.661
   154   6 C    3.904 --   155 C    1.263   153 N    1.235   152 C    1.192
   155   6 C    3.934 --   154 C    1.263   156 C    1.259   130 C    1.185
   156   6 C    3.905 --   155 C    1.259   160 N    1.242   157 C    1.193
   157   6 C    3.960 --   158 C    1.633   156 C    1.193   185 H    0.973
   158   6 C    3.959 --   157 C    1.633   159 C    1.185   186 H    0.972
   159   6 C    3.914 --   161 C    1.329   160 N    1.202   158 C    1.185
   160   7 N    3.399 --   156 C    1.242   159 C    1.202   133 Ni   0.660
   161   6 C    3.933 --   159 C    1.329   171 C    1.321   162 C    1.027
   162   6 C    3.988 --   170 C    1.406   163 C    1.389   161 C    1.027
                           165 C    0.102
   163   6 C    3.987 --   164 C    1.440   162 C    1.389   187 H    0.973
                           166 C    0.100
   164   6 C    3.994 --   165 C    1.450   163 C    1.440   188 H    0.972
                           170 C    0.104
   165   6 C    3.985 --   164 C    1.450   166 C    1.388   189 H    0.969
                           162 C    0.102
   166   6 C    3.988 --   170 C    1.399   165 C    1.388   167 C    1.004
                           163 C    0.100
   167   6 C    3.836 --   169 O    1.693   168 O    1.091   166 C    1.004
   168   8 O    2.099 --   167 C    1.091   190 H    0.838   169 O    0.129
   169   8 O    1.962 --   167 C    1.693   168 O    0.129
   170   6 C    3.985 --   162 C    1.406   166 C    1.399   191 H    0.969
                           164 C    0.104
   171   6 C    3.914 --   161 C    1.321   175 N    1.209   172 C    1.187
   172   6 C    3.960 --   173 C    1.632   171 C    1.187   192 H    0.973
   173   6 C    3.959 --   172 C    1.632   174 C    1.193   193 H    0.973
   174   6 C    3.904 --   134 C    1.263   175 N    1.236   173 C    1.193
   175   7 N    3.400 --   174 C    1.236   171 C    1.209   133 Ni   0.661
   176   1 H    1.001 --   136 C    0.973
   177   1 H    1.003 --   137 C    0.972
   178   1 H    1.007 --   142 C    0.967
   179   1 H    0.872 --   145 O    0.838
   180   1 H    1.005 --   147 C    0.970
   181   1 H    1.002 --   148 C    0.972
   182   1 H    1.004 --   149 C    0.973
   183   1 H    1.003 --   151 C    0.973
   184   1 H    1.002 --   152 C    0.973
   185   1 H    1.001 --   157 C    0.973
   186   1 H    1.004 --   158 C    0.972
   187   1 H    1.004 --   163 C    0.973
   188   1 H    1.001 --   164 C    0.972
   189   1 H    1.005 --   165 C    0.969
   190   1 H    0.872 --   168 O    0.838
   191   1 H    1.008 --   170 C    0.969
   192   1 H    1.003 --   172 C    0.973
   193   1 H    1.002 --   173 C    0.973
 ---------------------------------------------------------------------------

           -------------------------------------------------
          | TOTAL ENERGY             -369.770380501508 Eh   |
          | GRADIENT NORM               0.000463612677 Eh/α |
          | HOMO-LUMO GAP               1.030754222752 eV   |
           -------------------------------------------------

 * finished run on 2022/07/30 at 04:59:05.247
