   * xtb version 6.5.1 (b24c23e) compiled by 'conda@728c89f4b128' on 2022-07-12
          program call               : xtb Zn_Ph2OMe_C8_3.xyz --gfn 1 --opt -T 48

   ID    Z sym.   atoms
    1   30 Zn     1, 73, 161
    2    6 C      2-6, 8-11, 13-21, 23-27, 29-33, 36, 37, 39-43, 45, 74-78,
                  80-83, 85-93, 95-99, 101-105, 108, 109, 111-115, 117,
                  145-160, 162-166, 168-171, 173-181, 183-187, 189-193, 196,
                  197, 199-203, 205
    3    7 N      7, 12, 34, 35, 79, 84, 106, 107, 167, 172, 194, 195
    4    8 O      22, 28, 38, 44, 94, 100, 110, 116, 182, 188, 198, 204
    5    1 H      46-72, 118-144, 206-231

          :  Hamiltonian                  GFN1-xTB          :
 * total energy  :  -400.9364066 Eh     change       -0.9535029E-08 Eh
 * total energy  :  -401.3813914 Eh     change       -0.4449847E+00 Eh
 * total energy  :  -401.5344009 Eh     change       -0.1530095E+00 Eh
 * total energy  :  -401.6144130 Eh     change       -0.8001214E-01 Eh
 * total energy  :  -401.6807737 Eh     change       -0.6636066E-01 Eh
 * total energy  :  -401.7502276 Eh     change       -0.6945392E-01 Eh
 * total energy  :  -401.8155903 Eh     change       -0.6536274E-01 Eh
 * total energy  :  -401.8542385 Eh     change       -0.3864813E-01 Eh
 * total energy  :  -401.8817005 Eh     change       -0.2746207E-01 Eh
 * total energy  :  -401.9016458 Eh     change       -0.1994532E-01 Eh
 * total energy  :  -402.0018018 Eh     change        0.1054619E-04 Eh
 * total energy  :  -402.0018241 Eh     change       -0.2233469E-04 Eh
 * total energy  :  -402.0018226 Eh     change        0.1550045E-05 Eh
 * total energy  :  -402.0018345 Eh     change       -0.1192868E-04 Eh
 * total energy  :  -402.0018254 Eh     change        0.9153948E-05 Eh
 * total energy  :  -402.0018383 Eh     change       -0.1293686E-04 Eh
 * total energy  :  -402.0018401 Eh     change       -0.1831521E-05 Eh
 * total energy  :  -402.0018486 Eh     change       -0.8481325E-05 Eh
 * total energy  :  -402.0018534 Eh     change       -0.4750459E-05 Eh
   *** GEOMETRY OPTIMIZATION CONVERGED AFTER 102 ITERATIONS ***

 final structure:
================
231
 xtb: 6.5.1 (b24c23e)
Zn          26.00334077457053        0.07139878752217       -0.03478869862704
C           22.59290836249811        0.19105317128536       -0.11731562258583
C           23.22140867188520        1.04846004944397        0.77823864634539
C           22.54854436415977        1.95685227069794        1.66515130785135
C           23.50777775849403        2.59983378779137        2.37702367324644
C           24.77854629620465        2.09576719149197        1.92965526714841
N           24.56956194129830        1.15711255941783        0.96246789771869
C           26.02646731493707        2.48924240649633        2.42346456909612
C           27.26421582295458        1.99694133609816        2.00490752241531
C           28.54017216443687        2.43629023752788        2.49784481136987
C           29.49080520144818        1.73982222240098        1.82458963351310
N           27.46434668387956        1.04373300833359        1.04166051731438
C           28.80581619571603        0.86883864657152        0.91344829739168
C           29.44089037501427       -0.02211535082643        0.02396599560558
C           28.78801232487480       -0.88856535593378       -0.87670927111998
C           29.45479275937310       -1.80979859664197       -1.75102915997940
C           28.49077543911656       -2.46698465667838       -2.44433249051796
C           27.22475615865362       -1.94827434884349       -2.00579581488691
C           25.97652437010795       -2.36874679997601       -2.47004192308016
C           25.96170090805478       -3.42926628981953       -3.51879296816668
C           26.39111661029636       -3.14601352048503       -4.82185151609884
O           26.79930952089945       -1.86871445674665       -5.04798408284120
C           27.26551013755112       -1.48233798588278       -6.32472575860314
C           26.37347223628733       -4.13785859483248       -5.80203344520244
C           25.93002193851812       -5.41011991088375       -5.47400349420443
C           25.50158248662169       -5.71450366223738       -4.19072430336848
C           25.51541762771600       -4.72128757798263       -3.21199161959469
O           25.12222817799793       -4.92361784799237       -1.92575706381184
C           24.64529934671206       -6.18846733528410       -1.51448560186258
C           24.73687146800289       -1.88272261913246       -2.04102800514473
C           23.45708989183800       -2.29771860241688       -2.55008043226942
C           22.51222572887158       -1.57897510957930       -1.89370532422233
C           23.20319944005075       -0.71328614539509       -0.97859926630240
N           24.54769783929391       -0.92032415148824       -1.09327326807543
N           27.44403693272005       -0.99242976287939       -1.04917848855425
C           26.03499058833413        3.52923753596237        3.49315194069741
C           26.35246733482034        3.18360536122272        4.81289750533172
O           26.63389624210477        1.87119944681851        5.03097272779240
C           26.96753905782815        1.41741690021471        6.32691980751467
C           26.35665490149687        4.15379399550795        5.81465366244708
C           26.04729966555201        5.46624536549334        5.49087363989170
C           25.73220142389026        5.83230221516227        4.19095275366107
C           25.72394688286839        4.86087615980373        3.19036910080408
O           25.43453966101984        5.12097380131063        1.88716579185302
C           25.10949247945337        6.43303213902290        1.47564436460085
H           21.50813849450691        0.23013783477864       -0.14540514869749
H           21.47786946224465        2.07558097539032        1.72840022872544
H           23.37444863142247        3.35012897410700        3.14019024681987
H           28.68442617620749        3.18534856239623        3.26000780627904
H           30.56249263231927        1.80440243074630        1.92799274136018
H           30.52417880683666       -1.93499156666342       -1.81526512364588
H           28.62035979720268       -3.23700418392854       -3.18790305843457
H           26.48500776184012       -1.59105021550324       -7.08770537975021
H           27.54100310074905       -0.42930016586431       -6.24186879863601
H           28.14716130726008       -2.06250399093183       -6.62314998095848
H           26.69940239809094       -3.92818089433559       -6.81204292522286
H           25.91773436196610       -6.18191375474881       -6.23580712292047
H           25.16266647293873       -6.71622548098342       -3.96266484790838
H           24.38775089478117       -6.08763312993966       -0.45844950372820
H           23.75042725611105       -6.48280074177967       -2.07635671458566
H           25.41356052864365       -6.96348848481720       -1.62495072729216
H           23.30808526406779       -3.04385547866700       -3.31436729477625
H           21.44042250324869       -1.62015114415426       -2.01188947887663
H           27.14982550287644        0.34496374351164        6.23595683045245
H           26.14651892807236        1.58398057565231        7.03499000386617
H           27.87476718304984        1.90597564784911        6.70275129715281
H           26.59672841778072        3.89679022877935        6.83770348515174
H           26.05211409369394        6.22121052566125        6.26945494034163
H           25.49715400274092        6.86430334858432        3.96719529935101
H           25.93817806429916        7.12826785348327        1.65729506179865
H           24.91818952354475        6.37658121298566        0.40238158185345
H           24.20947766468724        6.80201088129842        1.98250545613347
Zn          63.25323340958964        0.00612910017052       -0.08234777231681
C           66.66147044459811        0.14297013132367       -0.19724648809888
C           66.03878417929106       -0.62324993336283       -1.17563536275412
C           66.71776836793850       -1.36133844531482       -2.20448632188627
C           65.76349754749826       -1.97628926892908       -2.94702374677442
C           64.48940678190499       -1.61608745356667       -2.38472696456352
N           64.69189693003244       -0.79915312543830       -1.31143038634351
C           63.24422068429192       -2.04897798554240       -2.85276088021793
C           62.00389412986154       -1.71668227434152       -2.30346690596166
C           60.73013856780933       -2.13768142576233       -2.81775130645211
C           59.77636260066686       -1.59197933718538       -2.02121553086218
N           61.79902419418904       -0.92030439127018       -1.20781458563634
C           60.45703099907607       -0.83108263839230       -1.01353014480300
C           59.81749773798419       -0.10915932654088        0.01513855983516
C           60.46533666992522        0.64609113181895        1.01432654148715
C           59.79426249962840        1.35349686660142        2.06638554066051
C           60.75379152615388        1.95359578979133        2.81550782977430
C           62.02106370186919        1.62427707727592        2.22423861765734
C           63.26555792864097        2.04372995151084        2.69919556464673
C           63.27293907652590        2.92605596526810        3.90180889129138
C           62.82017214587955        4.24890644880889        3.81351391352169
O           62.39790062604547        4.65106218798295        2.58506173402984
C           61.90843427256566        5.96233538276615        2.39085075435547
C           62.83010119812784        5.07474506958572        4.93719397380972
C           63.28933665505778        4.57299846538407        6.14560485482663
C           63.74106466294148        3.26670651501055        6.25761965705970
C           63.73482093695356        2.44249188970190        5.13276128759364
O           64.15054137038338        1.14749568838761        5.14361253700210
C           64.64232202571770        0.56463598905425        6.33308780088054
C           64.50705841399297        1.71327057941611        2.14574815934834
C           65.78275699333547        2.17483485712197        2.62387813171665
C           66.73114978343096        1.64423881961510        1.81192226224584
C           66.04624637756635        0.85601047860355        0.82509028342633
N           64.70186587348753        0.92031348948078        1.05321991825142
N           61.80736738001293        0.82285998752447        1.13385975019432
C           63.24163857493262       -2.94521365299539       -4.04500650712937
C           62.89291946852528       -4.29584931855807       -3.91421144954032
O           62.57791006297939       -4.70861230569984       -2.65739356175440
C           62.19571437580272       -6.04798755297676       -2.41922620443145
C           62.89391237698896       -5.13615449518700       -5.02711560512127
C           63.23959463274777       -4.62128962720945       -6.26741242862923
C           63.58608779147543       -3.28747977041091       -6.42188415537817
C           63.58917199797260       -2.44851122037230       -5.30793466745942
O           63.90657143874831       -1.12693177123239       -5.35953715763820
C           64.28150404499257       -0.52928381328348       -6.58377530736330
H           67.74574598017331        0.18786770914696       -0.23446213666267
H           67.78886877821019       -1.39939529543537       -2.32988513257504
H           65.90273559730142       -2.61913823965434       -3.80163830429746
H           60.58885023586910       -2.76826350761662       -3.68092527246469
H           58.70521578404342       -1.68954808803201       -2.10186431312037
H           58.72538161206145        1.37834891801909        2.20867776967878
H           60.62048493576816        2.56592045859563        3.69297255791852
H           62.67748298911200        6.71450535215762        2.60521109774574
H           61.62627134586311        6.02867476066223        1.33840507579660
H           61.02659480363826        6.15836815316855        3.01285008677689
H           62.48605106322983        6.09870552730988        4.87851616571320
H           63.29564553362677        5.21466238743815        7.01989856638232
H           64.09203348751669        2.90150169798921        7.21353103811559
H           64.91474319735360       -0.46146015482199        6.07888567723747
H           65.53080322102620        1.09181889631071        6.70160238255259
H           63.87792707935526        0.54953983193682        7.11956603034244
H           65.92680055064066        2.82368742961755        3.47317215280894
H           67.80153766052922        1.77052242549987        1.86434375558794
H           61.98458230021900       -6.11837076788226       -1.35051298340689
H           63.00140245540213       -6.74752507991503       -2.67356327616869
H           61.29319201071591       -6.31451634043131       -2.98261918686847
H           62.63022855819273       -6.18133909590179       -4.93566662190671
H           63.23889690706815       -5.27429574318078       -7.13328960707572
H           63.84895330954667       -2.91254469500642       -7.40201879551337
H           63.47107602476104       -0.58027905861220       -7.32116080518560
H           64.49516082623269        0.51726530195987       -6.35843754499829
H           65.18100073988349       -0.99817236375763       -7.00116061542332
C           30.84576646495944       -0.04599152711792        0.03325471219051
C           32.07069053610554       -0.05551728197856        0.03257797845177
C           33.41359224238750       -0.06271424813909        0.02729653629296
C           34.64460448412186       -0.06415778158267        0.01944561995970
C           35.98279891124367       -0.06154965573699        0.01090514219632
C           37.21377302797695       -0.05506894372498        0.00407841185017
C           38.55654066943388       -0.04966993812485        0.00069127767865
C           39.78164791480759       -0.04347449844779       -0.00132210642199
C           49.47800181357628       -0.10032333585302        0.05387652353477
C           50.70307028375655       -0.11912612963843        0.06187440281922
C           52.04556587644841       -0.13590247667543        0.06845504013260
C           53.27652149943755       -0.15079013149987        0.07453104625005
C           54.61454890199901       -0.15960478328216        0.07297021989418
C           55.84564115728064       -0.16093348939629        0.06895970170810
C           57.18833275673150       -0.15394980892748        0.05814747333156
C           58.41319165309497       -0.13918865618834        0.04293962361848
Zn          44.62999520483756       -0.04722849761401        0.02481853581278
C           41.18625599509080       -0.03953173897391        0.00468278234846
C           41.82439394931079       -0.03632753715623        1.26217446402574
C           41.14142767870170       -0.04852640021794        2.52272709086316
C           42.09428589902984       -0.04028263058275        3.48962998960498
C           43.36838725840796       -0.01850296222635        2.82797379831366
N           43.16695087500173       -0.02099029156854        1.47356156583814
C           44.61001060646490       -0.01570516886333        3.46901127945472
C           45.85911137018486       -0.02711198803441        2.84277930818639
C           47.12554245186624        0.00131238902205        3.51874137812059
C           48.08961823580135       -0.01732246378651        2.56311296853876
N           46.07625533867235       -0.05231996280723        1.49102680972609
C           47.42122224398945       -0.05112489390707        1.29521198535897
C           48.07374152121576       -0.08123322338383        0.04545650832485
C           47.43563992548234       -0.09180480024824       -1.21197818192758
C           48.11810023377205       -0.12916993577816       -2.47222975680441
C           47.16521290241489       -0.11849316129274       -3.43917497710590
C           45.89170076159413       -0.07127420127619       -2.77774296100420
C           44.65021534189867       -0.05786218568421       -3.41894800102647
C           44.66053577107987       -0.05196323461278       -4.91055052917526
C           44.24639774975626       -1.18166209097872       -5.62801970735716
O           43.85797705142322       -2.24957221271922       -4.88127169479320
C           43.40405029553893       -3.43256742085835       -5.50689623599855
C           44.25906360852994       -1.17542984492291       -7.02247992105385
C           44.68184487301728       -0.03790608033363       -7.69346878131390
C           45.09429463640410        1.09280729452730       -7.00477327331627
C           45.08569103555727        1.08491748435639       -5.61032452162325
O           45.46273968790285        2.14514786309317       -4.84704443258526
C           45.92955822875556        3.33315805061749       -5.45345047579879
C           43.40099066391232       -0.04931196100074       -2.79301671554051
C           42.13485292302389       -0.01590498525117       -3.46935329654485
C           41.17064798322146       -0.01376074017776       -2.51364923585285
C           41.83868269874294       -0.03837691641414       -1.24532974665093
N           43.18360068805333       -0.05645222843296       -1.44102833015370
N           46.09334804876140       -0.06108019963622       -1.42342087483776
C           44.60100817412570       -0.00207154446061        4.96042498006602
C           45.00918620846227       -1.13163520085332        5.68177864517175
O           45.38988878036011       -2.20478017427693        4.93862089421103
C           45.84173808636115       -3.38679252160768        5.56761500088625
C           44.99823764040614       -1.12010888391896        7.07617301646424
C           44.58325584998023        0.02254809263234        7.74332122206796
C           44.17696145283479        1.15318243787289        7.05081529166111
C           44.18377421830401        1.14000826676314        5.65639246447983
O           43.81261362187865        2.19979341835275        4.88953953237163
C           43.35182417866680        3.39220521253178        5.49183522424136
H           40.06979927496495       -0.06457133108205        2.64364518771101
H           41.95103590388422       -0.05021320262579        4.55821670344759
H           47.25643668673136        0.03249411090380        4.58850251523458
H           49.15988437583612       -0.00596732669681        2.69610317831779
H           49.18941271499261       -0.16164174121612       -2.59283939361211
H           47.30792518829031       -0.14311816656521       -4.50762780836070
H           42.51665633599607       -3.24557905379399       -6.12376457735074
H           43.14170580405031       -4.12091110194170       -4.70130061442529
H           44.18733136135823       -3.88577146096947       -6.12666857171826
H           43.94510842120709       -2.04398792101325       -7.58578066838148
H           44.69011677355780       -0.03247220673928       -8.77792279257301
H           45.41678671237536        1.96697589831076       -7.55441832249396
H           46.18058308117817        4.01275837460141       -4.63689129103160
H           45.15750797849237        3.79463410998641       -6.08115994624533
H           46.82631332182538        3.15000807599519       -6.05779159572102
H           42.00433504558711        0.00377352068647       -4.53944516688343
H           40.10050876051166        0.00696722144499       -2.64669337592364
H           45.05841057389253       -3.83574174186747        6.19041287442781
H           46.10073072782519       -4.07864169619094        4.76392327379524
H           46.73081096881427       -3.20002452522349        6.18211867966598
H           45.30739893200731       -1.98855963028590        7.64228984856231
H           44.57627429785175        0.03211443587720        8.82775278731434
H           43.86066452603109        2.03145142460141        7.59752453137965
H           44.12667229751123        3.85272735119391        6.11679793135046
H           42.45499377225178        3.21538589516833        6.09795702595962
H           43.10279583123201        4.06968451852892        4.67290032666917

          :  Hamiltonian                  GFN1-xTB          :
         :: total energy            -402.001853371470 Eh    ::
         :: gradient norm              0.000543589256 Eh/a0 ::
         :: HOMO-LUMO gap              0.982840453859 eV    ::
         :: SCC energy              -407.964241067844 Eh    ::
         :: repulsion energy           6.162293132320 Eh    ::

    * Orbital Energies and Occupations

         #    Occupation            Energy/Eh            Energy/eV
      -------------------------------------------------------------
         1        2.0000           -0.8042988             -21.8861
       ...           ...                  ...                  ...
       345        2.0000           -0.4055881             -11.0366
       346        2.0000           -0.4050754             -11.0227
       347        2.0000           -0.4049862             -11.0202
       348        2.0000           -0.4001734             -10.8893
       349        2.0000           -0.3943403             -10.7305
       350        2.0000           -0.3925860             -10.6828
       351        2.0000           -0.3905083             -10.6263
       352        2.0000           -0.3789081             -10.3106
       353        2.0000           -0.3779189             -10.2837
       354        2.0000           -0.3778879             -10.2829
       355        2.0000           -0.3695456             -10.0558
       356        2.0000           -0.3658546              -9.9554
       357        2.0000           -0.3609279              -9.8213 (HOMO)
       358                         -0.3248092              -8.8385 (LUMO)
       359                         -0.3173092              -8.6344
       360                         -0.3137898              -8.5387
       361                         -0.3107707              -8.4565
       362                         -0.3099828              -8.4351
       363                         -0.3099295              -8.4336
       364                         -0.2921517              -7.9499
       365                         -0.2843325              -7.7371
       366                         -0.2842869              -7.7358
       367                         -0.2778757              -7.5614
       368                         -0.2730635              -7.4304
       ...                                ...                  ...
       764                          1.6195365              44.0698
      -------------------------------------------------------------
                  HL-Gap            0.0361187 Eh            0.9828 eV

Wiberg/Mayer (AO) data.
largest (>0.10) Wiberg bond orders for each atom

     #   Z sym  total        # sym  WBO       # sym  WBO       # sym  WBO
 ---------------------------------------------------------------------------
     1  30 Zn   1.998 --    34 N    0.460     7 N    0.460    35 N    0.457
                            12 N    0.456
     2   6 C    3.927 --    33 C    1.357     3 C    1.357    46 H    0.972
     3   6 C    3.924 --     2 C    1.357     7 N    1.235     4 C    1.170
     4   6 C    3.960 --     5 C    1.660     3 C    1.170    47 H    0.976
     5   6 C    3.964 --     4 C    1.660     6 C    1.173    48 H    0.975
     6   6 C    3.917 --     8 C    1.318     7 N    1.243     5 C    1.173
     7   7 N    3.296 --     6 C    1.243     3 C    1.235     1 Zn   0.460
     8   6 C    3.934 --     9 C    1.334     6 C    1.318    36 C    1.011
     9   6 C    3.912 --     8 C    1.334    12 N    1.221    10 C    1.177
    10   6 C    3.961 --    11 C    1.650     9 C    1.177    49 H    0.975
    11   6 C    3.962 --    10 C    1.650    13 C    1.183    50 H    0.974
    12   7 N    3.298 --    13 C    1.267     9 C    1.221     1 Zn   0.456
    13   6 C    3.903 --    12 N    1.267    14 C    1.252    11 C    1.183
    14   6 C    3.939 --    15 C    1.252    13 C    1.252   145 C    1.193
    15   6 C    3.903 --    35 N    1.267    14 C    1.252    16 C    1.183
    16   6 C    3.962 --    17 C    1.650    15 C    1.183    51 H    0.974
    17   6 C    3.961 --    16 C    1.650    18 C    1.177    52 H    0.975
    18   6 C    3.912 --    19 C    1.334    35 N    1.221    17 C    1.177
    19   6 C    3.934 --    18 C    1.334    30 C    1.317    20 C    1.013
    20   6 C    3.978 --    27 C    1.344    21 C    1.344    19 C    1.013
                            25 C    0.101
    21   6 C    3.903 --    24 C    1.362    20 C    1.344    22 O    1.030
    22   8 O    2.143 --    21 C    1.030    23 C    0.936
    23   6 C    3.908 --    54 H    0.983    53 H    0.980    55 H    0.980
                            22 O    0.936
    24   6 C    3.983 --    25 C    1.442    21 C    1.362    56 H    0.969
    25   6 C    3.993 --    24 C    1.442    26 C    1.442    57 H    0.974
                            20 C    0.101
    26   6 C    3.983 --    25 C    1.442    27 C    1.362    58 H    0.969
    27   6 C    3.903 --    26 C    1.362    20 C    1.344    28 O    1.029
    28   8 O    2.143 --    27 C    1.029    29 C    0.936
    29   6 C    3.908 --    59 H    0.983    60 H    0.980    61 H    0.980
                            28 O    0.936
    30   6 C    3.917 --    19 C    1.317    34 N    1.243    31 C    1.173
    31   6 C    3.964 --    32 C    1.660    30 C    1.173    62 H    0.975
    32   6 C    3.960 --    31 C    1.660    33 C    1.170    63 H    0.976
    33   6 C    3.924 --     2 C    1.357    34 N    1.234    32 C    1.170
    34   7 N    3.296 --    30 C    1.243    33 C    1.234     1 Zn   0.460
    35   7 N    3.298 --    15 C    1.267    18 C    1.221     1 Zn   0.457
    36   6 C    3.978 --    43 C    1.345    37 C    1.345     8 C    1.011
                            41 C    0.101
    37   6 C    3.903 --    40 C    1.362    36 C    1.345    38 O    1.030
    38   8 O    2.143 --    37 C    1.030    39 C    0.936
    39   6 C    3.908 --    64 H    0.983    65 H    0.980    66 H    0.980
                            38 O    0.936
    40   6 C    3.983 --    41 C    1.442    37 C    1.362    67 H    0.969
    41   6 C    3.993 --    40 C    1.442    42 C    1.442    68 H    0.974
                            36 C    0.101
    42   6 C    3.983 --    41 C    1.442    43 C    1.362    69 H    0.969
    43   6 C    3.903 --    42 C    1.362    36 C    1.345    44 O    1.029
    44   8 O    2.143 --    43 C    1.029    45 C    0.936
    45   6 C    3.908 --    71 H    0.983    72 H    0.980    70 H    0.980
                            44 O    0.936
    46   1 H    1.002 --     2 C    0.972
    47   1 H    0.999 --     4 C    0.976
    48   1 H    1.002 --     5 C    0.975
    49   1 H    1.002 --    10 C    0.975
    50   1 H    1.003 --    11 C    0.974
    51   1 H    1.003 --    16 C    0.974
    52   1 H    1.002 --    17 C    0.975
    53   1 H    1.009 --    23 C    0.980
    54   1 H    1.016 --    23 C    0.983
    55   1 H    1.009 --    23 C    0.980
    56   1 H    1.000 --    24 C    0.969
    57   1 H    1.003 --    25 C    0.974
    58   1 H    1.000 --    26 C    0.969
    59   1 H    1.016 --    29 C    0.983
    60   1 H    1.009 --    29 C    0.980
    61   1 H    1.009 --    29 C    0.980
    62   1 H    1.003 --    31 C    0.975
    63   1 H    0.999 --    32 C    0.976
    64   1 H    1.016 --    39 C    0.983
    65   1 H    1.009 --    39 C    0.980
    66   1 H    1.009 --    39 C    0.980
    67   1 H    1.000 --    40 C    0.969
    68   1 H    1.003 --    41 C    0.974
    69   1 H    1.000 --    42 C    0.969
    70   1 H    1.009 --    45 C    0.980
    71   1 H    1.016 --    45 C    0.983
    72   1 H    1.009 --    45 C    0.980
    73  30 Zn   1.998 --   106 N    0.460    79 N    0.460   107 N    0.457
                            84 N    0.456
    74   6 C    3.927 --    75 C    1.357   105 C    1.357   118 H    0.972
    75   6 C    3.924 --    74 C    1.357    79 N    1.235    76 C    1.170
    76   6 C    3.960 --    77 C    1.660    75 C    1.170   119 H    0.976
    77   6 C    3.964 --    76 C    1.660    78 C    1.173   120 H    0.975
    78   6 C    3.917 --    80 C    1.317    79 N    1.243    77 C    1.173
    79   7 N    3.295 --    78 C    1.243    75 C    1.235    73 Zn   0.460
    80   6 C    3.933 --    81 C    1.333    78 C    1.317   108 C    1.013
    81   6 C    3.912 --    80 C    1.333    84 N    1.221    82 C    1.177
    82   6 C    3.960 --    83 C    1.650    81 C    1.177   121 H    0.975
    83   6 C    3.962 --    82 C    1.650    85 C    1.183   122 H    0.974
    84   7 N    3.298 --    85 C    1.267    81 C    1.221    73 Zn   0.456
    85   6 C    3.903 --    84 N    1.267    86 C    1.252    83 C    1.183
    86   6 C    3.939 --    85 C    1.252    87 C    1.252   160 C    1.194
    87   6 C    3.903 --   107 N    1.267    86 C    1.252    88 C    1.183
    88   6 C    3.962 --    89 C    1.650    87 C    1.183   123 H    0.974
    89   6 C    3.960 --    88 C    1.650    90 C    1.177   124 H    0.975
    90   6 C    3.912 --    91 C    1.334   107 N    1.220    89 C    1.177
    91   6 C    3.933 --    90 C    1.334   102 C    1.317    92 C    1.013
    92   6 C    3.978 --    99 C    1.344    93 C    1.344    91 C    1.013
                            97 C    0.101
    93   6 C    3.903 --    96 C    1.362    92 C    1.344    94 O    1.030
    94   8 O    2.143 --    93 C    1.030    95 C    0.936
    95   6 C    3.908 --   126 H    0.983   125 H    0.980   127 H    0.980
                            94 O    0.936
    96   6 C    3.983 --    97 C    1.442    93 C    1.362   128 H    0.969
    97   6 C    3.993 --    96 C    1.442    98 C    1.442   129 H    0.974
                            92 C    0.101
    98   6 C    3.983 --    97 C    1.442    99 C    1.362   130 H    0.969
    99   6 C    3.903 --    98 C    1.362    92 C    1.344   100 O    1.029
   100   8 O    2.143 --    99 C    1.029   101 C    0.936
   101   6 C    3.908 --   131 H    0.983   132 H    0.980   133 H    0.980
                           100 O    0.936
   102   6 C    3.917 --    91 C    1.317   106 N    1.243   103 C    1.173
   103   6 C    3.964 --   104 C    1.659   102 C    1.173   134 H    0.975
   104   6 C    3.960 --   103 C    1.659   105 C    1.170   135 H    0.976
   105   6 C    3.924 --    74 C    1.357   106 N    1.234   104 C    1.170
   106   7 N    3.296 --   102 C    1.243   105 C    1.234    73 Zn   0.460
   107   7 N    3.298 --    87 C    1.267    90 C    1.220    73 Zn   0.457
   108   6 C    3.978 --   115 C    1.344   109 C    1.344    80 C    1.013
                           113 C    0.101
   109   6 C    3.903 --   112 C    1.362   108 C    1.344   110 O    1.030
   110   8 O    2.143 --   109 C    1.030   111 C    0.936
   111   6 C    3.908 --   136 H    0.983   138 H    0.980   137 H    0.980
                           110 O    0.936
   112   6 C    3.983 --   113 C    1.442   109 C    1.362   139 H    0.969
   113   6 C    3.993 --   112 C    1.442   114 C    1.442   140 H    0.974
                           108 C    0.101
   114   6 C    3.983 --   113 C    1.442   115 C    1.362   141 H    0.969
   115   6 C    3.903 --   114 C    1.362   108 C    1.344   116 O    1.029
   116   8 O    2.143 --   115 C    1.029   117 C    0.936
   117   6 C    3.908 --   143 H    0.983   144 H    0.980   142 H    0.980
                           116 O    0.936
   118   1 H    1.002 --    74 C    0.972
   119   1 H    0.999 --    76 C    0.976
   120   1 H    1.003 --    77 C    0.975
   121   1 H    1.002 --    82 C    0.975
   122   1 H    1.003 --    83 C    0.974
   123   1 H    1.003 --    88 C    0.974
   124   1 H    1.002 --    89 C    0.975
   125   1 H    1.009 --    95 C    0.980
   126   1 H    1.016 --    95 C    0.983
   127   1 H    1.009 --    95 C    0.980
   128   1 H    1.000 --    96 C    0.969
   129   1 H    1.003 --    97 C    0.974
   130   1 H    1.000 --    98 C    0.969
   131   1 H    1.016 --   101 C    0.983
   132   1 H    1.009 --   101 C    0.980
   133   1 H    1.009 --   101 C    0.980
   134   1 H    1.003 --   103 C    0.975
   135   1 H    0.999 --   104 C    0.976
   136   1 H    1.016 --   111 C    0.983
   137   1 H    1.009 --   111 C    0.980
   138   1 H    1.009 --   111 C    0.980
   139   1 H    1.000 --   112 C    0.969
   140   1 H    1.003 --   113 C    0.974
   141   1 H    1.000 --   114 C    0.969
   142   1 H    1.009 --   117 C    0.980
   143   1 H    1.016 --   117 C    0.983
   144   1 H    1.009 --   117 C    0.980
   145   6 C    3.875 --   146 C    2.437    14 C    1.193   148 C    0.186
   146   6 C    3.934 --   145 C    2.437   147 C    1.344
   147   6 C    3.891 --   148 C    2.335   146 C    1.344   150 C    0.182
   148   6 C    3.924 --   147 C    2.335   149 C    1.369   145 C    0.186
   149   6 C    3.923 --   150 C    2.334   148 C    1.369   152 C    0.186
   150   6 C    3.892 --   149 C    2.334   151 C    1.345   147 C    0.182
   151   6 C    3.931 --   152 C    2.435   150 C    1.345
   152   6 C    3.876 --   151 C    2.435   162 C    1.195   149 C    0.186
   153   6 C    3.876 --   154 C    2.434   174 C    1.196   156 C    0.186
   154   6 C    3.931 --   153 C    2.434   155 C    1.346
   155   6 C    3.892 --   156 C    2.333   154 C    1.346   158 C    0.182
   156   6 C    3.923 --   155 C    2.333   157 C    1.370   153 C    0.186
   157   6 C    3.924 --   158 C    2.334   156 C    1.370   160 C    0.186
   158   6 C    3.891 --   157 C    2.334   159 C    1.345   155 C    0.182
   159   6 C    3.934 --   160 C    2.436   158 C    1.345
   160   6 C    3.875 --   159 C    2.436    86 C    1.194   157 C    0.186
   161  30 Zn   1.994 --   195 N    0.457   167 N    0.457   194 N    0.456
                           172 N    0.456
   162   6 C    3.927 --   193 C    1.250   163 C    1.250   152 C    1.195
   163   6 C    3.903 --   167 N    1.266   162 C    1.250   164 C    1.186
   164   6 C    3.960 --   165 C    1.646   163 C    1.186   206 H    0.974
   165   6 C    3.961 --   164 C    1.646   166 C    1.181   207 H    0.975
   166   6 C    3.909 --   168 C    1.326   167 N    1.222   165 C    1.181
   167   7 N    3.293 --   163 C    1.266   166 C    1.222   161 Zn   0.457
   168   6 C    3.929 --   166 C    1.326   169 C    1.326   196 C    1.014
   169   6 C    3.909 --   168 C    1.326   172 N    1.222   170 C    1.181
   170   6 C    3.961 --   171 C    1.646   169 C    1.181   208 H    0.975
   171   6 C    3.960 --   170 C    1.646   173 C    1.186   209 H    0.974
   172   7 N    3.293 --   173 C    1.266   169 C    1.222   161 Zn   0.456
   173   6 C    3.903 --   172 N    1.266   174 C    1.250   171 C    1.186
   174   6 C    3.927 --   175 C    1.250   173 C    1.250   153 C    1.196
   175   6 C    3.903 --   195 N    1.266   174 C    1.250   176 C    1.186
   176   6 C    3.960 --   177 C    1.646   175 C    1.186   210 H    0.974
   177   6 C    3.961 --   176 C    1.646   178 C    1.181   211 H    0.975
   178   6 C    3.909 --   179 C    1.326   195 N    1.222   177 C    1.181
   179   6 C    3.929 --   190 C    1.326   178 C    1.326   180 C    1.013
   180   6 C    3.977 --   181 C    1.344   187 C    1.344   179 C    1.013
                           185 C    0.101
   181   6 C    3.903 --   184 C    1.362   180 C    1.344   182 O    1.030
   182   8 O    2.143 --   181 C    1.030   183 C    0.936
   183   6 C    3.908 --   213 H    0.983   212 H    0.980   214 H    0.980
                           182 O    0.936
   184   6 C    3.983 --   185 C    1.442   181 C    1.362   215 H    0.969
   185   6 C    3.993 --   184 C    1.442   186 C    1.442   216 H    0.974
                           180 C    0.101
   186   6 C    3.983 --   185 C    1.442   187 C    1.362   217 H    0.969
   187   6 C    3.903 --   186 C    1.362   180 C    1.344   188 O    1.030
   188   8 O    2.143 --   187 C    1.030   189 C    0.936
   189   6 C    3.908 --   218 H    0.983   220 H    0.980   219 H    0.980
                           188 O    0.936
   190   6 C    3.909 --   179 C    1.326   194 N    1.222   191 C    1.181
   191   6 C    3.961 --   192 C    1.646   190 C    1.181   221 H    0.975
   192   6 C    3.960 --   191 C    1.646   193 C    1.186   222 H    0.974
   193   6 C    3.903 --   194 N    1.266   162 C    1.250   192 C    1.186
   194   7 N    3.293 --   193 C    1.266   190 C    1.222   161 Zn   0.456
   195   7 N    3.293 --   175 C    1.266   178 C    1.222   161 Zn   0.457
   196   6 C    3.977 --   203 C    1.344   197 C    1.344   168 C    1.014
                           201 C    0.101
   197   6 C    3.903 --   200 C    1.362   196 C    1.344   198 O    1.030
   198   8 O    2.143 --   197 C    1.030   199 C    0.936
   199   6 C    3.908 --   224 H    0.983   225 H    0.980   223 H    0.980
                           198 O    0.936
   200   6 C    3.983 --   201 C    1.442   197 C    1.362   226 H    0.969
   201   6 C    3.993 --   200 C    1.442   202 C    1.442   227 H    0.974
                           196 C    0.101
   202   6 C    3.983 --   201 C    1.442   203 C    1.362   228 H    0.969
   203   6 C    3.903 --   202 C    1.362   196 C    1.344   204 O    1.030
   204   8 O    2.143 --   203 C    1.030   205 C    0.936
   205   6 C    3.908 --   231 H    0.983   230 H    0.980   229 H    0.980
                           204 O    0.936
   206   1 H    1.003 --   164 C    0.974
   207   1 H    1.002 --   165 C    0.975
   208   1 H    1.002 --   170 C    0.975
   209   1 H    1.003 --   171 C    0.974
   210   1 H    1.003 --   176 C    0.974
   211   1 H    1.002 --   177 C    0.975
   212   1 H    1.009 --   183 C    0.980
   213   1 H    1.016 --   183 C    0.983
   214   1 H    1.009 --   183 C    0.980
   215   1 H    1.000 --   184 C    0.969
   216   1 H    1.003 --   185 C    0.974
   217   1 H    1.000 --   186 C    0.969
   218   1 H    1.016 --   189 C    0.983
   219   1 H    1.009 --   189 C    0.980
   220   1 H    1.009 --   189 C    0.980
   221   1 H    1.002 --   191 C    0.975
   222   1 H    1.003 --   192 C    0.974
   223   1 H    1.009 --   199 C    0.980
   224   1 H    1.016 --   199 C    0.983
   225   1 H    1.009 --   199 C    0.980
   226   1 H    1.000 --   200 C    0.969
   227   1 H    1.003 --   201 C    0.974
   228   1 H    1.000 --   202 C    0.969
   229   1 H    1.009 --   205 C    0.980
   230   1 H    1.009 --   205 C    0.980
   231   1 H    1.016 --   205 C    0.983
 ---------------------------------------------------------------------------

           -------------------------------------------------
          | TOTAL ENERGY             -402.001853371470 Eh   |
          | GRADIENT NORM               0.000543589256 Eh/α |
          | HOMO-LUMO GAP               0.982840453859 eV   |
           -------------------------------------------------

 * finished run on 2022/07/30 at 15:27:19.085
