   * xtb version 6.5.1 (b24c23e) compiled by 'conda@728c89f4b128' on 2022-07-12
          program call               : xtb Zn_p-CP_C2_3.xyz --gfn 1 --opt -T 48

   ID    Z sym.   atoms
    1   30 Zn     1, 63, 129
    2    6 C      2-6, 8-11, 13-24, 27-32, 35-39, 42, 43, 64-68, 70-73,
                  75-86, 89-94, 97-101, 104, 105, 125-128, 130-134, 136-139,
                  141-152, 155-160, 163-167, 170, 171
    3    7 N      7, 12, 33, 34, 69, 74, 95, 96, 135, 140, 161, 162
    4    8 O      25, 26, 40, 41, 87, 88, 102, 103, 153, 154, 168, 169
    5    1 H      44-62, 106-124, 172-189
########################################################################
[WARNING] Please study the warnings concerning your input carefully
-1- prog_main_parseArguments: Unknown option '-T' provided
########################################################################

          :  Hamiltonian                  GFN1-xTB          :
 * total energy  :  -350.4970397 Eh     change       -0.9962946E-09 Eh
 * total energy  :  -351.0663498 Eh     change       -0.5693102E+00 Eh
 * total energy  :  -351.2220438 Eh     change       -0.1556940E+00 Eh
 * total energy  :  -351.2969057 Eh     change       -0.7486186E-01 Eh
 * total energy  :  -351.3237552 Eh     change       -0.2684949E-01 Eh
 * total energy  :  -351.3353213 Eh     change       -0.1156613E-01 Eh
 * total energy  :  -351.3409893 Eh     change       -0.5667992E-02 Eh
 * total energy  :  -351.3446590 Eh     change       -0.3669675E-02 Eh
 * total energy  :  -351.3470294 Eh     change       -0.2370456E-02 Eh
 * total energy  :  -351.3485923 Eh     change       -0.1562888E-02 Eh
 * total energy  :  -351.3568278 Eh     change       -0.1448724E-04 Eh
 * total energy  :  -351.3568371 Eh     change       -0.9297548E-05 Eh
 * total energy  :  -351.3568474 Eh     change       -0.1024241E-04 Eh
 * total energy  :  -351.3568540 Eh     change       -0.6580495E-05 Eh
 * total energy  :  -351.3568613 Eh     change       -0.7326142E-05 Eh
 * total energy  :  -351.3568672 Eh     change       -0.5922670E-05 Eh
 * total energy  :  -351.3568735 Eh     change       -0.6308447E-05 Eh
 * total energy  :  -351.3568788 Eh     change       -0.5261413E-05 Eh
 * total energy  :  -351.3568828 Eh     change       -0.4030676E-05 Eh
   *** GEOMETRY OPTIMIZATION CONVERGED AFTER 49 ITERATIONS ***

 final structure:
================
189
 xtb: 6.5.1 (b24c23e)
Zn          38.51804037122494       -0.05178431447906        0.01774239891889
C           35.11175676911780       -0.11991586949784        0.03841065899622
C           35.73863160041292       -0.16653473924307        1.27766106744034
C           35.06132697956009       -0.20422630508359        2.54395666699841
C           36.01743571844601       -0.22182298841989        3.50541754568049
C           37.29266062167467       -0.20539009496833        2.83738202486653
N           37.08758391603617       -0.16498804404780        1.48934104596733
C           38.54194105288283       -0.19533277498577        3.46892897318200
C           39.78284009604382       -0.13986349349501        2.82305612385351
C           41.06226890421983       -0.18533508333488        3.47734368602293
C           42.00971806483018       -0.13262376214413        2.50736066393307
N           39.97675108743828       -0.07148609204611        1.47125687233355
C           41.32090405388693       -0.06096913033273        1.25120837763437
C           41.94842931730588        0.00343881065867       -0.00361946113497
C           41.30340762297536        0.05817123177074       -1.24987406586839
C           41.97504605826135        0.09631384448325       -2.51678488984658
C           41.01447348519282        0.12890612033004       -3.47466987083943
C           39.74402145312821        0.11898835071299       -2.80157032921553
C           38.49404010751613        0.12211437371847       -3.43240052472126
C           38.48319815222900        0.19767703131844       -4.91353387674661
C           37.93491974225262       -0.84119222440982       -5.67087170452778
C           37.92631558374084       -0.77040743424113       -7.05152109000512
C           38.46128711713357        0.34316714026210       -7.70243825662125
C           38.42574205572208        0.37462117051460       -9.18337559192135
O           38.96990127962649        1.48235384397553       -9.71109175819639
O           37.95898197539031       -0.49703344532429       -9.87227241716681
C           39.00829023613187        1.38429449456446       -6.95141119746986
C           39.02029108602371        1.30842178326111       -5.56970730473751
C           37.25364307837769        0.05718497372694       -2.78641661233206
C           35.96918828779197        0.10463501622774       -3.43501149782338
C           35.02654904301399        0.03313432153868       -2.46276277140243
C           35.72147392148640       -0.04861907265049       -1.20817740116362
N           37.06737651681835       -0.02751740725569       -1.43774932508329
N           39.95643323167653        0.06856020669284       -1.45175758084810
C           38.55169721988010       -0.24235487258432        4.95150130735616
C           38.02426592751913       -1.34392181075060        5.63056291224811
C           38.03131388002594       -1.38127680920962        7.01270454765957
C           38.56045478922896       -0.31522691185968        7.74296492241019
C           38.53790989972366       -0.39735445102596        9.22232099524623
O           39.07200239521895        0.67483883549329        9.82827319318510
O           38.08887564854791       -1.32507597973324        9.84640434260080
C           39.08830442379286        0.78734877422569        7.07001763252900
C           39.08551520912524        0.81938037719302        5.68666541530160
H           34.02618107563064       -0.12840284694804        0.04544812583394
H           33.98986074758318       -0.20824075344775        2.66890960450161
H           35.87700468029099       -0.23301863187873        4.57442662395219
H           41.21347735900204       -0.26209522946330        4.54206985695976
H           43.08188764068808       -0.14615969114827        2.62284459140974
H           43.04548375605656        0.09045173685797       -2.64796943635172
H           41.15174664613689        0.14364760194880       -4.54393802842252
H           37.53071634086288       -1.71237573423667       -5.16788269582784
H           37.50764688767548       -1.57569764998194       -7.64514930460819
H           38.90674707369681        1.42404978504474      -10.67819223314690
H           39.42127046964483        2.25206005218303       -7.45211552652069
H           39.43411681511023        2.12327666323669       -4.98624611336942
H           35.81344824416620        0.19452390814284       -4.49815841994246
H           33.95345630879373        0.04176706914825       -2.57266363158278
H           37.62323459970006       -2.17769157580692        5.06544577163914
H           37.62815511583042       -2.23513380177395        7.54614659463815
H           39.01685516259305        0.54363002867814       10.78865032237518
H           39.49749045396782        1.61812128729210        7.63263081307849
H           39.48427213537038        1.68161214521669        5.16404476451325
Zn          60.34693045019441       -0.03348706698227       -0.05338648584211
C           63.75359413617918       -0.11056847207905       -0.08815579312733
C           63.12482591869271        0.00052350627818       -1.32230388330201
C           63.80028808251087        0.11771066571735       -2.58467830053716
C           62.84286866233038        0.22689405960223       -3.53878303691451
C           61.56861566273616        0.16842759348520       -2.87119779603571
N           61.77559071826014        0.03717002358186       -1.52933942973689
C           60.31894507151509        0.27060885984703       -3.49387405698648
C           59.07898721047034        0.25958210544825       -2.84373958015033
C           57.79871170920778        0.31655975484204       -3.49539284214718
C           56.85248863309329        0.25153210948158       -2.52491624450829
N           58.88651661756722        0.15133539757285       -1.49422941421642
C           57.54265690567951        0.14586658371689       -1.27200127988524
C           56.91588959594530        0.02795583010254       -0.02039966204444
C           57.56261773853754       -0.10267251303632        1.21945159017664
C           56.89320170107005       -0.24113215272670        2.48051213182191
C           57.85538225419248       -0.33068684509399        3.43318900223926
C           59.12455026752558       -0.24199844751569        2.76356589491287
C           60.37542076382678       -0.30961930205683        3.38898027022574
C           60.38787775496819       -0.41477999433840        4.86836215845279
C           60.94327682107803       -1.53364142035882        5.49512743083633
C           60.95485127820900       -1.62797026887842        6.87440248356067
C           60.41601575337786       -0.60280277230922        7.65448622646863
C           60.45508404538324       -0.74794890386724        9.12864292229423
O           59.90802865276732        0.28668636812557        9.78550798625637
O           60.92682799731065       -1.69370704883257        9.70762287038138
C           59.86174628741505        0.51749937589043        7.03413292908530
C           59.84650234461532        0.60677810382982        5.65328731016303
C           61.61534407981024       -0.28608437774358        2.73940622890830
C           62.90059393781512       -0.31773363582163        3.38743045624392
C           63.84203200851107       -0.26785114734706        2.41269687410239
C           63.14554207535166       -0.19336871205030        1.15851961404666
N           61.79995780598627       -0.20138103885002        1.39050271073341
N           58.90993236371987       -0.11392361303848        1.41922511753857
C           60.30817554185285        0.40082733691533       -4.97132495459531
C           60.82538545047658       -0.61892952771036       -5.77494064508350
C           60.81375218585620       -0.49719401963934       -7.15206984083475
C           60.28993665347726        0.64943400332302       -7.75271630247372
C           60.30222337321756        0.73542294131046       -9.23181705866295
O           59.77369191403150        1.87332771883919       -9.70868043985426
O           60.73896279085034       -0.11955535235953       -9.96038036311725
C           59.77475318698031        1.67198962238002       -6.95512290528675
C           59.78240528232610        1.54492146535031       -5.57719416980226
H           64.83911664274190       -0.12183144245844       -0.09809081849695
H           64.87155319936898        0.12265742784151       -2.71136308111919
H           62.98190501686447        0.34965026716891       -4.60097301082460
H           57.64549910475306        0.38316587962559       -4.56050512520557
H           55.78018721035492        0.26558485129125       -2.63918000737956
H           55.82305738924057       -0.27079109280905        2.61080156858010
H           57.72048341651314       -0.45979117577548        4.49504113221128
H           61.35093182150057       -2.33634224626502        4.89111273012286
H           61.37920001826340       -2.49601905407495        7.36691896255015
H           59.97279133706587        0.11371774528028       10.73870440301452
H           59.44584133715955        1.31722125454425        7.63556321506570
H           59.42689410834895        1.48302144208199        5.17185765950735
H           63.05775087871182       -0.36019144597170        4.45330114146891
H           64.91526336806496       -0.27255498251846        2.52146921841175
H           61.22135511302642       -1.51523676046905       -5.31103052629026
H           61.20804834852865       -1.28726494210126       -7.78171298093008
H           59.82153123169992        1.85092894411832      -10.67813350638767
H           59.37104161033981        2.56530732571797       -7.41679426292412
H           59.39321410634748        2.34492302784796       -4.95747063327301
C           43.36650373609796        0.00533652639518       -0.01296877206127
C           44.58073415909563        0.00639232018486       -0.01938789659078
C           54.28357360336125        0.03219195873057       -0.00660789895862
C           55.49794123180758        0.03076501166479       -0.01023798759918
Zn          49.43178930922214        0.01902252585495       -0.01218751008759
C           45.99875156374775        0.00938469755341       -0.02123092282216
C           46.64019382182782       -1.23870610370715        0.03406043090788
C           45.96492644884084       -2.50392733019451        0.05184651302831
C           46.92224571190744       -3.46406180404763        0.10601570194038
C           48.19352974319383       -2.79356819565203        0.13344822786484
N           47.98596982146785       -1.44305214631437        0.07753941993137
C           49.44143591689557       -3.42521131153549        0.18468105798962
C           50.68557389989541       -2.78403758936867        0.16983317546656
C           51.95971145976591       -3.43990092181125        0.28186891940862
C           52.91201318872993       -2.47434923713516        0.23301873681364
N           50.88619165772298       -1.43500440969319        0.07197635177793
C           52.23074860935125       -1.21944885546168        0.09913904119542
C           52.86566764719544        0.02915996345297       -0.00505667157764
C           52.22387504994179        1.27398080046917       -0.11035026186965
C           52.89870744374182        2.53315917459967       -0.23785650950562
C           51.94120871282369        3.49338518643745       -0.28970821174814
C           50.67025240648565        2.82997520295603       -0.18710790054831
C           49.42251839613629        3.46349446802418       -0.21101671075327
C           49.41828924245541        4.94506329754481       -0.28495720376038
C           49.98423105307787        5.70555001034949        0.74191881992881
C           49.97398858444345        7.08648888041911        0.67567221501743
C           49.40281688805368        7.73410743201550       -0.42171470043430
C           49.41854088604251        9.21552074954860       -0.44932536872118
O           48.84096195284060        9.73899650869393       -1.54174427325815
O           49.89735447664768        9.90780170569736        0.41291965246836
C           48.83961293721427        6.97963444209012       -1.45156641768808
C           48.84613820604726        5.59768033100076       -1.37993167382665
C           48.17790144745055        2.82462590827929       -0.16929274072418
C           46.90277126817117        3.48794774514179       -0.14968498242684
C           45.95064848285492        2.52237817891432       -0.09932885197708
C           46.63300983106874        1.26107522416101       -0.07625666122588
N           47.97784223289831        1.47314551582337       -0.11433417880273
N           50.87797590992756        1.48183826443530       -0.09045687400504
C           49.44603008877959       -4.90667265289918        0.25972355783830
C           48.86706475724979       -5.56338530581463        1.34898468760638
C           48.87268092635810       -6.94435412809952        1.41558523254536
C           49.45282993743847       -7.69592927922057        0.39170314466226
C           49.43111355345112       -9.17332431133670        0.50637555320468
O           50.01881512669529       -9.80106751552399       -0.52379619578428
O           48.93981393659992       -9.77756566656227        1.42588185024666
C           50.03052314469124       -7.04548556279154       -0.69922417682158
C           50.02824516609684       -5.66301378628959       -0.76080315325439
H           44.89467696968567       -2.63210383462293        0.01862736725272
H           46.78247019790590       -4.53299371476261        0.11497470772289
H           52.10399429435041       -4.50215419244896        0.39626374365303
H           53.98252760261578       -2.59214456759076        0.28858919319320
H           53.96886179438221        2.65710959625011       -0.28681527074646
H           52.08025503325557        4.55681619951084       -0.39997333873354
H           50.41742680135405        5.20516827544693        1.60061894544995
H           50.40520951070292        7.68283339735725        1.47228202358735
H           48.89246098201676       10.70670705247745       -1.48244065282366
H           48.39923192823102        7.47782520793260       -2.30719321483790
H           48.41885954190153        5.01159483964687       -2.18585813982333
H           46.75667997418049        4.55606388012908       -0.16063543116685
H           44.87951223406521        2.64459935289053       -0.07186528199362
H           48.42683620413230       -4.98161655254922        2.15091608678499
H           48.42997096671317       -7.46023239414655        2.26058682717002
H           49.96284549468798      -10.75849459089164       -0.37224960205411
H           50.47829042585924       -7.62491670588845       -1.49796420114673
H           50.46627703086231       -5.15829793412109       -1.61460367157917

          :  Hamiltonian                  GFN1-xTB          :
         :: total energy            -351.356882809033 Eh    ::
         :: gradient norm              0.000835033235 Eh/a0 ::
         :: HOMO-LUMO gap              1.339104856116 eV    ::
         :: SCC energy              -356.386510949496 Eh    ::
         :: repulsion energy           5.201736785748 Eh    ::

    * Orbital Energies and Occupations

         #    Occupation            Energy/Eh            Energy/eV
      -------------------------------------------------------------
         1        2.0000           -0.8328648             -22.6634
       ...           ...                  ...                  ...
       297        2.0000           -0.4296193             -11.6905
       298        2.0000           -0.4295625             -11.6890
       299        2.0000           -0.4293634             -11.6836
       300        2.0000           -0.4293309             -11.6827
       301        2.0000           -0.4291071             -11.6766
       302        2.0000           -0.4289354             -11.6719
       303        2.0000           -0.4285928             -11.6626
       304        2.0000           -0.4036654             -10.9843
       305        2.0000           -0.4019945             -10.9388
       306        2.0000           -0.4019851             -10.9386
       307        2.0000           -0.3928436             -10.6898
       308        2.0000           -0.3916675             -10.6578
       309        2.0000           -0.3898355             -10.6080 (HOMO)
       310                         -0.3406243              -9.2689 (LUMO)
       311                         -0.3381320              -9.2010
       312                         -0.3367808              -9.1643
       313                         -0.3367603              -9.1637
       314                         -0.3366371              -9.1604
       315                         -0.3358999              -9.1403
       316                         -0.3144066              -8.5554
       317                         -0.3126276              -8.5070
       318                         -0.3126082              -8.5065
       319                         -0.3079289              -8.3792
       320                         -0.3069198              -8.3517
       ...                                ...                  ...
       644                          1.3346819              36.3185
      -------------------------------------------------------------
                  HL-Gap            0.0492112 Eh            1.3391 eV

Wiberg/Mayer (AO) data.
largest (>0.10) Wiberg bond orders for each atom

     #   Z sym  total        # sym  WBO       # sym  WBO       # sym  WBO
 ---------------------------------------------------------------------------
     1  30 Zn   1.996 --    33 N    0.461     7 N    0.461    12 N    0.456
                            34 N    0.455
     2   6 C    3.935 --    32 C    1.359     3 C    1.358    44 H    0.971
     3   6 C    3.920 --     2 C    1.358     7 N    1.233     4 C    1.169
     4   6 C    3.961 --     5 C    1.662     3 C    1.169    45 H    0.975
     5   6 C    3.963 --     4 C    1.662     6 C    1.170    46 H    0.973
     6   6 C    3.920 --     8 C    1.316     7 N    1.244     5 C    1.170
     7   7 N    3.298 --     6 C    1.244     3 C    1.233     1 Zn   0.461
     8   6 C    3.935 --     9 C    1.318     6 C    1.316    35 C    1.030
     9   6 C    3.915 --     8 C    1.318    12 N    1.234    10 C    1.176
    10   6 C    3.963 --    11 C    1.651     9 C    1.176    47 H    0.973
    11   6 C    3.963 --    10 C    1.651    13 C    1.181    48 H    0.974
    12   7 N    3.298 --    13 C    1.251     9 C    1.234     1 Zn   0.456
    13   6 C    3.915 --    14 C    1.277    12 N    1.251    11 C    1.181
    14   6 C    3.939 --    15 C    1.278    13 C    1.277   125 C    1.140
    15   6 C    3.915 --    14 C    1.278    34 N    1.251    16 C    1.181
    16   6 C    3.963 --    17 C    1.651    15 C    1.181    49 H    0.974
    17   6 C    3.963 --    16 C    1.651    18 C    1.176    50 H    0.973
    18   6 C    3.915 --    19 C    1.318    34 N    1.234    17 C    1.176
    19   6 C    3.935 --    18 C    1.318    29 C    1.316    20 C    1.031
    20   6 C    3.986 --    28 C    1.386    21 C    1.384    19 C    1.031
    21   6 C    3.987 --    22 C    1.465    20 C    1.384    51 H    0.972
                            27 C    0.102
    22   6 C    3.990 --    21 C    1.465    23 C    1.384    52 H    0.968
                            28 C    0.102
    23   6 C    3.982 --    27 C    1.387    22 C    1.384    24 C    1.011
    24   6 C    3.835 --    26 O    1.688    25 O    1.087    23 C    1.011
    25   8 O    2.095 --    24 C    1.087    53 H    0.839    26 O    0.128
    26   8 O    1.956 --    24 C    1.688    25 O    0.128
    27   6 C    3.991 --    28 C    1.462    23 C    1.387    54 H    0.970
                            21 C    0.102
    28   6 C    3.987 --    27 C    1.462    20 C    1.386    55 H    0.972
                            22 C    0.102
    29   6 C    3.920 --    19 C    1.316    33 N    1.245    30 C    1.170
    30   6 C    3.963 --    31 C    1.661    29 C    1.170    56 H    0.973
    31   6 C    3.961 --    30 C    1.661    32 C    1.169    57 H    0.975
    32   6 C    3.920 --     2 C    1.359    33 N    1.232    31 C    1.169
    33   7 N    3.298 --    29 C    1.245    32 C    1.232     1 Zn   0.461
    34   7 N    3.298 --    15 C    1.251    18 C    1.234     1 Zn   0.455
    35   6 C    3.986 --    43 C    1.386    36 C    1.385     8 C    1.030
    36   6 C    3.987 --    37 C    1.465    35 C    1.385    58 H    0.972
                            42 C    0.102
    37   6 C    3.990 --    36 C    1.465    38 C    1.384    59 H    0.968
                            43 C    0.102
    38   6 C    3.982 --    42 C    1.387    37 C    1.384    39 C    1.011
    39   6 C    3.835 --    41 O    1.689    40 O    1.087    38 C    1.011
    40   8 O    2.095 --    39 C    1.087    60 H    0.839    41 O    0.128
    41   8 O    1.957 --    39 C    1.689    40 O    0.128
    42   6 C    3.991 --    43 C    1.463    38 C    1.387    61 H    0.970
                            36 C    0.102
    43   6 C    3.987 --    42 C    1.463    35 C    1.386    62 H    0.972
                            37 C    0.102
    44   1 H    1.001 --     2 C    0.971
    45   1 H    0.998 --     4 C    0.975
    46   1 H    1.004 --     5 C    0.973
    47   1 H    1.004 --    10 C    0.973
    48   1 H    1.002 --    11 C    0.974
    49   1 H    1.002 --    16 C    0.974
    50   1 H    1.004 --    17 C    0.973
    51   1 H    1.004 --    21 C    0.972
    52   1 H    1.005 --    22 C    0.968
    53   1 H    0.874 --    25 O    0.839
    54   1 H    1.005 --    27 C    0.970
    55   1 H    1.004 --    28 C    0.972
    56   1 H    1.004 --    30 C    0.973
    57   1 H    0.998 --    31 C    0.975
    58   1 H    1.004 --    36 C    0.972
    59   1 H    1.005 --    37 C    0.968
    60   1 H    0.874 --    40 O    0.839
    61   1 H    1.005 --    42 C    0.970
    62   1 H    1.004 --    43 C    0.972
    63  30 Zn   1.996 --    95 N    0.461    69 N    0.461    96 N    0.456
                            74 N    0.455
    64   6 C    3.934 --    65 C    1.359    94 C    1.358   106 H    0.971
    65   6 C    3.920 --    64 C    1.359    69 N    1.233    66 C    1.169
    66   6 C    3.961 --    67 C    1.662    65 C    1.169   107 H    0.975
    67   6 C    3.963 --    66 C    1.662    68 C    1.170   108 H    0.973
    68   6 C    3.920 --    70 C    1.316    69 N    1.245    67 C    1.170
    69   7 N    3.297 --    68 C    1.245    65 C    1.233    63 Zn   0.461
    70   6 C    3.935 --    71 C    1.318    68 C    1.316    97 C    1.031
    71   6 C    3.915 --    70 C    1.318    74 N    1.234    72 C    1.176
    72   6 C    3.963 --    73 C    1.651    71 C    1.176   109 H    0.973
    73   6 C    3.963 --    72 C    1.651    75 C    1.182   110 H    0.974
    74   7 N    3.298 --    75 C    1.251    71 C    1.234    63 Zn   0.455
    75   6 C    3.914 --    76 C    1.277    74 N    1.251    73 C    1.182
    76   6 C    3.939 --    77 C    1.277    75 C    1.277   128 C    1.141
    77   6 C    3.914 --    76 C    1.277    96 N    1.251    78 C    1.182
    78   6 C    3.963 --    79 C    1.651    77 C    1.182   111 H    0.974
    79   6 C    3.963 --    78 C    1.651    80 C    1.176   112 H    0.973
    80   6 C    3.915 --    81 C    1.318    96 N    1.234    79 C    1.176
    81   6 C    3.935 --    80 C    1.318    91 C    1.316    82 C    1.031
    82   6 C    3.986 --    90 C    1.386    83 C    1.384    81 C    1.031
    83   6 C    3.987 --    84 C    1.465    82 C    1.384   113 H    0.972
                            89 C    0.102
    84   6 C    3.990 --    83 C    1.465    85 C    1.384   114 H    0.968
                            90 C    0.102
    85   6 C    3.982 --    89 C    1.387    84 C    1.384    86 C    1.011
    86   6 C    3.835 --    88 O    1.688    87 O    1.087    85 C    1.011
    87   8 O    2.095 --    86 C    1.087   115 H    0.839    88 O    0.128
    88   8 O    1.957 --    86 C    1.688    87 O    0.128
    89   6 C    3.991 --    90 C    1.462    85 C    1.387   116 H    0.970
                            83 C    0.102
    90   6 C    3.987 --    89 C    1.462    82 C    1.386   117 H    0.972
                            84 C    0.102
    91   6 C    3.920 --    81 C    1.316    95 N    1.244    92 C    1.170
    92   6 C    3.963 --    93 C    1.662    91 C    1.170   118 H    0.973
    93   6 C    3.961 --    92 C    1.662    94 C    1.169   119 H    0.975
    94   6 C    3.920 --    64 C    1.358    95 N    1.233    93 C    1.169
    95   7 N    3.297 --    91 C    1.244    94 C    1.233    63 Zn   0.461
    96   7 N    3.298 --    77 C    1.251    80 C    1.234    63 Zn   0.456
    97   6 C    3.986 --   105 C    1.386    98 C    1.384    70 C    1.031
    98   6 C    3.987 --    99 C    1.465    97 C    1.384   120 H    0.972
                           104 C    0.102
    99   6 C    3.990 --    98 C    1.465   100 C    1.384   121 H    0.968
                           105 C    0.102
   100   6 C    3.982 --   104 C    1.387    99 C    1.384   101 C    1.011
   101   6 C    3.835 --   103 O    1.688   102 O    1.087   100 C    1.011
   102   8 O    2.095 --   101 C    1.087   122 H    0.839   103 O    0.128
   103   8 O    1.956 --   101 C    1.688   102 O    0.128
   104   6 C    3.991 --   105 C    1.462   100 C    1.387   123 H    0.970
                            98 C    0.102
   105   6 C    3.987 --   104 C    1.462    97 C    1.386   124 H    0.972
                            99 C    0.102
   106   1 H    1.001 --    64 C    0.971
   107   1 H    0.998 --    66 C    0.975
   108   1 H    1.004 --    67 C    0.973
   109   1 H    1.004 --    72 C    0.973
   110   1 H    1.002 --    73 C    0.974
   111   1 H    1.002 --    78 C    0.974
   112   1 H    1.004 --    79 C    0.973
   113   1 H    1.004 --    83 C    0.972
   114   1 H    1.005 --    84 C    0.968
   115   1 H    0.874 --    87 O    0.839
   116   1 H    1.005 --    89 C    0.970
   117   1 H    1.004 --    90 C    0.972
   118   1 H    1.004 --    92 C    0.973
   119   1 H    0.998 --    93 C    0.975
   120   1 H    1.004 --    98 C    0.972
   121   1 H    1.005 --    99 C    0.968
   122   1 H    0.874 --   102 O    0.839
   123   1 H    1.005 --   104 C    0.970
   124   1 H    1.004 --   105 C    0.972
   125   6 C    3.926 --   126 C    2.604    14 C    1.140
   126   6 C    3.928 --   125 C    2.604   130 C    1.140
   127   6 C    3.928 --   128 C    2.604   142 C    1.141
   128   6 C    3.926 --   127 C    2.604    76 C    1.141
   129  30 Zn   1.995 --   135 N    0.458   140 N    0.457   162 N    0.457
                           161 N    0.457
   130   6 C    3.933 --   160 C    1.277   131 C    1.277   126 C    1.140
   131   6 C    3.914 --   130 C    1.277   135 N    1.251   132 C    1.182
   132   6 C    3.962 --   133 C    1.651   131 C    1.182   172 H    0.974
   133   6 C    3.964 --   132 C    1.651   134 C    1.177   173 H    0.973
   134   6 C    3.914 --   136 C    1.318   135 N    1.232   133 C    1.177
   135   7 N    3.296 --   131 C    1.251   134 C    1.232   129 Zn   0.458
   136   6 C    3.932 --   134 C    1.318   137 C    1.317   163 C    1.031
   137   6 C    3.914 --   136 C    1.317   140 N    1.233   138 C    1.177
   138   6 C    3.964 --   139 C    1.650   137 C    1.177   174 H    0.973
   139   6 C    3.962 --   138 C    1.650   141 C    1.182   175 H    0.974
   140   7 N    3.296 --   141 C    1.251   137 C    1.233   129 Zn   0.457
   141   6 C    3.914 --   142 C    1.276   140 N    1.251   139 C    1.182
   142   6 C    3.933 --   143 C    1.276   141 C    1.276   127 C    1.141
   143   6 C    3.914 --   142 C    1.276   162 N    1.251   144 C    1.182
   144   6 C    3.962 --   145 C    1.650   143 C    1.182   176 H    0.974
   145   6 C    3.964 --   144 C    1.650   146 C    1.177   177 H    0.973
   146   6 C    3.914 --   147 C    1.317   162 N    1.233   145 C    1.177
   147   6 C    3.932 --   146 C    1.317   157 C    1.317   148 C    1.030
   148   6 C    3.986 --   156 C    1.386   149 C    1.384   147 C    1.030
   149   6 C    3.987 --   150 C    1.465   148 C    1.384   178 H    0.972
                           155 C    0.102
   150   6 C    3.990 --   149 C    1.465   151 C    1.384   179 H    0.968
                           156 C    0.102
   151   6 C    3.982 --   155 C    1.388   150 C    1.384   152 C    1.011
   152   6 C    3.835 --   154 O    1.689   153 O    1.087   151 C    1.011
   153   8 O    2.096 --   152 C    1.087   180 H    0.839   154 O    0.128
   154   8 O    1.957 --   152 C    1.689   153 O    0.128
   155   6 C    3.991 --   156 C    1.462   151 C    1.388   181 H    0.970
                           149 C    0.102
   156   6 C    3.987 --   155 C    1.462   148 C    1.386   182 H    0.972
                           150 C    0.102
   157   6 C    3.914 --   147 C    1.317   161 N    1.233   158 C    1.177
   158   6 C    3.964 --   159 C    1.650   157 C    1.177   183 H    0.973
   159   6 C    3.962 --   158 C    1.650   160 C    1.182   184 H    0.974
   160   6 C    3.914 --   130 C    1.277   161 N    1.251   159 C    1.182
   161   7 N    3.295 --   160 C    1.251   157 C    1.233   129 Zn   0.457
   162   7 N    3.295 --   143 C    1.251   146 C    1.233   129 Zn   0.457
   163   6 C    3.986 --   171 C    1.386   164 C    1.384   136 C    1.031
   164   6 C    3.987 --   165 C    1.465   163 C    1.384   185 H    0.972
                           170 C    0.102
   165   6 C    3.990 --   164 C    1.465   166 C    1.384   186 H    0.968
                           171 C    0.102
   166   6 C    3.982 --   170 C    1.388   165 C    1.384   167 C    1.010
   167   6 C    3.835 --   169 O    1.689   168 O    1.087   166 C    1.010
   168   8 O    2.096 --   167 C    1.087   187 H    0.839   169 O    0.128
   169   8 O    1.957 --   167 C    1.689   168 O    0.128
   170   6 C    3.991 --   171 C    1.462   166 C    1.388   188 H    0.970
                           164 C    0.102
   171   6 C    3.987 --   170 C    1.462   163 C    1.386   189 H    0.972
                           165 C    0.102
   172   1 H    1.002 --   132 C    0.974
   173   1 H    1.004 --   133 C    0.973
   174   1 H    1.004 --   138 C    0.973
   175   1 H    1.002 --   139 C    0.974
   176   1 H    1.002 --   144 C    0.974
   177   1 H    1.004 --   145 C    0.973
   178   1 H    1.004 --   149 C    0.972
   179   1 H    1.005 --   150 C    0.968
   180   1 H    0.874 --   153 O    0.839
   181   1 H    1.005 --   155 C    0.970
   182   1 H    1.004 --   156 C    0.972
   183   1 H    1.004 --   158 C    0.973
   184   1 H    1.002 --   159 C    0.974
   185   1 H    1.004 --   164 C    0.972
   186   1 H    1.005 --   165 C    0.968
   187   1 H    0.873 --   168 O    0.839
   188   1 H    1.005 --   170 C    0.970
   189   1 H    1.004 --   171 C    0.972
 ---------------------------------------------------------------------------

           -------------------------------------------------
          | TOTAL ENERGY             -351.356882809033 Eh   |
          | GRADIENT NORM               0.000835033235 Eh/α |
          | HOMO-LUMO GAP               1.339104856116 eV   |
           -------------------------------------------------

 * finished run on 2022/07/30 at 11:52:36.581
