   * xtb version 6.5.1 (b24c23e) compiled by 'conda@728c89f4b128' on 2022-07-12
          program call               : xtb Fe_Ph2Me_C2_2.xyz --gfn 1 --opt -T 48

   ID    Z sym.   atoms
    1   26 Fe     1, 69
    2    6 C      2-6, 8-11, 13-31, 34-41, 70-74, 76-79, 81-99, 102-109, 137,
                  138
    3    7 N      7, 12, 32, 33, 75, 80, 100, 101
    4    1 H      42-68, 110-136
########################################################################
[WARNING] Please study the warnings concerning your input carefully
-1- prog_main_parseArguments: Unknown option '-T' provided
########################################################################

          :  Hamiltonian                  GFN1-xTB          :
 * total energy  :  -216.7773525 Eh     change       -0.1309033E-07 Eh
 * total energy  :  -217.0006641 Eh     change       -0.2233115E+00 Eh
 * total energy  :  -217.0699185 Eh     change       -0.6925447E-01 Eh
 * total energy  :  -217.0970592 Eh     change       -0.2714066E-01 Eh
 * total energy  :  -217.1065704 Eh     change       -0.9511183E-02 Eh
 * total energy  :  -217.1119885 Eh     change       -0.5418146E-02 Eh
 * total energy  :  -217.1149136 Eh     change       -0.2925053E-02 Eh
 * total energy  :  -217.1167083 Eh     change       -0.1794722E-02 Eh
 * total energy  :  -217.1178551 Eh     change       -0.1146830E-02 Eh
 * total energy  :  -217.1186711 Eh     change       -0.8159235E-03 Eh
 * total energy  :  -217.1239008 Eh     change       -0.7712696E-05 Eh
 * total energy  :  -217.1239088 Eh     change       -0.8033961E-05 Eh
 * total energy  :  -217.1239156 Eh     change       -0.6767674E-05 Eh
 * total energy  :  -217.1239238 Eh     change       -0.8185740E-05 Eh
 * total energy  :  -217.1239344 Eh     change       -0.1058169E-04 Eh
 * total energy  :  -217.1239452 Eh     change       -0.1086698E-04 Eh
 * total energy  :  -217.1239535 Eh     change       -0.8216335E-05 Eh
 * total energy  :  -217.1239590 Eh     change       -0.5539003E-05 Eh
 * total energy  :  -217.1239639 Eh     change       -0.4880517E-05 Eh
   *** GEOMETRY OPTIMIZATION CONVERGED AFTER 77 ITERATIONS ***

 final structure:
================
138
 xtb: 6.5.1 (b24c23e)
Fe          16.79274033559033        0.16787074294777       -0.22741294073700
C           13.45017876382995        0.35892667258728       -0.70331278727627
C           14.10326946814098        1.49356868143343       -0.26732557235993
C           13.43592704235688        2.72894234680130        0.01345343697790
C           14.36277165839483        3.55668601768061        0.55078160824379
C           15.60328899988887        2.83664603365340        0.56620913665585
N           15.42934862232734        1.57389024427607        0.06876401603204
C           16.80122456019382        3.35724596814034        1.04419743293313
C           18.00295411462517        2.66699568894489        0.97300460409069
C           19.26830220668719        3.24104843258803        1.32204666103137
C           20.21635666967743        2.34070573940229        0.96777278340975
N           18.17998819169153        1.41100061163326        0.44299307120128
C           19.52891010781030        1.21172693360672        0.42413030552307
C           20.18569501466893        0.07682614313564       -0.06677929374919
C           19.50673655499030       -1.06809145096310       -0.49976051054646
C           20.17137873050799       -2.27520754752753       -0.87950836377855
C           19.20603746898596       -3.20297639748781       -1.08650959489386
C           17.95165591139222       -2.55357072627451       -0.84942980251101
C           16.72004657328631       -3.17542141629911       -1.00721843879143
C           16.70169025553540       -4.62546204298676       -1.31549536026049
C           16.19379706647689       -5.08839754503289       -2.52718790078657
C           16.18726538935183       -6.45016585476824       -2.81613446805625
C           15.62594537024469       -6.93741483137138       -4.12473437402555
C           16.68872176376167       -7.34770779474164       -1.88028999127876
C           17.20051981880243       -6.89984611035357       -0.66439326251144
C           17.75572527824390       -7.88505055198961        0.32836074523401
C           17.20815792182540       -5.53800668452947       -0.38946779219069
C           15.51566732492312       -2.48431061658861       -0.93953465062296
C           14.23281753446778       -3.07820375558083       -1.18350377128037
C           13.32495737523757       -2.07416097803450       -1.15433515689107
C           14.04839263646703       -0.87572526447704       -0.85379400706060
N           15.38317680082297       -1.14252489481709       -0.70065662336934
N           18.15326540531679       -1.24109175138851       -0.49958953060724
C           16.80944976764334        4.73229508638679        1.60063366561653
C           16.51324248723965        5.82329736603641        0.78521105030670
C           16.52153821691170        7.11409363602141        1.30309848069284
C           16.22460128682695        8.28985748330742        0.41208128373377
C           16.82785785188824        7.30748626733025        2.64670568077108
C           17.12848064024059        6.22814752391312        3.47231691157607
C           17.43736898353927        6.44752268729313        4.92865442069683
C           17.12012064165419        4.94199858748575        2.94305835749517
H           12.38395525062608        0.42936332733127       -0.88782397140514
H           12.38790348993225        2.91219888850868       -0.16330791134541
H           14.22913281850747        4.56379774547094        0.91087300760309
H           19.40425578968501        4.21870062216079        1.75492287338998
H           21.28721858385013        2.42302319958065        1.05829256837460
H           21.24016859959034       -2.39071242599071       -0.95716194444361
H           19.32160845203109       -4.23067429701600       -1.39004793494750
H           15.82046514047190       -4.37844092066026       -3.25706383208391
H           15.94344780969504       -7.95971150120829       -4.32970849700792
H           14.53434403230360       -6.91688763196881       -4.09227719047357
H           15.95028631285681       -6.29614537097871       -4.94513970540740
H           16.68451652785851       -8.41060964591919       -2.09908731882982
H           17.88513806802617       -7.42274160549540        1.30677576599784
H           17.09176692021320       -8.74447266196984        0.42961017194955
H           18.72796795956451       -8.24858034973123       -0.01149738236028
H           17.59574950785577       -5.17554614619976        0.55629329297360
H           14.06170035229122       -4.12810775772099       -1.35742705607930
H           12.25791600548117       -2.12346219509626       -1.30336249032118
H           16.29176127348208        5.66106065169167       -0.26393938731316
H           15.77768781717658        9.10539065877266        0.98099885065136
H           15.54533972039984        8.00576827246472       -0.39192244012362
H           17.14953822817177        8.65686669348674       -0.03865311071359
H           16.83390371078701        8.31267904512267        3.05557156165130
H           16.51297064375227        6.42970729606977        5.51055111039676
H           17.91597365378240        7.41492465111351        5.08251199659274
H           18.09294144907116        5.66402111551826        5.30911054231964
H           17.34225178384994        4.09129226118230        3.57790175425445
Fe          27.60756088729607        0.17169938927054       -0.22455077924203
C           30.95016485440848        0.57543497715499       -0.54041069299114
C           30.29707349825100       -0.15914334623103       -1.50885894424789
C           30.96442113488335       -0.77273280034708       -2.61723050665531
C           30.03755418530641       -1.51916467676282       -3.26273691801956
C           28.79702266633565       -1.33348906795514       -2.56690290123836
N           28.97097409147912       -0.50423519399548       -1.49250159842273
C           27.59906911144964       -1.93743582483691       -2.93392134349160
C           26.39733538925080       -1.67688775066513       -2.29079120578610
C           25.13198408885148       -2.17189890227594       -2.74502200303164
C           24.18393107759408       -1.58102977543843       -1.97886200229755
N           26.22030255911969       -0.81824148275774       -1.23194256055982
C           24.87138002078872       -0.74464797561052       -1.04579937308544
C           24.21459239619641        0.04274283898432       -0.09238243975446
C           24.89354890228738        0.77729984498765        0.88676983130009
C           24.22890308932396        1.47804461048079        1.94047424590190
C           25.19424412003885        1.93514821001061        2.77393620250062
C           26.44862915929654        1.52668988073954        2.21618108795237
C           27.68023462580643        1.85136238423891        2.76952282677464
C           27.69859144481288        2.55110905479987        4.07643155262782
C           28.20646869680616        3.84378275648650        4.18375749004834
C           28.21301664335507        4.50038642926195        5.41126471221967
C           28.77432496983494        5.89290315523391        5.51496979930147
C           27.71159042818437        3.85137668568764        6.53385221067372
C           27.19980597699510        2.55886228875732        6.44217408987534
C           26.64463732968481        1.87960006780628        7.66480743393032
C           27.19215263543837        1.91570485594421        5.21069567610282
C           28.88461903057080        1.59394972152215        2.12458553228626
C           30.16746438050691        1.99358389622716        2.62711227392807
C           31.07534643546852        1.68600209089108        1.67091901419241
C           30.35192542031250        1.06371313786830        0.60351484805214
N           29.01712971892351        0.99095144160332        0.90235906301884
N           26.24701984300212        0.82531048452548        1.05296977453130
C           27.59083941286178       -2.85463141306196       -4.09974156809649
C           27.88708124066459       -2.37512783419173       -5.37459651102375
C           27.87877726911002       -3.23184425971616       -6.47022398103772
C           28.17574809059027       -2.70332911123884       -7.84753399146003
C           27.57241638845308       -4.57617296319599       -6.28198126624586
C           27.27176307354477       -5.06871007613871       -5.01549208203385
C           26.96283442062007       -6.52854847543599       -4.82083354235485
C           27.28013064998727       -4.20236556360537       -3.92749379107058
H           32.01640040947699        0.73299282099893       -0.65938488193031
H           32.01246032561489       -0.65402905272697       -2.84240643187594
H           30.17118512410804       -2.14535441540353       -4.12981738624535
H           24.99603025587761       -2.85977452136501       -3.56356483456948
H           23.11306861187920       -1.69087747960928       -2.03273502950979
H           23.16011170373066        1.58475561294051        2.02980986316989
H           25.07867291797022        2.51276688318673        3.67651877335080
H           28.57977911600696        4.34718113860126        3.29867927861309
H           28.45683860163242        6.37434545400748        6.43980945700451
H           29.86592637965024        5.85602497496774        5.50426470662018
H           28.44995905510559        6.50237051881467        4.67068048738934
H           27.71581065203631        4.35740589538642        7.49383483927606
H           26.51523318314121        0.81116190870092        7.49314645631177
H           27.30861524127264        2.02160619405882        8.51842709189683
H           25.67239617618789        2.30721189415148        7.91938241368956
H           26.80457293782862        0.90642215806513        5.12584548642537
H           30.33856459985459        2.45293215475227        3.58708751208190
H           32.14239232599693        1.84283017521877        1.67681495202895
H           28.10859597044571       -1.32228849623613       -5.51080276534112
H           28.62261581369929       -3.47679287187521       -8.47247894971235
H           28.85506050911516       -1.85206441408367       -7.79846466741775
H           27.25083133730154       -2.37250913933434       -8.32550111670106
H           27.56636412530417       -5.24867865225199       -7.13363837992534
H           27.88721719239449       -7.08251510620592       -4.64174980623226
H           26.48422492891755       -6.94558299684663       -5.70718375072447
H           26.30725223232227       -6.67587042526877       -3.96240192411523
H           27.05797291821100       -4.57531837000372       -2.93370197852406
C           21.59106025334671        0.06584867558703       -0.07494445515496
C           22.80922709152433        0.05363323591288       -0.08410641729430

          :  Hamiltonian                  GFN1-xTB          :
         :: total energy            -217.123963890911 Eh    ::
         :: gradient norm              0.000385945810 Eh/a0 ::
         :: HOMO-LUMO gap              0.094179066580 eV    ::
         :: SCC energy              -220.566803278375 Eh    ::
         :: repulsion energy           3.563140182732 Eh    ::

    * Orbital Energies and Occupations

         #    Occupation            Energy/Eh            Energy/eV
      -------------------------------------------------------------
         1        2.0000           -0.7658633             -20.8402
       ...           ...                  ...                  ...
       191        2.0000           -0.4253313             -11.5739
       192        2.0000           -0.4238250             -11.5329
       193        2.0000           -0.4238233             -11.5328
       194        2.0000           -0.3952396             -10.7550
       195        2.0000           -0.3935886             -10.7101
       196        2.0000           -0.3935567             -10.7092
       197        1.9964           -0.3854957             -10.4899
       198        1.9889           -0.3844297             -10.4609
       199        1.9556           -0.3830984             -10.4246
       200        1.9555           -0.3830949             -10.4245
       201        1.9500           -0.3829833             -10.4215
       202        1.9499           -0.3829813             -10.4215
       203        1.7387           -0.3813024             -10.3758 (HOMO)
       204        0.2966           -0.3778413             -10.2816 (LUMO)
       205        0.1684           -0.3772342             -10.2651
       206                         -0.3348793              -9.1125
       207                         -0.3241838              -8.8215
       208                         -0.3241834              -8.8215
       209                         -0.3192134              -8.6862
       210                         -0.2965673              -8.0700
       211                         -0.2965459              -8.0694
       212                         -0.2933218              -7.9817
       213                         -0.2856618              -7.7733
       214                         -0.2585009              -7.0342
       ...                                ...                  ...
       454                          1.3373812              36.3920
      -------------------------------------------------------------
                  HL-Gap            0.0034610 Eh            0.0942 eV

Wiberg/Mayer (AO) data.
largest (>0.10) Wiberg bond orders for each atom

     #   Z sym  total        # sym  WBO       # sym  WBO       # sym  WBO
 ---------------------------------------------------------------------------
     1  26 Fe   3.194 --    32 N    0.671     7 N    0.668    12 N    0.666
                            33 N    0.663
     2   6 C    3.927 --     3 C    1.363    31 C    1.360    42 H    0.970
     3   6 C    3.925 --     2 C    1.363     7 N    1.210     4 C    1.173
     4   6 C    3.960 --     5 C    1.649     3 C    1.173    43 H    0.975
     5   6 C    3.962 --     4 C    1.649     6 C    1.176    44 H    0.972
     6   6 C    3.921 --     8 C    1.313     7 N    1.227     5 C    1.176
     7   7 N    3.381 --     6 C    1.227     3 C    1.210     1 Fe   0.668
     8   6 C    3.928 --     9 C    1.334     6 C    1.313    34 C    1.023
     9   6 C    3.918 --     8 C    1.334    12 N    1.201    10 C    1.180
    10   6 C    3.958 --    11 C    1.638     9 C    1.180    45 H    0.973
    11   6 C    3.961 --    10 C    1.638    13 C    1.189    46 H    0.970
    12   7 N    3.382 --    13 C    1.245     9 C    1.201     1 Fe   0.666
    13   6 C    3.911 --    14 C    1.254    12 N    1.245    11 C    1.189
    14   6 C    3.926 --    15 C    1.256    13 C    1.254   137 C    1.188
    15   6 C    3.912 --    14 C    1.256    33 N    1.241    16 C    1.189
    16   6 C    3.961 --    17 C    1.636    15 C    1.189    47 H    0.970
    17   6 C    3.959 --    16 C    1.636    18 C    1.181    48 H    0.973
    18   6 C    3.918 --    19 C    1.328    33 N    1.205    17 C    1.181
    19   6 C    3.928 --    18 C    1.328    28 C    1.316    20 C    1.026
    20   6 C    3.988 --    21 C    1.402    27 C    1.389    19 C    1.026
                            24 C    0.103
    21   6 C    3.986 --    22 C    1.410    20 C    1.402    49 H    0.972
                            25 C    0.104
    22   6 C    3.988 --    24 C    1.423    21 C    1.410    23 C    1.020
                            27 C    0.103
    23   6 C    3.995 --    22 C    1.020    50 H    0.985    52 H    0.980
                            51 H    0.972
    24   6 C    3.988 --    22 C    1.423    25 C    1.408    53 H    0.972
                            20 C    0.103
    25   6 C    3.988 --    27 C    1.424    24 C    1.408    26 C    1.020
                            21 C    0.104
    26   6 C    3.995 --    25 C    1.020    54 H    0.985    55 H    0.979
                            56 H    0.972
    27   6 C    3.986 --    25 C    1.424    20 C    1.389    57 H    0.972
                            22 C    0.103
    28   6 C    3.922 --    19 C    1.316    32 N    1.223    29 C    1.175
    29   6 C    3.962 --    30 C    1.649    28 C    1.175    58 H    0.972
    30   6 C    3.960 --    29 C    1.649    31 C    1.174    59 H    0.975
    31   6 C    3.925 --     2 C    1.360    32 N    1.212    30 C    1.174
    32   7 N    3.382 --    28 C    1.223    31 C    1.212     1 Fe   0.671
    33   7 N    3.381 --    15 C    1.241    18 C    1.205     1 Fe   0.663
    34   6 C    3.988 --    41 C    1.397    35 C    1.397     8 C    1.023
                            38 C    0.103
    35   6 C    3.986 --    36 C    1.416    34 C    1.397    60 H    0.972
                            39 C    0.104
    36   6 C    3.988 --    35 C    1.416    38 C    1.416    37 C    1.020
                            41 C    0.104
    37   6 C    3.995 --    36 C    1.020    62 H    0.983    61 H    0.983
                            63 H    0.971
    38   6 C    3.989 --    36 C    1.416    39 C    1.415    64 H    0.972
                            34 C    0.103
    39   6 C    3.988 --    41 C    1.417    38 C    1.415    40 C    1.020
                            35 C    0.104
    40   6 C    3.995 --    39 C    1.020    67 H    0.983    66 H    0.982
                            65 H    0.971
    41   6 C    3.986 --    39 C    1.417    34 C    1.397    68 H    0.972
                            36 C    0.104
    42   1 H    1.001 --     2 C    0.970
    43   1 H    0.998 --     4 C    0.975
    44   1 H    1.005 --     5 C    0.972
    45   1 H    1.005 --    10 C    0.973
    46   1 H    1.005 --    11 C    0.970
    47   1 H    1.005 --    16 C    0.970
    48   1 H    1.005 --    17 C    0.973
    49   1 H    1.002 --    21 C    0.972
    50   1 H    1.004 --    23 C    0.985
    51   1 H    1.006 --    23 C    0.972
    52   1 H    1.005 --    23 C    0.980
    53   1 H    1.000 --    24 C    0.972
    54   1 H    1.004 --    26 C    0.985
    55   1 H    1.005 --    26 C    0.979
    56   1 H    1.006 --    26 C    0.972
    57   1 H    1.003 --    27 C    0.972
    58   1 H    1.005 --    29 C    0.972
    59   1 H    0.998 --    30 C    0.975
    60   1 H    1.002 --    35 C    0.972
    61   1 H    1.004 --    37 C    0.983
    62   1 H    1.004 --    37 C    0.983
    63   1 H    1.006 --    37 C    0.971
    64   1 H    1.000 --    38 C    0.972
    65   1 H    1.006 --    40 C    0.971
    66   1 H    1.004 --    40 C    0.982
    67   1 H    1.004 --    40 C    0.983
    68   1 H    1.002 --    41 C    0.972
    69  26 Fe   3.194 --   100 N    0.671    75 N    0.668    80 N    0.666
                           101 N    0.663
    70   6 C    3.927 --    71 C    1.363    99 C    1.360   110 H    0.970
    71   6 C    3.925 --    70 C    1.363    75 N    1.210    72 C    1.173
    72   6 C    3.960 --    73 C    1.649    71 C    1.173   111 H    0.975
    73   6 C    3.962 --    72 C    1.649    74 C    1.176   112 H    0.972
    74   6 C    3.921 --    76 C    1.313    75 N    1.227    73 C    1.176
    75   7 N    3.381 --    74 C    1.227    71 C    1.210    69 Fe   0.668
    76   6 C    3.928 --    77 C    1.334    74 C    1.313   102 C    1.023
    77   6 C    3.918 --    76 C    1.334    80 N    1.201    78 C    1.180
    78   6 C    3.958 --    79 C    1.638    77 C    1.180   113 H    0.973
    79   6 C    3.961 --    78 C    1.638    81 C    1.189   114 H    0.970
    80   7 N    3.382 --    81 C    1.245    77 C    1.201    69 Fe   0.666
    81   6 C    3.911 --    82 C    1.254    80 N    1.245    79 C    1.189
    82   6 C    3.926 --    83 C    1.256    81 C    1.254   138 C    1.188
    83   6 C    3.912 --    82 C    1.256   101 N    1.241    84 C    1.189
    84   6 C    3.961 --    85 C    1.636    83 C    1.189   115 H    0.970
    85   6 C    3.959 --    84 C    1.636    86 C    1.181   116 H    0.973
    86   6 C    3.918 --    87 C    1.328   101 N    1.205    85 C    1.181
    87   6 C    3.928 --    86 C    1.328    96 C    1.316    88 C    1.026
    88   6 C    3.988 --    89 C    1.402    95 C    1.389    87 C    1.026
                            92 C    0.103
    89   6 C    3.986 --    90 C    1.410    88 C    1.402   117 H    0.972
                            93 C    0.104
    90   6 C    3.988 --    92 C    1.423    89 C    1.410    91 C    1.020
                            95 C    0.103
    91   6 C    3.995 --    90 C    1.020   118 H    0.985   120 H    0.980
                           119 H    0.972
    92   6 C    3.988 --    90 C    1.423    93 C    1.408   121 H    0.972
                            88 C    0.103
    93   6 C    3.988 --    95 C    1.424    92 C    1.408    94 C    1.020
                            89 C    0.104
    94   6 C    3.995 --    93 C    1.020   122 H    0.985   123 H    0.979
                           124 H    0.972
    95   6 C    3.986 --    93 C    1.424    88 C    1.389   125 H    0.972
                            90 C    0.103
    96   6 C    3.922 --    87 C    1.316   100 N    1.223    97 C    1.175
    97   6 C    3.962 --    98 C    1.649    96 C    1.175   126 H    0.972
    98   6 C    3.960 --    97 C    1.649    99 C    1.174   127 H    0.975
    99   6 C    3.925 --    70 C    1.360   100 N    1.212    98 C    1.174
   100   7 N    3.382 --    96 C    1.223    99 C    1.212    69 Fe   0.671
   101   7 N    3.381 --    83 C    1.241    86 C    1.205    69 Fe   0.663
   102   6 C    3.988 --   109 C    1.397   103 C    1.397    76 C    1.023
                           106 C    0.103
   103   6 C    3.986 --   104 C    1.416   102 C    1.397   128 H    0.972
                           107 C    0.104
   104   6 C    3.988 --   103 C    1.416   106 C    1.416   105 C    1.020
                           109 C    0.104
   105   6 C    3.995 --   104 C    1.020   130 H    0.983   129 H    0.983
                           131 H    0.971
   106   6 C    3.989 --   104 C    1.416   107 C    1.415   132 H    0.972
                           102 C    0.103
   107   6 C    3.988 --   109 C    1.417   106 C    1.415   108 C    1.020
                           103 C    0.104
   108   6 C    3.995 --   107 C    1.020   135 H    0.983   134 H    0.982
                           133 H    0.971
   109   6 C    3.986 --   107 C    1.417   102 C    1.397   136 H    0.972
                           104 C    0.104
   110   1 H    1.001 --    70 C    0.970
   111   1 H    0.998 --    72 C    0.975
   112   1 H    1.005 --    73 C    0.972
   113   1 H    1.005 --    78 C    0.973
   114   1 H    1.005 --    79 C    0.970
   115   1 H    1.005 --    84 C    0.970
   116   1 H    1.005 --    85 C    0.973
   117   1 H    1.002 --    89 C    0.972
   118   1 H    1.004 --    91 C    0.985
   119   1 H    1.006 --    91 C    0.972
   120   1 H    1.005 --    91 C    0.980
   121   1 H    1.000 --    92 C    0.972
   122   1 H    1.004 --    94 C    0.985
   123   1 H    1.005 --    94 C    0.979
   124   1 H    1.006 --    94 C    0.972
   125   1 H    1.003 --    95 C    0.972
   126   1 H    1.005 --    97 C    0.972
   127   1 H    0.998 --    98 C    0.975
   128   1 H    1.002 --   103 C    0.972
   129   1 H    1.004 --   105 C    0.983
   130   1 H    1.004 --   105 C    0.983
   131   1 H    1.006 --   105 C    0.971
   132   1 H    1.000 --   106 C    0.972
   133   1 H    1.006 --   108 C    0.971
   134   1 H    1.004 --   108 C    0.982
   135   1 H    1.004 --   108 C    0.983
   136   1 H    1.002 --   109 C    0.972
   137   6 C    3.924 --   138 C    2.554    14 C    1.188
   138   6 C    3.924 --   137 C    2.554    82 C    1.188
 ---------------------------------------------------------------------------

           -------------------------------------------------
          | TOTAL ENERGY             -217.123963890911 Eh   |
          | GRADIENT NORM               0.000385945810 Eh/α |
          | HOMO-LUMO GAP               0.094179066580 eV   |
           -------------------------------------------------

 * finished run on 2022/07/29 at 17:13:41.490
