   * xtb version 6.5.1 (b24c23e) compiled by 'conda@728c89f4b128' on 2022-07-12
          program call               : xtb H_C4_6.xyz --gfn 1 --opt -T 48

   ID    Z sym.   atoms
    1    6 C      1-5, 7-10, 12-17, 19-23, 38-42, 44-47, 49-54, 56-60, 75-99,
                  101-104, 106-111, 113-117, 131-135, 137-140, 142-147,
                  149-153, 167-171, 173-176, 178-183, 185-189, 203-207,
                  209-212, 214-219, 221-225
    2    7 N      6, 11, 18, 24, 43, 48, 55, 61, 100, 105, 112, 118, 136,
                  141, 148, 154, 172, 177, 184, 190, 208, 213, 220, 226
    3    1 H      25-37, 62-74, 119-130, 155-166, 191-202, 227-238

          :  Hamiltonian                  GFN1-xTB          :
 * total energy  :  -410.4519146 Eh     change        0.1109674E-07 Eh
 * total energy  :  -410.8287489 Eh     change       -0.3768343E+00 Eh
 * total energy  :  -411.0789148 Eh     change       -0.2501658E+00 Eh
 * total energy  :  -411.1591743 Eh     change       -0.8025954E-01 Eh
 * total energy  :  -411.2029063 Eh     change       -0.4373199E-01 Eh
 * total energy  :  -411.2285541 Eh     change       -0.2564783E-01 Eh
 * total energy  :  -411.2429431 Eh     change       -0.1438899E-01 Eh
 * total energy  :  -411.2491988 Eh     change       -0.6255673E-02 Eh
 * total energy  :  -411.2518705 Eh     change       -0.2671719E-02 Eh
 * total energy  :  -411.2541829 Eh     change       -0.2312359E-02 Eh
 * total energy  :  -411.7448214 Eh     change       -0.7126763E-05 Eh
 * total energy  :  -411.7448270 Eh     change       -0.5659723E-05 Eh
 * total energy  :  -411.7448323 Eh     change       -0.5242998E-05 Eh
 * total energy  :  -411.7448384 Eh     change       -0.6130864E-05 Eh
 * total energy  :  -411.7448457 Eh     change       -0.7310021E-05 Eh
 * total energy  :  -411.7448543 Eh     change       -0.8599304E-05 Eh
 * total energy  :  -411.7448628 Eh     change       -0.8489687E-05 Eh
 * total energy  :  -411.7448693 Eh     change       -0.6498065E-05 Eh
 * total energy  :  -411.7448736 Eh     change       -0.4270183E-05 Eh
   *** GEOMETRY OPTIMIZATION CONVERGED AFTER 207 ITERATIONS ***

 final structure:
================
238
 xtb: 6.5.1 (b24c23e)
C           36.22362074608102       -0.06079843586866       -0.01765794316301
C           36.84763167351479       -1.30084568054325       -0.06807928438947
C           36.23339942498987       -2.58508483741398       -0.12149182920146
C           37.22536008021535       -3.52427960326298       -0.15905436986352
C           38.47664949512848       -2.84382232203364       -0.12971502101148
N           38.19759708240048       -1.50881520927022       -0.07520880114701
C           39.74529491969359       -3.41151555972089       -0.15127539667411
C           40.96528943341506       -2.75141840000880       -0.12168960336885
C           42.24335885049061       -3.44045407220362       -0.14726594814936
C           43.19341523123569       -2.48345579027063       -0.10505557256949
N           41.15918845874405       -1.40546463478463       -0.06556978446330
C           42.49191322510999       -1.21320161182710       -0.05439159735947
C           43.14769448625906        0.03476032347067       -0.00259839001368
C           42.49795820784713        1.28280905879626        0.04465724716928
C           43.10661552614965        2.56588186850003        0.09578993820933
C           42.11067515167161        3.50278225003528        0.13089638151758
C           40.86374658580473        2.81792969452604        0.10236684662706
N           41.15032786280481        1.48045194527063        0.05011284109093
C           39.59623211817662        3.38654939076742        0.12410209504718
C           38.37525191836046        2.72413226491405        0.09710951882054
C           37.09072766641422        3.40672579082107        0.12446814248977
C           36.14685655300832        2.44489345112951        0.08507905147190
C           36.85558674927785        1.17603185909256        0.03352383006690
N           38.19387709387563        1.38374030768508        0.04258939427094
H           35.13878834058084       -0.06773207003830       -0.01884743269278
H           35.16811768779340       -2.75295287553727       -0.12949208637807
H           37.11430864774241       -4.59613945758552       -0.20313074557670
H           38.89221461970460       -0.77012339335679       -0.04408732091949
H           39.77596717828028       -4.49552312507393       -0.19596768633561
H           42.36351576831580       -4.51157005810643       -0.19156370611194
H           44.26602984803228       -2.59542585584525       -0.10715857940968
H           44.17114211986303        2.73729691479814        0.10409425299566
H           42.21841385583179        4.57492715097006        0.17293479915532
H           40.45825237317351        0.73899439961597        0.02009155254813
H           39.56696901169288        4.47058359375450        0.16731790665691
H           36.96479023558484        4.47737777597175        0.16815717814040
H           35.07301560321365        2.54915208296458        0.08908556243152
C          111.07752481576163        0.06097499139891       -0.02331199515435
C          110.45379873497222        1.29278379260209       -0.17579301443442
C          111.06851548097782        2.56791880331423       -0.33570493552481
C          110.07694239974496        3.50164234373147       -0.44709360030005
C          108.82541098817096        2.82667366321937       -0.35957829752162
N          109.10392921921959        1.50037657425676       -0.19686754133091
C          107.55693155917882        3.39122737459677       -0.42612261908973
C          106.33692402750373        2.73559060967890       -0.34435950494397
C          105.05877441604611        3.41975615204978       -0.42874445827992
C          104.10884436633164        2.46878551477796       -0.31250322259211
N          106.14321661296721        1.39852739266696       -0.17980287927281
C          104.81052751044865        1.20718006833237       -0.15676063497978
C          104.15491595782615       -0.03258401493796       -0.00444534841287
C          104.80435638650418       -1.27199556962037        0.15054358632754
C          104.19511391317707       -2.54580374521432        0.31057237944682
C          105.19061522815072       -3.47602833756641        0.43117666742898
C          106.43782602460412       -2.79625092007677        0.34745500532101
N          106.15186384241653       -1.46838707294438        0.17796973655607
C          107.70518748048711       -3.36076218792613        0.42147132058827
C          108.92612809991418       -2.70318101440339        0.33665163131419
C          110.21071122563923       -3.38084810842775        0.42179812570663
C          111.15445427090867       -2.42636386125900        0.29581970344436
C          110.44557464187456       -1.16673911782715        0.13511811573593
N          109.10732509804066       -1.37269824498563        0.16479623567922
H          112.16235301890498        0.06730500435330       -0.02793219935439
H          112.13385763807139        2.73380670829695       -0.36007702622098
H          110.18841997770799        4.56626488952906       -0.57862832139813
H          108.40889666789823        0.76731571164166       -0.10374366705145
H          107.52643330670558        4.46807441070602       -0.55827356798664
H          104.93847264884042        4.48373651102669       -0.55974661370019
H          103.03620885352552        2.57967210147621       -0.32692563981616
H          103.13050854339515       -2.71585620863103        0.32974450463448
H          105.08237273596811       -4.54041852108760        0.56617915073404
H          106.84437471351121       -0.73240364735522        0.08643691382930
H          107.73434309623578       -4.43679262717959        0.55983669657795
H          110.33674107634731       -4.44353767688500        0.55917056795525
H          112.22830155440467       -2.53003455192215        0.30667531785986
C           45.77475688857223        0.05110114566009        0.00599387339505
C           44.55216508710767        0.04616512392540        0.00194663114592
C           47.12383844909728        0.05357136964540        0.00864437638215
C           48.34658004082922        0.04938628513160        0.01020069624721
C           59.37487792667723        0.03548307354052        0.02094572830076
C           58.15179874590825        0.03677198315740        0.02222991480054
C           60.72357015798787        0.03652172493795        0.01862251163378
C           61.94665290051776        0.03343640511361        0.01611304257860
C           72.97802653429071       -0.00482031772105       -0.00120751824052
C           71.75492362823114       -0.00120788417890       -0.00151669263832
C           74.32673011662480       -0.00651140755032       -0.00206120210343
C           75.54981411504821       -0.01011949877399       -0.00364178829500
C           86.58116057260665       -0.02675247507287       -0.00438020977934
C           85.35811821633830       -0.02772334151795       -0.00587602793150
C           87.92982863816343       -0.02337232036309       -0.00505321605250
C           89.15287926967031       -0.02342719523680       -0.00410475389504
C          100.17884980651662       -0.05323933726675        0.00220805930707
C           98.95612009379826       -0.05251750054563        0.00512961015759
C          101.52787576586906       -0.05014627258785       -0.00091850266894
C          102.75046887393485       -0.04434793886251       -0.00356658635248
C           49.75016287622375        0.05089280654039        0.01146918582739
C           50.39118151520833        1.30518280148211        0.02082117030714
C           49.77866127196612        2.58602901718731        0.02658704651937
C           50.77317396062823        3.52646630538353        0.03171111390740
C           52.02075966785701        2.84444747960135        0.02965293235394
N           51.73840191559414        1.50598315208841        0.02313658298589
C           53.28661281578692        3.42130227227818        0.03400315040099
C           54.51726089180759        2.78304969635038        0.03302773764955
C           55.78209179230512        3.49659587209381        0.03922012457307
C           56.75050713253950        2.55695778380743        0.03605295783696
N           54.73726097522103        1.43973673589599        0.02647924089869
C           56.07339416377705        1.27329902830747        0.02786946731078
C           56.74852358336689        0.03441225961831        0.02222513194442
C           56.10730173504709       -1.21994638305397        0.01465399927000
C           56.71960920323809       -2.50103262092985        0.00890723378812
C           55.72499584385669       -3.44118138663907        0.00024694981576
C           54.47736450997242       -2.75899246709375        0.00038767399081
N           54.76012618845247       -1.42040370245136        0.00980493002386
C           53.21173309758532       -3.33569456261193       -0.00844117632060
C           51.98075544787580       -2.69747690163427       -0.00761699365332
C           50.71589120248143       -3.41100145681042       -0.01761231265499
C           49.74747326848858       -2.47140830139553       -0.01141577280353
C           50.42460706446217       -1.18785539011035        0.00188601924101
N           51.76108207734247       -1.35446949773675        0.00351815739852
H           48.71374118058112        2.75495485279745        0.02635072775119
H           50.66237987211829        4.59910246289422        0.03630549077257
H           52.42888060544684        0.76236447975155        0.01982918868870
H           53.30219544523985        4.50681674745727        0.03908078464099
H           55.88179107342862        4.57072630619506        0.04527452709484
H           57.82088699691958        2.68894014916917        0.03898468369072
H           57.78446892331824       -2.67016095119818        0.01119809969054
H           55.83550475044490       -4.51383421181436       -0.00578737418570
H           54.06969109329081       -0.67674681629444        0.01191627793317
H           53.19603930379464       -4.42119021258534       -0.01681822316712
H           50.61612075585251       -4.48507863533545       -0.02795648568895
H           48.67710727098816       -2.60327604542524       -0.01548102034357
C           63.34988960911601        0.03285070888841        0.01185239596932
C           63.99426515868401        1.28556102726561       -0.00538840014649
C           63.38554709612838        2.56816571647419       -0.01931832928254
C           64.38287434535583        3.50546447583852       -0.03575206073661
C           65.62850897114164        2.81978291032151       -0.03197420859350
N           65.34204357417259        1.48220166586028       -0.01316532386412
C           66.89587514121115        3.39311218977889       -0.04490386613169
C           68.12542391956697        2.75253777289771       -0.03922745926956
C           69.39152265139695        3.46374829283608       -0.05281744741620
C           70.35835512117485        2.52253130649732       -0.03950649394573
N           68.34313767410951        1.40903589335641       -0.01931241072794
C           69.67907283733291        1.24023822708350       -0.01873225780607
C           70.35165779452623        0.00005688555268       -0.00148906766515
C           69.70707456562729       -1.25260608824549        0.01425611729455
C           70.31578693291947       -2.53524891546343        0.02719815265613
C           69.31847299923828       -3.47260945837371        0.03719859571428
C           68.07281690335473       -2.78696383088759        0.03110071141942
N           68.35931409110977       -1.44927762166787        0.01718001772367
C           66.80554113950681       -3.36041836324375        0.03912561662140
C           65.57595721803618       -2.71981132497893        0.03566004671285
C           64.30985237578963       -3.43098854888041        0.04781678381841
C           63.34308913529002       -2.48961988424063        0.04093579869275
C           64.02245846653814       -1.20734278876013        0.02401951798166
N           65.35841228052639       -1.37626674843377        0.02147932493607
H           62.32116689765378        2.74030559804061       -0.01707499597474
H           64.27530536404221        4.57834902348086       -0.04916122964021
H           66.03023682640506        0.73648227333472       -0.00651638089226
H           66.91399348344559        4.47850768720792       -0.06068572846767
H           69.49317411853956        4.53757177889156       -0.06997198434575
H           71.42896134448017        2.65262852842792       -0.04333494836944
H           71.38016838416780       -2.70735528975394        0.02829300670010
H           69.42601141817741       -4.54552554869981        0.04777357535002
H           67.67107131476835       -0.70360770996255        0.00965146354306
H           66.78741108028454       -4.44586494461127        0.05030161818031
H           64.20810557961352       -4.50486607495739        0.06027718694492
H           62.27247910598323       -2.61963877652019        0.04637998049452
C           76.95307871168409       -0.00936916509393       -0.00468563761887
C           77.59549264043224        1.24409108193560       -0.03785408892332
C           76.98452728214644        2.52528017687354       -0.07171745148031
C           77.98019234662604        3.46409691563983       -0.09727530974147
C           79.22704476538394        2.78084515124627       -0.07960019279126
N           78.94290670778868        1.44305767813941       -0.04385011608215
C           80.49327494875091        3.35643731349680       -0.09538259839554
C           81.72400707252075        2.71825882078348       -0.07913275617092
C           82.98884935445996        3.43151598197921       -0.09855869148697
C           83.95728905745594        2.49216097741399       -0.07431351258060
N           81.94393372701548        1.37550159272318       -0.04372130025763
C           83.28018436186849        1.20903833104568       -0.03993260377246
C           83.95490313141127       -0.02958087940255       -0.00598383211597
C           83.31276892386016       -1.28304508031307        0.02948235696413
C           83.92377038187600       -2.56412159618810        0.06597522969587
C           82.92809276432453       -3.50297057128280        0.09144864316626
C           81.68123062531758       -2.81979775783246        0.07149176070822
N           81.96533093260588       -1.48209803989318        0.03437628123057
C           80.41487428784997       -3.39532323240805        0.08575125373943
C           79.18417746284469       -2.75719745802720        0.06715741018481
C           77.91934212542203       -3.47057959390845        0.08465427010171
C           76.95082692479522       -2.53132597682467        0.05962078388771
C           77.62782080152087       -1.24807392903586        0.02695763321140
N           78.96406397646601       -1.41440764773337        0.03196196491944
H           75.91985109178361        2.69550578774276       -0.07583708457422
H           77.87079005440725        4.53649448148732       -0.12594680948339
H           79.63239080423452        0.69874915692560       -0.02431932221199
H           80.50944241591050        4.44159224733808       -0.12410136882124
H           83.08868626792973        4.50527135200316       -0.12680641245560
H           85.02767040895864        2.62408187899941       -0.07824536483385
H           84.98846520166403       -2.73425456130041        0.07149891834710
H           83.03756390298865       -4.57532335992296        0.12161935794355
H           81.27587923020229       -0.73781618128733        0.01308585713083
H           80.39868592493380       -4.48046763358992        0.11510564648611
H           77.81961999701284       -4.54436952991278        0.11224931494050
H           75.88044775003614       -2.66332181876833        0.06213241329377
C           90.55613674974147       -0.02252600267006        0.00049187861721
C           91.19938475561123        1.22866633904418       -0.07189659992329
C           90.58911400323230        2.50842271671115       -0.14887106672633
C           91.58522188714278        3.44551794709794       -0.20224817541196
C           92.83173975123162        2.76266187112119       -0.15960004768116
N           92.54686821588041        1.42680226758006       -0.08090976456844
C           94.09840879761359        3.33614094411721       -0.19323369922334
C           95.32798450204001        2.69632323260803       -0.15654780564843
C           96.59443015870643        3.40561675111022       -0.20198335022222
C           97.56069659118664        2.46535366635804       -0.14815115223490
N           95.54458226637857        1.35516125104426       -0.07603483419791
C           96.88065107087576        1.18570628957729       -0.06877745955910
C           97.55257677828551       -0.05206134027636        0.00831057161169
C           96.90956911401261       -1.30255984832122        0.09094432773842
C           97.52010153715857       -2.58161645245559        0.17513200629641
C           96.52413286983929       -3.51853919526177        0.23621210196220
C           95.27763640575238       -2.83607970380376        0.19048815810471
N           95.56205369068508       -1.50085859976140        0.10361527934720
C           94.01074080663690       -3.40964028672437        0.22408736648470
C           92.78151890652848       -2.77031310993273        0.17823177191689
C           91.51513282511105       -3.48004189315445        0.21668888759425
C           90.54885785817930       -2.54035591400548        0.15323494812987
C           91.22883471942860       -1.26041392838862        0.07718620966299
N           92.56456081995921       -1.42914946996846        0.09332968049503
H           89.52452106704554        2.67878394130379       -0.16121013370895
H           91.47645740576820        4.51648136332366       -0.26587548653069
H           93.23628006532819        0.68358495948923       -0.03549814952973
H           94.11630014368902        4.41972492967392       -0.25747329238837
H           96.69666080098220        4.47756240638723       -0.26666050592679
H           98.63134693963578        2.59448697355549       -0.15863557107083
H           98.58476894355563       -2.75176097714443        0.18675876826795
H           96.63323785182419       -4.58904862789032        0.30658313699122
H           94.87257717253085       -0.75792964506652        0.05454828562684
H           93.99291925048887       -4.49289078469775        0.29365981913597
H           91.41301740380673       -4.55191068841188        0.28299305822454
H           89.47820432813818       -2.67005494723382        0.15611469275458

          :  Hamiltonian                  GFN1-xTB          :
         :: total energy            -411.744873553632 Eh    ::
         :: gradient norm              0.000342378527 Eh/a0 ::
         :: HOMO-LUMO gap              0.702583063772 eV    ::
         :: SCC energy              -418.837565556932 Eh    ::
         :: repulsion energy           7.285924339217 Eh    ::

    * Orbital Energies and Occupations

         #    Occupation            Energy/Eh            Energy/eV
      -------------------------------------------------------------
         1        2.0000           -0.8056934             -21.9240
       ...           ...                  ...                  ...
       365        2.0000           -0.4161919             -11.3252
       366        2.0000           -0.4009373             -10.9101
       367        2.0000           -0.4008738             -10.9083
       368        2.0000           -0.4006432             -10.9021
       369        2.0000           -0.4006356             -10.9018
       370        2.0000           -0.3995023             -10.8710
       371        2.0000           -0.3994928             -10.8708
       372        2.0000           -0.3952442             -10.7551
       373        2.0000           -0.3924668             -10.6796
       374        2.0000           -0.3884290             -10.5697
       375        2.0000           -0.3836495             -10.4396
       376        2.0000           -0.3789740             -10.3124
       377        2.0000           -0.3756126             -10.2209 (HOMO)
       378        0.0000           -0.3497931              -9.5184 (LUMO)
       379                         -0.3455243              -9.4022
       380                         -0.3402385              -9.2584
       381                         -0.3347867              -9.1100
       382                         -0.3322430              -9.0408
       383                         -0.3322393              -9.0407
       384                         -0.3320830              -9.0364
       385                         -0.3319842              -9.0337
       386                         -0.3314349              -9.0188
       387                         -0.3312770              -9.0145
       388                         -0.3293171              -8.9612
       ...                                ...                  ...
       804                          1.5145833              41.2139
      -------------------------------------------------------------
                  HL-Gap            0.0258195 Eh            0.7026 eV

Wiberg/Mayer (AO) data.
largest (>0.10) Wiberg bond orders for each atom

     #   Z sym  total        # sym  WBO       # sym  WBO       # sym  WBO
 ---------------------------------------------------------------------------
     1   6 C    3.929 --    23 C    1.364     2 C    1.349    25 H    0.972
     2   6 C    3.903 --     1 C    1.349     3 C    1.225     6 N    1.172
     3   6 C    3.954 --     4 C    1.602     2 C    1.225    26 H    0.977
     4   6 C    3.958 --     3 C    1.602     5 C    1.227    27 H    0.977
     5   6 C    3.897 --     7 C    1.342     4 C    1.227     6 N    1.174
     6   7 N    3.471 --     5 C    1.174     2 C    1.172    28 H    0.873
     7   6 C    3.944 --     8 C    1.379     5 C    1.342    29 H    0.971
     8   6 C    3.915 --     7 C    1.379    11 N    1.277     9 C    1.119
     9   6 C    3.965 --    10 C    1.717     8 C    1.119    30 H    0.976
    10   6 C    3.964 --     9 C    1.717    12 C    1.124    31 H    0.975
    11   7 N    3.026 --    12 C    1.353     8 C    1.277
    12   6 C    3.909 --    11 N    1.353    13 C    1.251    10 C    1.124
    13   6 C    3.941 --    14 C    1.253    12 C    1.251    76 C    1.194
    14   6 C    3.885 --    13 C    1.253    15 C    1.245    18 N    1.193
    15   6 C    3.959 --    16 C    1.589    14 C    1.245    32 H    0.975
    16   6 C    3.953 --    15 C    1.589    17 C    1.233    33 H    0.977
    17   6 C    3.899 --    19 C    1.350    16 C    1.233    18 N    1.162
    18   7 N    3.476 --    14 C    1.193    17 C    1.162    34 H    0.873
    19   6 C    3.929 --    20 C    1.364    17 C    1.350    35 H    0.971
    20   6 C    3.930 --    19 C    1.364    24 N    1.308    21 C    1.112
    21   6 C    3.967 --    22 C    1.730    20 C    1.112    36 H    0.976
    22   6 C    3.966 --    21 C    1.730    23 C    1.113    37 H    0.976
    23   6 C    3.929 --     1 C    1.364    24 N    1.308    22 C    1.113
    24   7 N    3.015 --    20 C    1.308    23 C    1.308
    25   1 H    1.002 --     1 C    0.972
    26   1 H    0.998 --     3 C    0.977
    27   1 H    0.998 --     4 C    0.977
    28   1 H    0.986 --     6 N    0.873
    29   1 H    1.002 --     7 C    0.971
    30   1 H    0.998 --     9 C    0.976
    31   1 H    1.003 --    10 C    0.975
    32   1 H    1.002 --    15 C    0.975
    33   1 H    0.998 --    16 C    0.977
    34   1 H    0.987 --    18 N    0.873
    35   1 H    1.002 --    19 C    0.971
    36   1 H    0.998 --    21 C    0.976
    37   1 H    0.998 --    22 C    0.976
    38   6 C    3.929 --    60 C    1.363    39 C    1.349    62 H    0.972
    39   6 C    3.903 --    38 C    1.349    40 C    1.225    43 N    1.172
    40   6 C    3.954 --    41 C    1.602    39 C    1.225    63 H    0.977
    41   6 C    3.958 --    40 C    1.602    42 C    1.227    64 H    0.977
    42   6 C    3.897 --    44 C    1.342    41 C    1.227    43 N    1.174
    43   7 N    3.471 --    42 C    1.174    39 C    1.172    65 H    0.873
    44   6 C    3.944 --    45 C    1.379    42 C    1.342    66 H    0.971
    45   6 C    3.915 --    44 C    1.379    48 N    1.277    46 C    1.119
    46   6 C    3.965 --    47 C    1.717    45 C    1.119    67 H    0.976
    47   6 C    3.964 --    46 C    1.717    49 C    1.124    68 H    0.975
    48   7 N    3.026 --    49 C    1.353    45 C    1.277
    49   6 C    3.909 --    48 N    1.353    50 C    1.251    47 C    1.124
    50   6 C    3.941 --    51 C    1.253    49 C    1.251    94 C    1.194
    51   6 C    3.885 --    50 C    1.253    52 C    1.245    55 N    1.193
    52   6 C    3.959 --    53 C    1.589    51 C    1.245    69 H    0.975
    53   6 C    3.953 --    52 C    1.589    54 C    1.233    70 H    0.977
    54   6 C    3.899 --    56 C    1.350    53 C    1.233    55 N    1.162
    55   7 N    3.476 --    51 C    1.193    54 C    1.162    71 H    0.873
    56   6 C    3.929 --    57 C    1.364    54 C    1.350    72 H    0.971
    57   6 C    3.930 --    56 C    1.364    61 N    1.308    58 C    1.112
    58   6 C    3.967 --    59 C    1.730    57 C    1.112    73 H    0.976
    59   6 C    3.966 --    58 C    1.730    60 C    1.113    74 H    0.976
    60   6 C    3.929 --    38 C    1.363    61 N    1.308    59 C    1.113
    61   7 N    3.015 --    57 C    1.308    60 C    1.308
    62   1 H    1.002 --    38 C    0.972
    63   1 H    0.998 --    40 C    0.977
    64   1 H    0.998 --    41 C    0.977
    65   1 H    0.986 --    43 N    0.873
    66   1 H    1.002 --    44 C    0.971
    67   1 H    0.998 --    46 C    0.976
    68   1 H    1.003 --    47 C    0.975
    69   1 H    1.002 --    52 C    0.975
    70   1 H    0.998 --    53 C    0.977
    71   1 H    0.987 --    55 N    0.873
    72   1 H    1.002 --    56 C    0.971
    73   1 H    0.998 --    58 C    0.976
    74   1 H    0.998 --    59 C    0.976
    75   6 C    3.933 --    76 C    2.470    77 C    1.312
    76   6 C    3.923 --    75 C    2.470    13 C    1.194    78 C    0.198
    77   6 C    3.930 --    78 C    2.469    75 C    1.312
    78   6 C    3.925 --    77 C    2.469    95 C    1.197    76 C    0.198
    79   6 C    3.929 --    80 C    2.465    81 C    1.315
    80   6 C    3.923 --    79 C    2.465   107 C    1.198    82 C    0.198
    81   6 C    3.929 --    82 C    2.465    79 C    1.315
    82   6 C    3.924 --    81 C    2.465   131 C    1.199    80 C    0.198
    83   6 C    3.929 --    84 C    2.465    85 C    1.315
    84   6 C    3.923 --    83 C    2.465   143 C    1.199    86 C    0.198
    85   6 C    3.929 --    86 C    2.465    83 C    1.315
    86   6 C    3.923 --    85 C    2.465   167 C    1.199    84 C    0.198
    87   6 C    3.929 --    88 C    2.465    89 C    1.315
    88   6 C    3.924 --    87 C    2.465   179 C    1.199    90 C    0.198
    89   6 C    3.929 --    90 C    2.465    87 C    1.315
    90   6 C    3.923 --    89 C    2.465   203 C    1.198    88 C    0.198
    91   6 C    3.930 --    92 C    2.469    93 C    1.313
    92   6 C    3.925 --    91 C    2.469   215 C    1.197    94 C    0.198
    93   6 C    3.933 --    94 C    2.470    91 C    1.313
    94   6 C    3.923 --    93 C    2.470    50 C    1.194    92 C    0.198
    95   6 C    3.927 --   117 C    1.251    96 C    1.248    78 C    1.197
    96   6 C    3.886 --    97 C    1.250    95 C    1.248   100 N    1.193
    97   6 C    3.955 --    98 C    1.582    96 C    1.250   119 H    0.975
    98   6 C    3.954 --    97 C    1.582    99 C    1.239   120 H    0.977
    99   6 C    3.894 --   101 C    1.337    98 C    1.239   100 N    1.164
   100   7 N    3.472 --    96 C    1.193    99 C    1.164   121 H    0.872
   101   6 C    3.931 --   102 C    1.383    99 C    1.337   122 H    0.971
   102   6 C    3.918 --   101 C    1.383   105 N    1.274   103 C    1.119
   103   6 C    3.965 --   104 C    1.716   102 C    1.119   123 H    0.976
   104   6 C    3.963 --   103 C    1.716   106 C    1.125   124 H    0.975
   105   7 N    3.013 --   106 C    1.355   102 C    1.274
   106   6 C    3.909 --   105 N    1.355   107 C    1.249   104 C    1.125
   107   6 C    3.927 --   106 C    1.249   108 C    1.248    80 C    1.198
   108   6 C    3.886 --   109 C    1.250   107 C    1.248   112 N    1.193
   109   6 C    3.955 --   110 C    1.583   108 C    1.250   125 H    0.975
   110   6 C    3.954 --   109 C    1.583   111 C    1.239   126 H    0.977
   111   6 C    3.894 --   113 C    1.339   110 C    1.239   112 N    1.163
   112   7 N    3.472 --   108 C    1.193   111 C    1.163   127 H    0.873
   113   6 C    3.931 --   114 C    1.381   111 C    1.339   128 H    0.971
   114   6 C    3.918 --   113 C    1.381   118 N    1.275   115 C    1.119
   115   6 C    3.965 --   116 C    1.716   114 C    1.119   129 H    0.976
   116   6 C    3.964 --   115 C    1.716   117 C    1.125   130 H    0.975
   117   6 C    3.910 --   118 N    1.353    95 C    1.251   116 C    1.125
   118   7 N    3.013 --   117 C    1.353   114 C    1.275
   119   1 H    1.002 --    97 C    0.975
   120   1 H    0.998 --    98 C    0.977
   121   1 H    0.986 --   100 N    0.872
   122   1 H    1.002 --   101 C    0.971
   123   1 H    0.998 --   103 C    0.976
   124   1 H    1.002 --   104 C    0.975
   125   1 H    1.001 --   109 C    0.975
   126   1 H    0.998 --   110 C    0.977
   127   1 H    0.986 --   112 N    0.873
   128   1 H    1.002 --   113 C    0.971
   129   1 H    0.998 --   115 C    0.976
   130   1 H    1.002 --   116 C    0.975
   131   6 C    3.926 --   153 C    1.249   132 C    1.247    82 C    1.199
   132   6 C    3.886 --   133 C    1.250   131 C    1.247   136 N    1.193
   133   6 C    3.955 --   134 C    1.582   132 C    1.250   155 H    0.975
   134   6 C    3.953 --   133 C    1.582   135 C    1.239   156 H    0.977
   135   6 C    3.894 --   137 C    1.338   134 C    1.239   136 N    1.164
   136   7 N    3.472 --   132 C    1.193   135 C    1.164   157 H    0.872
   137   6 C    3.931 --   138 C    1.383   135 C    1.338   158 H    0.971
   138   6 C    3.917 --   137 C    1.383   141 N    1.274   139 C    1.119
   139   6 C    3.965 --   140 C    1.716   138 C    1.119   159 H    0.976
   140   6 C    3.963 --   139 C    1.716   142 C    1.125   160 H    0.975
   141   7 N    3.012 --   142 C    1.354   138 C    1.274
   142   6 C    3.909 --   141 N    1.354   143 C    1.249   140 C    1.125
   143   6 C    3.926 --   142 C    1.249   144 C    1.247    84 C    1.199
   144   6 C    3.886 --   145 C    1.250   143 C    1.247   148 N    1.193
   145   6 C    3.955 --   146 C    1.582   144 C    1.250   161 H    0.975
   146   6 C    3.954 --   145 C    1.582   147 C    1.239   162 H    0.977
   147   6 C    3.894 --   149 C    1.338   146 C    1.239   148 N    1.163
   148   7 N    3.472 --   144 C    1.193   147 C    1.163   163 H    0.872
   149   6 C    3.931 --   150 C    1.382   147 C    1.338   164 H    0.971
   150   6 C    3.917 --   149 C    1.382   154 N    1.274   151 C    1.119
   151   6 C    3.965 --   152 C    1.716   150 C    1.119   165 H    0.976
   152   6 C    3.963 --   151 C    1.716   153 C    1.126   166 H    0.975
   153   6 C    3.909 --   154 N    1.354   131 C    1.249   152 C    1.126
   154   7 N    3.012 --   153 C    1.354   150 C    1.274
   155   1 H    1.001 --   133 C    0.975
   156   1 H    0.998 --   134 C    0.977
   157   1 H    0.986 --   136 N    0.872
   158   1 H    1.002 --   137 C    0.971
   159   1 H    0.998 --   139 C    0.976
   160   1 H    1.002 --   140 C    0.975
   161   1 H    1.001 --   145 C    0.975
   162   1 H    0.998 --   146 C    0.977
   163   1 H    0.986 --   148 N    0.872
   164   1 H    1.002 --   149 C    0.971
   165   1 H    0.998 --   151 C    0.976
   166   1 H    1.002 --   152 C    0.975
   167   6 C    3.926 --   189 C    1.249   168 C    1.247    86 C    1.199
   168   6 C    3.886 --   169 C    1.250   167 C    1.247   172 N    1.193
   169   6 C    3.955 --   170 C    1.582   168 C    1.250   191 H    0.975
   170   6 C    3.954 --   169 C    1.582   171 C    1.239   192 H    0.977
   171   6 C    3.894 --   173 C    1.338   170 C    1.239   172 N    1.163
   172   7 N    3.472 --   168 C    1.193   171 C    1.163   193 H    0.872
   173   6 C    3.931 --   174 C    1.382   171 C    1.338   194 H    0.971
   174   6 C    3.917 --   173 C    1.382   177 N    1.274   175 C    1.119
   175   6 C    3.965 --   176 C    1.716   174 C    1.119   195 H    0.976
   176   6 C    3.963 --   175 C    1.716   178 C    1.126   196 H    0.975
   177   7 N    3.012 --   178 C    1.354   174 C    1.274
   178   6 C    3.909 --   177 N    1.354   179 C    1.249   176 C    1.126
   179   6 C    3.926 --   178 C    1.249   180 C    1.247    88 C    1.199
   180   6 C    3.886 --   181 C    1.250   179 C    1.247   184 N    1.193
   181   6 C    3.955 --   182 C    1.582   180 C    1.250   197 H    0.975
   182   6 C    3.954 --   181 C    1.582   183 C    1.239   198 H    0.977
   183   6 C    3.894 --   185 C    1.338   182 C    1.239   184 N    1.164
   184   7 N    3.472 --   180 C    1.193   183 C    1.164   199 H    0.872
   185   6 C    3.931 --   186 C    1.383   183 C    1.338   200 H    0.971
   186   6 C    3.917 --   185 C    1.383   190 N    1.274   187 C    1.119
   187   6 C    3.965 --   188 C    1.716   186 C    1.119   201 H    0.976
   188   6 C    3.963 --   187 C    1.716   189 C    1.125   202 H    0.975
   189   6 C    3.909 --   190 N    1.354   167 C    1.249   188 C    1.125
   190   7 N    3.012 --   189 C    1.354   186 C    1.274
   191   1 H    1.001 --   169 C    0.975
   192   1 H    0.998 --   170 C    0.977
   193   1 H    0.986 --   172 N    0.872
   194   1 H    1.002 --   173 C    0.971
   195   1 H    0.998 --   175 C    0.976
   196   1 H    1.002 --   176 C    0.975
   197   1 H    1.001 --   181 C    0.975
   198   1 H    0.998 --   182 C    0.977
   199   1 H    0.986 --   184 N    0.872
   200   1 H    1.002 --   185 C    0.971
   201   1 H    0.998 --   187 C    0.976
   202   1 H    1.002 --   188 C    0.975
   203   6 C    3.927 --   225 C    1.249   204 C    1.248    90 C    1.198
   204   6 C    3.886 --   205 C    1.250   203 C    1.248   208 N    1.193
   205   6 C    3.955 --   206 C    1.583   204 C    1.250   227 H    0.975
   206   6 C    3.954 --   205 C    1.583   207 C    1.239   228 H    0.977
   207   6 C    3.894 --   209 C    1.339   206 C    1.239   208 N    1.163
   208   7 N    3.472 --   204 C    1.193   207 C    1.163   229 H    0.873
   209   6 C    3.931 --   210 C    1.381   207 C    1.339   230 H    0.971
   210   6 C    3.918 --   209 C    1.381   213 N    1.275   211 C    1.119
   211   6 C    3.965 --   212 C    1.716   210 C    1.119   231 H    0.976
   212   6 C    3.964 --   211 C    1.716   214 C    1.125   232 H    0.975
   213   7 N    3.013 --   214 C    1.353   210 C    1.275
   214   6 C    3.910 --   213 N    1.353   215 C    1.251   212 C    1.125
   215   6 C    3.927 --   214 C    1.251   216 C    1.248    92 C    1.197
   216   6 C    3.886 --   217 C    1.250   215 C    1.248   220 N    1.193
   217   6 C    3.955 --   218 C    1.582   216 C    1.250   233 H    0.975
   218   6 C    3.954 --   217 C    1.582   219 C    1.239   234 H    0.977
   219   6 C    3.894 --   221 C    1.337   218 C    1.239   220 N    1.164
   220   7 N    3.472 --   216 C    1.193   219 C    1.164   235 H    0.873
   221   6 C    3.931 --   222 C    1.383   219 C    1.337   236 H    0.971
   222   6 C    3.918 --   221 C    1.383   226 N    1.274   223 C    1.119
   223   6 C    3.965 --   224 C    1.716   222 C    1.119   237 H    0.976
   224   6 C    3.963 --   223 C    1.716   225 C    1.125   238 H    0.975
   225   6 C    3.909 --   226 N    1.355   203 C    1.249   224 C    1.125
   226   7 N    3.013 --   225 C    1.355   222 C    1.274
   227   1 H    1.001 --   205 C    0.975
   228   1 H    0.998 --   206 C    0.977
   229   1 H    0.986 --   208 N    0.873
   230   1 H    1.002 --   209 C    0.971
   231   1 H    0.998 --   211 C    0.976
   232   1 H    1.002 --   212 C    0.975
   233   1 H    1.001 --   217 C    0.975
   234   1 H    0.998 --   218 C    0.977
   235   1 H    0.986 --   220 N    0.873
   236   1 H    1.002 --   221 C    0.971
   237   1 H    0.998 --   223 C    0.976
   238   1 H    1.002 --   224 C    0.975
 ---------------------------------------------------------------------------

           -------------------------------------------------
          | TOTAL ENERGY             -411.744873553632 Eh   |
          | GRADIENT NORM               0.000342378527 Eh/α |
          | HOMO-LUMO GAP               0.702583063772 eV   |
           -------------------------------------------------

 * finished run on 2022/07/26 at 14:34:14.811
