   * xtb version 6.5.1 (b24c23e) compiled by 'conda@728c89f4b128' on 2022-07-12
          program call               : xtb Cu_DHP_C8_2.xyz --gfn 1 --opt -T 48

   ID    Z sym.   atoms
    1   29 Cu     1, 59
    2    6 C      2-6, 8-11, 13-17, 19-24, 26-29, 31-36, 60-64, 66-69, 71-75,
                  77-82, 84-87, 89-94, 117-124
    3    7 N      7, 12, 18, 25, 30, 37, 65, 70, 76, 83, 88, 95
    4    1 H      38-58, 96-116
########################################################################
[WARNING] Please study the warnings concerning your input carefully
-1- prog_main_parseArguments: Unknown option '-T' provided
########################################################################

          :  Hamiltonian                  GFN1-xTB          :
 * total energy  :  -213.1100026 Eh     change        0.3172971E-08 Eh
 * total energy  :  -213.3177736 Eh     change       -0.2077710E+00 Eh
 * total energy  :  -213.3847940 Eh     change       -0.6702037E-01 Eh
 * total energy  :  -213.4052133 Eh     change       -0.2041933E-01 Eh
 * total energy  :  -213.4127631 Eh     change       -0.7549796E-02 Eh
 * total energy  :  -213.4167028 Eh     change       -0.3939666E-02 Eh
 * total energy  :  -213.4178520 Eh     change       -0.1149203E-02 Eh
 * total energy  :  -213.4200267 Eh     change       -0.2174693E-02 Eh
 * total energy  :  -213.4209187 Eh     change       -0.8920613E-03 Eh
 * total energy  :  -213.4222093 Eh     change       -0.1290560E-02 Eh
 * total energy  :  -213.4271751 Eh     change       -0.5525547E-05 Eh
 * total energy  :  -213.4271816 Eh     change       -0.6548396E-05 Eh
 * total energy  :  -213.4271900 Eh     change       -0.8389603E-05 Eh
 * total energy  :  -213.4271998 Eh     change       -0.9837783E-05 Eh
 * total energy  :  -213.4271943 Eh     change        0.5503402E-05 Eh
 * total energy  :  -213.4272035 Eh     change       -0.9120642E-05 Eh
 * total energy  :  -213.4271945 Eh     change        0.8947067E-05 Eh
 * total energy  :  -213.4272062 Eh     change       -0.1169242E-04 Eh
 * total energy  :  -213.4272062 Eh     change       -0.3490274E-07 Eh
   *** GEOMETRY OPTIMIZATION CONVERGED AFTER 48 ITERATIONS ***

 final structure:
================
124
 xtb: 6.5.1 (b24c23e)
Cu          11.35362671499810       -0.03025159252298       -0.01608959998871
C            7.95043267504749       -0.05140360944445       -0.13634976102037
C            8.58299440629722       -1.28554451944687       -0.16239420939215
C            7.90526200638163       -2.54974902798757       -0.18872304994719
C            8.86251687691117       -3.51055441514731       -0.20667302719072
C           10.13486564452274       -2.84127247971531       -0.20514334794423
N            9.93314608591443       -1.49129138054272       -0.16844721509260
C           11.37887080136020       -3.47736617639129       -0.22395700131533
C           11.39599194013520       -4.95807730146139       -0.32021715630594
C           10.87946768836793       -5.60093933934775       -1.37814378073309
C           10.87347845821975       -7.10351618904591       -1.48853267029414
N           11.81131944284750       -7.70846529363450       -0.53885487038411
C           12.15804001466171       -7.05074941544517        0.61294112449368
C           12.01055339668706       -5.72190054379791        0.75653310690147
C           12.61131385518974       -2.82389619598564       -0.16058896545819
C           13.88868234958948       -3.47384074378298       -0.23802756979294
C           14.83527682924227       -2.50487537475637       -0.15369995626999
N           12.80068970091059       -1.47218367885083       -0.03979849973531
C           14.14401648012762       -1.25677453080967       -0.03061432529493
C           14.78018040808758       -0.00807946465171        0.08998037229615
C           14.12218562212215        1.23193011125032        0.17586861296503
C           14.78828209812230        2.48820417977533        0.34518713673597
C           13.82568626067723        3.44465825185413        0.37442699976148
C           12.56406721046124        2.77879601609386        0.21588245663827
N           12.77809206423592        1.43000306225531        0.10366482320342
C           11.32164960419403        3.41604962383246        0.20029516550583
C           11.31155014829040        4.89642791018224        0.30380502353076
C           10.71711323572273        5.52574084540098        1.32846649970793
C           10.68050395799048        7.02733585594445        1.44559354664610
N           11.66431385422005        7.65283354981768        0.55764892722044
C           12.09613146982529        7.00576351871817       -0.57110060510470
C           11.98217047714889        5.67510438425548       -0.72781006520257
C           10.09007066967478        2.76448564779054        0.09397567640272
C            8.81254995799668        3.41820980302585        0.00759703832929
C            7.87104875949150        2.44595282756663       -0.08233048171316
C            8.56454626704328        1.19019282037019       -0.06402266146177
N            9.90822136729754        1.41228874437786        0.03883929932222
H            6.86586768365378       -0.05792018025079       -0.17535500122525
H            6.83350336721794       -2.67266164696580       -0.18214355074315
H            8.72601899026530       -4.58001472028490       -0.20829683239570
H           10.42442992166381       -5.06704590234031       -2.20432540994890
H           11.17110942369460       -7.40960503082173       -2.50057800796668
H            9.85322261932855       -7.49503423247921       -1.31607744931105
H           11.73282843264784       -8.71299363394226       -0.47237425378793
H           12.63722630441533       -7.67087712415791        1.36387374124096
H           12.33631109699332       -5.21217196281993        1.65215746287176
H           14.03777743014727       -4.53531951287555       -0.35268127468039
H           15.90767343358135       -2.61507878715744       -0.17779189402063
H           15.85570220204287        2.61159116055509        0.43594012012279
H           13.95350585234246        4.50757720823114        0.50116998592083
H           10.21700119866564        4.98042472586451        2.12044957644982
H           10.91103382797295        7.33210523716432        2.47547952548638
H            9.66642042734171        7.40366675136905        1.21333340036300
H           11.57148964707074        8.65596113025463        0.48873786865324
H           12.61107995732974        7.63738415911868       -1.28799878155461
H           12.37373996285569        5.17505798771413       -1.60225941049199
H            8.66297027450051        4.48591667443300        0.00346481128003
H            6.80104661945446        2.55585238365449       -0.16514995188553
Cu          29.94975294514129        0.03000947571947       -0.01053533526606
C           33.35301886988544        0.07736906696245       -0.12178963962487
C           32.72001447919078        1.28833176156599        0.11649579382804
C           33.39731421099702        2.52918685471509        0.36102195808901
C           32.43973684004565        3.47120916971869        0.54923705003983
C           31.16760902819063        2.81654658215608        0.40806645772674
N           31.36979236134848        1.49012109125483        0.15469519231901
C           29.92340579319201        3.44133387122471        0.52680215379196
C           29.90601036831136        4.90822293923042        0.75061727142445
C           30.42103072638630        5.76340788411972       -0.14530318858415
C           30.42731345614038        7.25460921371886        0.06978001328976
N           29.49096547965516        7.64132397332580        1.12859655951889
C           29.14593209771382        6.75148393086461        2.11277112389347
C           29.29329699995037        5.42282396258676        1.96727970527405
C           28.69118045346625        2.78903410915008        0.44895459519474
C           27.41359233225340        3.43993708938018        0.51375256723369
C           26.46730444129405        2.47525053425678        0.38741822173078
N           28.50221597542119        1.44294559856807        0.27596026911381
C           27.15894493544143        1.23012372698216        0.23910787437329
C           26.52315823659839       -0.01542140480554        0.08792204698980
C           27.18151129515675       -1.24470295792597       -0.09498591628110
C           26.51573404269606       -2.50809544015028       -0.20092696102446
C           27.47869992602823       -3.44831054739677       -0.37683046181717
C           28.74018900059960       -2.76367191761012       -0.38732633110397
N           28.52570835459651       -1.42232361317190       -0.20729568275822
C           29.98288951526555       -3.38249889987034       -0.53796202858668
C           29.99327739116204       -4.85057039548792       -0.75477568020690
C           30.58650114649511       -5.68527859983261        0.11162949157501
C           30.62302098752391       -7.17703048467669       -0.09619591939429
N           29.64073701466785       -7.59713973419761       -1.09930501490661
C           29.21013882051021       -6.72271014672702       -2.06323658839034
C           29.32401898675355       -5.38945440454579       -1.93035733861413
C           31.21434061856739       -2.72313298860611       -0.50076310500239
C           32.49218772137115       -3.34293159555678       -0.72403511934591
C           33.43338757965399       -2.37377531185548       -0.60288103616889
C           32.73937098821524       -1.15117105811832       -0.31688056983839
N           31.39571139526937       -1.39043045939921       -0.26507528439389
H           34.43758960461498        0.09243225277636       -0.15823429955909
H           34.46903168736475        2.64827616764254        0.39348066674789
H           32.57588892374992        4.51633316053674        0.77630128508785
H           30.87475114487296        5.41953647363670       -1.06756520188904
H           30.12840407181284        7.77107088172452       -0.85240188703372
H           31.44793068274704        7.59989662084776        0.32093362275327
H           29.56982122643578        8.60812240938848        1.40921618720425
H           28.66821179546805        7.19576697790780        2.98022271690232
H           28.96893144844962        4.73255610600655        2.73304582225426
H           27.26418638837080        4.50112391210513        0.63063485438610
H           25.39486091545031        2.58763106955905        0.38785115245813
H           25.44828877597034       -2.64837721741898       -0.13992366412373
H           27.35118991636606       -4.51365880608328       -0.48159620484040
H           31.08558137079617       -5.32277163829455        1.00282754714099
H           30.39078837206299       -7.69563360709190        0.84392970498359
H           31.63752052249912       -7.49504429753885       -0.40212555122213
H           29.73391226424034       -8.56204481857230       -1.38196319179016
H           28.69607682539393       -7.18557213958827       -2.89963233580509
H           28.93328412890802       -4.71322781446694       -2.67740328470898
H           32.64219024100475       -4.38497927953029       -0.95647038358767
H           34.50351056177944       -2.46319270542966       -0.70628403861712
C           16.18495914249330       -0.00083367869925        0.12454875467823
C           17.40943196215375       -0.00286462841058        0.14593258752066
C           18.75205198746997       -0.00953470219769        0.16223896797778
C           19.98279742225424       -0.01666300628225        0.16706160710604
C           21.32074949018146       -0.02510773463095        0.16463809306140
C           22.55132947982082       -0.03414264010707        0.15563306815739
C           23.89393373814495       -0.03520987144431        0.13940867366652
C           25.11836362108693       -0.03041888579163        0.11909092273254

          :  Hamiltonian                  GFN1-xTB          :
         :: total energy            -213.427206244737 Eh    ::
         :: gradient norm              0.000439663740 Eh/a0 ::
         :: HOMO-LUMO gap              0.002117716506 eV    ::
         :: SCC energy              -216.778846341256 Eh    ::
         :: repulsion energy           3.458206933365 Eh    ::

    * Orbital Energies and Occupations

         #    Occupation            Energy/Eh            Energy/eV
      -------------------------------------------------------------
         1        2.0000           -0.7791707             -21.2023
       ...           ...                  ...                  ...
       186        2.0000           -0.4006164             -10.9013
       187        2.0000           -0.4006106             -10.9012
       188        2.0000           -0.4004524             -10.8969
       189        2.0000           -0.3985021             -10.8438
       190        2.0000           -0.3877841             -10.5521
       191        2.0000           -0.3877789             -10.5520
       192        2.0000           -0.3830534             -10.4234
       193        2.0000           -0.3746557             -10.1949
       194        2.0000           -0.3692655             -10.0482
       195        2.0000           -0.3692591             -10.0481
       196        2.0000           -0.3683741             -10.0240
       197        2.0000           -0.3676332             -10.0038
       198        1.0205           -0.3480742              -9.4716 (HOMO)
       199        0.9795           -0.3479964              -9.4695 (LUMO)
       200                         -0.3305699              -8.9953
       201                         -0.3203628              -8.7175
       202                         -0.3193291              -8.6894
       203                         -0.3193211              -8.6892
       204                         -0.2933679              -7.9829
       205                         -0.2912519              -7.9254
       206                         -0.2851659              -7.7598
       207                         -0.2683537              -7.3023
       208                         -0.2637567              -7.1772
       209                         -0.2637523              -7.1771
       ...                                ...                  ...
       422                          1.6144238              43.9307
      -------------------------------------------------------------
                  HL-Gap            0.0000778 Eh            0.0021 eV

Wiberg/Mayer (AO) data.
largest (>0.10) Wiberg bond orders for each atom

     #   Z sym  total        # sym  WBO       # sym  WBO       # sym  WBO
 ---------------------------------------------------------------------------
     1  29 Cu   2.185 --    37 N    0.505     7 N    0.504    18 N    0.502
                            25 N    0.502
     2   6 C    3.926 --    36 C    1.360     3 C    1.360    38 H    0.971
     3   6 C    3.920 --     2 C    1.360     7 N    1.230     4 C    1.172
     4   6 C    3.955 --     5 C    1.653     3 C    1.172    39 H    0.976
     5   6 C    3.958 --     4 C    1.653     6 C    1.174    40 H    0.974
     6   6 C    3.913 --     8 C    1.318     7 N    1.239     5 C    1.174
     7   7 N    3.243 --     6 C    1.239     3 C    1.230     1 Cu   0.504
     8   6 C    3.935 --    15 C    1.326     6 C    1.318     9 C    1.026
     9   6 C    3.988 --    10 C    1.768    14 C    1.098     8 C    1.026
    10   6 C    3.971 --     9 C    1.768    11 C    1.013    41 H    0.972
    11   6 C    3.961 --    10 C    1.013    42 H    0.976    43 H    0.966
                            12 N    0.949
    12   7 N    3.248 --    13 C    1.160    11 C    0.949    44 H    0.928
                            14 C    0.127
    13   6 C    3.958 --    14 C    1.692    12 N    1.160    45 H    0.971
    14   6 C    3.968 --    13 C    1.692     9 C    1.098    46 H    0.974
                            12 N    0.127
    15   6 C    3.907 --     8 C    1.326    18 N    1.221    16 C    1.180
    16   6 C    3.954 --    17 C    1.642    15 C    1.180    47 H    0.972
    17   6 C    3.957 --    16 C    1.642    19 C    1.187    48 H    0.974
    18   7 N    3.247 --    19 C    1.258    15 C    1.221     1 Cu   0.502
    19   6 C    3.897 --    18 N    1.258    20 C    1.257    17 C    1.187
    20   6 C    3.937 --    21 C    1.257    19 C    1.257   117 C    1.191
    21   6 C    3.897 --    25 N    1.258    20 C    1.257    22 C    1.187
    22   6 C    3.957 --    23 C    1.642    21 C    1.187    49 H    0.974
    23   6 C    3.954 --    22 C    1.642    24 C    1.180    50 H    0.972
    24   6 C    3.907 --    26 C    1.326    25 N    1.221    23 C    1.180
    25   7 N    3.247 --    21 C    1.258    24 C    1.221     1 Cu   0.502
    26   6 C    3.935 --    24 C    1.326    33 C    1.318    27 C    1.025
    27   6 C    3.988 --    28 C    1.768    32 C    1.098    26 C    1.025
    28   6 C    3.971 --    27 C    1.768    29 C    1.013    51 H    0.972
    29   6 C    3.961 --    28 C    1.013    52 H    0.976    53 H    0.966
                            30 N    0.949
    30   7 N    3.248 --    31 C    1.161    29 C    0.949    54 H    0.928
                            32 C    0.127
    31   6 C    3.958 --    32 C    1.692    30 N    1.161    55 H    0.971
    32   6 C    3.968 --    31 C    1.692    27 C    1.098    56 H    0.974
                            30 N    0.127
    33   6 C    3.913 --    26 C    1.318    37 N    1.239    34 C    1.174
    34   6 C    3.958 --    35 C    1.653    33 C    1.174    57 H    0.974
    35   6 C    3.955 --    34 C    1.653    36 C    1.172    58 H    0.976
    36   6 C    3.920 --     2 C    1.360    37 N    1.230    35 C    1.172
    37   7 N    3.243 --    33 C    1.239    36 C    1.230     1 Cu   0.505
    38   1 H    1.002 --     2 C    0.971
    39   1 H    0.998 --     4 C    0.976
    40   1 H    1.007 --     5 C    0.974
    41   1 H    1.003 --    10 C    0.972
    42   1 H    1.019 --    11 C    0.976
    43   1 H    1.008 --    11 C    0.966
    44   1 H    0.964 --    12 N    0.928
    45   1 H    1.001 --    13 C    0.971
    46   1 H    1.003 --    14 C    0.974
    47   1 H    1.006 --    16 C    0.972
    48   1 H    1.002 --    17 C    0.974
    49   1 H    1.002 --    22 C    0.974
    50   1 H    1.006 --    23 C    0.972
    51   1 H    1.003 --    28 C    0.972
    52   1 H    1.019 --    29 C    0.976
    53   1 H    1.008 --    29 C    0.966
    54   1 H    0.964 --    30 N    0.928
    55   1 H    1.001 --    31 C    0.971
    56   1 H    1.003 --    32 C    0.974
    57   1 H    1.007 --    34 C    0.974
    58   1 H    0.998 --    35 C    0.976
    59  29 Cu   2.185 --    95 N    0.505    65 N    0.504    76 N    0.502
                            83 N    0.502
    60   6 C    3.926 --    94 C    1.360    61 C    1.360    96 H    0.971
    61   6 C    3.920 --    60 C    1.360    65 N    1.230    62 C    1.172
    62   6 C    3.955 --    63 C    1.653    61 C    1.172    97 H    0.976
    63   6 C    3.958 --    62 C    1.653    64 C    1.174    98 H    0.974
    64   6 C    3.913 --    66 C    1.318    65 N    1.239    63 C    1.174
    65   7 N    3.243 --    64 C    1.239    61 C    1.230    59 Cu   0.504
    66   6 C    3.935 --    73 C    1.326    64 C    1.318    67 C    1.026
    67   6 C    3.988 --    68 C    1.768    72 C    1.098    66 C    1.026
    68   6 C    3.971 --    67 C    1.768    69 C    1.013    99 H    0.972
    69   6 C    3.961 --    68 C    1.013   100 H    0.976   101 H    0.966
                            70 N    0.949
    70   7 N    3.247 --    71 C    1.160    69 C    0.949   102 H    0.928
                            72 C    0.127
    71   6 C    3.958 --    72 C    1.692    70 N    1.160   103 H    0.971
    72   6 C    3.968 --    71 C    1.692    67 C    1.098   104 H    0.974
                            70 N    0.127
    73   6 C    3.907 --    66 C    1.326    76 N    1.221    74 C    1.180
    74   6 C    3.954 --    75 C    1.642    73 C    1.180   105 H    0.972
    75   6 C    3.957 --    74 C    1.642    77 C    1.187   106 H    0.974
    76   7 N    3.247 --    77 C    1.258    73 C    1.221    59 Cu   0.502
    77   6 C    3.897 --    76 N    1.258    78 C    1.257    75 C    1.187
    78   6 C    3.937 --    79 C    1.257    77 C    1.257   124 C    1.191
    79   6 C    3.897 --    83 N    1.258    78 C    1.257    80 C    1.187
    80   6 C    3.957 --    81 C    1.642    79 C    1.187   107 H    0.974
    81   6 C    3.954 --    80 C    1.642    82 C    1.180   108 H    0.972
    82   6 C    3.907 --    84 C    1.326    83 N    1.221    81 C    1.180
    83   7 N    3.247 --    79 C    1.258    82 C    1.221    59 Cu   0.502
    84   6 C    3.935 --    82 C    1.326    91 C    1.318    85 C    1.025
    85   6 C    3.988 --    86 C    1.768    90 C    1.098    84 C    1.025
    86   6 C    3.971 --    85 C    1.768    87 C    1.013   109 H    0.972
    87   6 C    3.961 --    86 C    1.013   110 H    0.976   111 H    0.966
                            88 N    0.949
    88   7 N    3.248 --    89 C    1.161    87 C    0.949   112 H    0.928
                            90 C    0.127
    89   6 C    3.958 --    90 C    1.692    88 N    1.161   113 H    0.971
    90   6 C    3.968 --    89 C    1.692    85 C    1.098   114 H    0.974
                            88 N    0.127
    91   6 C    3.913 --    84 C    1.318    95 N    1.239    92 C    1.174
    92   6 C    3.958 --    93 C    1.653    91 C    1.174   115 H    0.974
    93   6 C    3.955 --    92 C    1.653    94 C    1.172   116 H    0.976
    94   6 C    3.920 --    60 C    1.360    95 N    1.230    93 C    1.172
    95   7 N    3.243 --    91 C    1.239    94 C    1.230    59 Cu   0.505
    96   1 H    1.002 --    60 C    0.971
    97   1 H    0.998 --    62 C    0.976
    98   1 H    1.007 --    63 C    0.974
    99   1 H    1.003 --    68 C    0.972
   100   1 H    1.019 --    69 C    0.976
   101   1 H    1.008 --    69 C    0.966
   102   1 H    0.964 --    70 N    0.928
   103   1 H    1.001 --    71 C    0.971
   104   1 H    1.003 --    72 C    0.974
   105   1 H    1.006 --    74 C    0.972
   106   1 H    1.002 --    75 C    0.974
   107   1 H    1.002 --    80 C    0.974
   108   1 H    1.006 --    81 C    0.972
   109   1 H    1.003 --    86 C    0.972
   110   1 H    1.019 --    87 C    0.976
   111   1 H    1.008 --    87 C    0.966
   112   1 H    0.964 --    88 N    0.928
   113   1 H    1.001 --    89 C    0.971
   114   1 H    1.003 --    90 C    0.974
   115   1 H    1.007 --    92 C    0.974
   116   1 H    0.998 --    93 C    0.976
   117   6 C    3.877 --   118 C    2.440    20 C    1.191   120 C    0.187
   118   6 C    3.935 --   117 C    2.440   119 C    1.344
   119   6 C    3.893 --   120 C    2.336   118 C    1.344   122 C    0.182
   120   6 C    3.926 --   119 C    2.336   121 C    1.369   117 C    0.187
   121   6 C    3.926 --   122 C    2.337   120 C    1.369   124 C    0.187
   122   6 C    3.893 --   121 C    2.337   123 C    1.344   119 C    0.182
   123   6 C    3.935 --   124 C    2.440   122 C    1.344
   124   6 C    3.877 --   123 C    2.440    78 C    1.191   121 C    0.187
 ---------------------------------------------------------------------------

           -------------------------------------------------
          | TOTAL ENERGY             -213.427206244737 Eh   |
          | GRADIENT NORM               0.000439663740 Eh/α |
          | HOMO-LUMO GAP               0.002117716506 eV   |
           -------------------------------------------------

 * finished run on 2022/07/30 at 06:18:51.462
