   * xtb version 6.5.1 (b24c23e) compiled by 'conda@728c89f4b128' on 2022-07-12
          program call               : xtb Ph3OH_C8_2.xyz --gfn 1 --opt -T 48

   ID    Z sym.   atoms
    1    6 C      1-5, 7-10, 12, 14, 16-19, 21-26, 28-31, 33, 35, 37-41,
                  64-68, 70-73, 75, 77, 79-82, 84-89, 91-94, 96, 98, 100-104,
                  127-134
    2    7 N      6, 20, 27, 42, 69, 83, 90, 105
    3    8 O      11, 13, 15, 32, 34, 36, 74, 76, 78, 95, 97, 99
    4    1 H      43-63, 106-126
########################################################################
[WARNING] Please study the warnings concerning your input carefully
-1- prog_main_parseArguments: Unknown option '-T' provided
########################################################################

          :  Hamiltonian                  GFN1-xTB          :
 * total energy  :  -256.1396220 Eh     change       -0.5215497E-08 Eh
 * total energy  :  -256.4106683 Eh     change       -0.2710463E+00 Eh
 * total energy  :  -256.4996150 Eh     change       -0.8894673E-01 Eh
 * total energy  :  -256.5325864 Eh     change       -0.3297145E-01 Eh
 * total energy  :  -256.5454503 Eh     change       -0.1286381E-01 Eh
 * total energy  :  -256.5526286 Eh     change       -0.7178340E-02 Eh
 * total energy  :  -256.5551008 Eh     change       -0.2472201E-02 Eh
 * total energy  :  -256.5569153 Eh     change       -0.1814522E-02 Eh
 * total energy  :  -256.5585454 Eh     change       -0.1630045E-02 Eh
 * total energy  :  -256.5600675 Eh     change       -0.1522158E-02 Eh
 * total energy  :  -256.5666903 Eh     change       -0.1363025E-04 Eh
 * total energy  :  -256.5666993 Eh     change       -0.9048546E-05 Eh
 * total energy  :  -256.5667084 Eh     change       -0.9034855E-05 Eh
 * total energy  :  -256.5667164 Eh     change       -0.7981438E-05 Eh
 * total energy  :  -256.5667238 Eh     change       -0.7438706E-05 Eh
 * total energy  :  -256.5667330 Eh     change       -0.9154862E-05 Eh
 * total energy  :  -256.5667439 Eh     change       -0.1092207E-04 Eh
 * total energy  :  -256.5667548 Eh     change       -0.1092776E-04 Eh
 * total energy  :  -256.5667566 Eh     change       -0.1817376E-05 Eh
   *** GEOMETRY OPTIMIZATION CONVERGED AFTER 44 ITERATIONS ***

 final structure:
================
134
 xtb: 6.5.1 (b24c23e)
C            9.03123228938391       -0.43367514873490        0.19649082418740
C            9.64701889210707       -1.15981793364545       -0.81473523626048
C            9.00454423946126       -1.95884744816353       -1.80175731066284
C            9.97123568233917       -2.49160560747377       -2.60730468678120
C           11.23703839748989       -2.04871257694477       -2.12797218206581
N           10.98956334828233       -1.24015082654677       -1.05483846186740
C           12.50458790274343       -2.35641448840459       -2.63482584005813
C           12.55681886816929       -3.26324782091215       -3.80866371504128
C           13.12228029003693       -2.81017721133159       -5.00396694586294
C           13.16808565045858       -3.65090205743529       -6.10873038701315
O           13.69822111495060       -3.27346442791186       -7.31452815767333
C           12.65974505953179       -4.94479984908856       -6.02694993412596
O           12.69566715630758       -5.79535556643066       -7.10057293683296
C           12.09938821895087       -5.39999888813326       -4.83235006896211
O           11.61239239917927       -6.66290671358856       -4.76166645023267
C           12.04437927065370       -4.55811433748644       -3.72743752652534
C           13.71054683822259       -1.87714769187755       -2.11716766882219
C           15.01691184843091       -2.29647886855442       -2.59157481925682
C           15.92557686666154       -1.63501852907455       -1.84513162685392
N           13.84866325025853       -0.98798618678864       -1.09499466475110
C           15.17352519834249       -0.81346150329434       -0.91682924325099
C           15.79540207579180        0.05117428261779        0.00807755531775
C           15.14372643360589        0.87613061313472        0.94482272306678
C           15.76645519995394        1.80538113298916        1.81939229940149
C           14.78841193809119        2.40666547246793        2.56227804054694
C           13.53793020135803        1.84970657896363        2.17521895796875
N           13.80407520901484        0.93898888143822        1.18622700257559
C           12.27151005938518        2.15847438057920        2.68317434191340
C           12.20664475025258        3.16982309012605        3.76649976427773
C           12.88135073476358        2.96525582360875        4.97045210395699
C           12.81169356510684        3.91854448418488        5.97986371205640
O           13.45730714121809        3.72549890761345        7.15578813423323
C           12.07154629613914        5.08584627959970        5.78508446185294
O           12.02446483234265        6.00940329740477        6.79608412997957
C           11.39987699456798        5.29114645944023        4.58258575417398
O           10.69719216334714        6.46149713233454        4.46276972333869
C           11.46167962975799        4.33731534211481        3.57482270332412
C           11.07317917013830        1.58416508060272        2.24318505203263
C            9.77461884115242        1.83870232941882        2.84754705944511
C            8.87963952859941        1.10585665528328        2.15455516958271
C            9.63019056785619        0.40138510401153        1.13056859251369
N           10.94884492662720        0.70342095878013        1.22245739075682
H            7.95106736887928       -0.52681538697630        0.24837197114604
H            7.93744016754725       -2.09308184653935       -1.88004621657450
H            9.82562739850778       -3.13196754036584       -3.46202041295660
H           11.70885724082602       -0.76758946282698       -0.51761108717128
H           13.50852327272869       -1.80036078503907       -5.07775635236275
H           14.03432799455247       -2.36852420688221       -7.27378359002436
H           13.11831404731865       -5.32735100060602       -7.83825730354420
H           11.74760040929661       -7.09054363697287       -5.62342500764586
H           11.62355456203067       -4.92875605543750       -2.80167872150468
H           15.19373429384607       -3.01611568021554       -3.37449105355508
H           17.00142936343122       -1.68556402397839       -1.89549546090611
H           16.82781145322180        1.99015972484962        1.86038078187169
H           14.91855926634555        3.17307648821194        3.30867661892569
H           13.09456456539610        0.39558260917167        0.70556791937547
H           13.44297234362566        2.05596996282855        5.14150814288914
H           13.28696498114460        4.49248823568271        7.72714249917444
H           11.47267253049295        6.75016385375097        6.49842559418782
H           10.26136306873138        6.51375861990863        3.60206585230101
H           10.94825985931898        4.51047181347728        2.63630703692503
H            9.59844891538351        2.47810595568699        3.69766483397307
H            7.81404147925643        1.02489221808376        2.30234839909006
C           34.29872411592613       -0.30688339382547        0.37545310799160
C           33.68236949053787        0.49364782485597        1.32852226935645
C           34.32429346579026        1.25008225807974        2.34886543822418
C           33.35748746741871        1.90045904819213        3.06264903843573
C           32.09202284539157        1.54877290136027        2.51201340145062
N           32.33999906521252        0.70945860455100        1.46286227005772
C           30.82441141145617        1.96574524877994        2.93369749015573
C           30.77198099519481        2.87577241820079        4.10490332102278
C           30.20413933769334        4.14545954450114        3.96593254516460
C           30.15853885372703        5.00493236486240        5.05617749380076
O           29.62561365860519        6.26567101911656        4.99305186841606
C           30.67015952007064        4.60358338725202        6.28761434740401
O           30.63504929012723        5.43072078684621        7.37938639105706
C           31.23307937606495        3.33415679272456        6.42888294550041
O           31.72351838707795        2.95124900261437        7.63302111544522
C           31.28710474239326        2.47455408399150        5.33769006039886
C           29.61881020466780        1.58642884558989        2.33792238361827
C           28.31198054057434        1.94342274626743        2.85971338845010
C           27.40399673340541        1.38702994451657        2.03120860398628
N           29.48153093896979        0.81838896770010        1.22177111556717
C           28.15683830182006        0.69146746056619        1.00574889123794
C           27.53570729815466        0.01118250646613       -0.06253126637505
C           28.18814332435042       -0.69115585440167       -1.09389338038282
C           27.56684959207462       -1.30630452960198       -2.21269996240252
C           28.54566743593312       -1.87796662859223       -2.97763640356528
C           29.79510040882259       -1.64337151626609       -2.33922567436256
N           29.52776206137586       -0.91110095273726       -1.21205201356460
C           31.06150939070024       -2.06129840150782       -2.76168732445826
C           31.12701103770157       -2.85963729942299       -4.01042497207941
C           30.45466296933828       -4.07800414230363       -4.11008968307227
C           30.52478202392838       -4.81932409281912       -5.28400112319970
O           29.88187875695568       -6.00790553507558       -5.38791761794973
C           31.26243413643700       -4.33922218822312       -6.36738312538327
O           31.30963877406618       -5.08922748489877       -7.51307882745025
C           31.93148551065768       -3.12187870931597       -6.26877248548960
O           32.63137438259838       -2.71359146936879       -7.37389725523501
C           31.86984905192824       -2.38261684370814       -5.09448433662089
C           32.25899082925576       -1.78092664981306       -2.09347787503771
C           33.55715990706159       -2.30555233413440       -2.48817371043676
C           34.45133744994016       -1.81975626060955       -1.60345299695609
C           33.70067990797823       -1.00212445789197       -0.66738063255105
N           32.38273252252207       -1.01234631542251       -0.98578385961112
H           35.37850573196364       -0.38284563962765        0.45557957236657
H           35.39115300420137        1.29023231194165        2.50070278617711
H           33.50300463655342        2.56956558283738        3.89505491605781
H           31.62122834600815        0.30795689498672        0.87001045490701
H           29.81599810114441        4.46882037613391        3.00721646367567
H           29.28688432200976        6.45142576706558        4.10744425998988
H           30.21005285711186        6.26102033038489        7.11140078823742
H           31.58889400477520        3.67885436812644        8.26249992572362
H           31.70942484223629        1.48611817369035        5.46475006641682
H           28.13406935416506        2.52228048515484        3.75154351552174
H           26.32809341718050        1.42536043042884        2.09048660303107
H           26.50592998062245       -1.29832885005769       -2.40424289975245
H           28.41687451775958       -2.41061628928248       -3.90561845435225
H           30.23628468151312       -0.58210304522099       -0.56439160281044
H           29.89445125560492       -4.47008732414803       -3.27109479887851
H           30.05224498004537       -6.37087909207835       -6.27276553912330
H           31.85839967429023       -4.61506284701164       -8.15792286039446
H           33.06439127659670       -1.86519797323813       -7.21201782582131
H           32.38159640277492       -1.42956850570699       -5.02966960397919
H           33.73337970061802       -2.96922838260434       -3.31948089665377
H           35.51643321956623       -1.98570953852234       -1.55952721640547
C           17.19942327477124        0.10710673042469       -0.00668219341434
C           18.42408838711682        0.12673875729676       -0.02867725470502
C           19.76618498530341        0.13630284203448       -0.05405465203652
C           20.99683638960423        0.12526064365201       -0.08338761290806
C           22.33413313983984        0.10791154290335       -0.10921158613866
C           23.56483226671774        0.08377366445453       -0.12939109343905
C           24.90707384894944        0.06461904469546       -0.12787200287724
C           26.13169026421031        0.03834638357104       -0.11377129622494

          :  Hamiltonian                  GFN1-xTB          :
         :: total energy            -256.566756624034 Eh    ::
         :: gradient norm              0.000627867080 Eh/a0 ::
         :: HOMO-LUMO gap              1.009950102925 eV    ::
         :: SCC energy              -260.206975557130 Eh    ::
         :: repulsion energy           3.750077253922 Eh    ::

    * Orbital Energies and Occupations

         #    Occupation            Energy/Eh            Energy/eV
      -------------------------------------------------------------
         1        2.0000           -0.8128291             -22.1182
       ...           ...                  ...                  ...
       209        2.0000           -0.4172106             -11.3529
       210        2.0000           -0.4155794             -11.3085
       211        2.0000           -0.4155560             -11.3079
       212        2.0000           -0.4137866             -11.2597
       213        2.0000           -0.4124929             -11.2245
       214        2.0000           -0.4116679             -11.2021
       215        2.0000           -0.4112066             -11.1895
       216        2.0000           -0.4101357             -11.1604
       217        2.0000           -0.4064853             -11.0610
       218        2.0000           -0.3989784             -10.8568
       219        2.0000           -0.3985724             -10.8457
       220        2.0000           -0.3857857             -10.4978
       221        2.0000           -0.3782111             -10.2916 (HOMO)
       222                         -0.3410961              -9.2817 (LUMO)
       223                         -0.3319987              -9.0341
       224                         -0.3310754              -9.0090
       225                         -0.3307269              -8.9995
       226                         -0.3033158              -8.2536
       227                         -0.2994187              -8.1476
       228                         -0.2947445              -8.0204
       229                         -0.2751457              -7.4871
       230                         -0.2552910              -6.9468
       231                         -0.2551492              -6.9430
       232                         -0.2542294              -6.9179
       ...                                ...                  ...
       452                          1.6055026              43.6880
      -------------------------------------------------------------
                  HL-Gap            0.0371150 Eh            1.0100 eV

Wiberg/Mayer (AO) data.
largest (>0.10) Wiberg bond orders for each atom

     #   Z sym  total        # sym  WBO       # sym  WBO       # sym  WBO
 ---------------------------------------------------------------------------
     1   6 C    3.925 --    41 C    1.366     2 C    1.346    43 H    0.971
     2   6 C    3.902 --     1 C    1.346     3 C    1.229     6 N    1.170
     3   6 C    3.953 --     4 C    1.595     2 C    1.229    44 H    0.977
     4   6 C    3.959 --     3 C    1.595     5 C    1.235    45 H    0.974
     5   6 C    3.895 --     7 C    1.303     4 C    1.235     6 N    1.177
     6   7 N    3.469 --     5 C    1.177     2 C    1.170    46 H    0.873
     7   6 C    3.939 --    17 C    1.335     5 C    1.303     8 C    1.029
     8   6 C    3.989 --    16 C    1.399     9 C    1.385     7 C    1.029
     9   6 C    3.974 --     8 C    1.385    10 C    1.385    47 H    0.969
    10   6 C    3.905 --     9 C    1.385    12 C    1.340    11 O    1.014
    11   8 O    2.025 --    10 C    1.014    48 H    0.861
    12   6 C    3.904 --    10 C    1.340    14 C    1.324    13 O    1.021
    13   8 O    2.021 --    12 C    1.021    49 H    0.846
    14   6 C    3.918 --    16 C    1.380    12 C    1.324    15 O    1.053
    15   8 O    2.048 --    14 C    1.053    50 H    0.847
    16   6 C    3.976 --     8 C    1.399    14 C    1.380    51 H    0.970
    17   6 C    3.914 --     7 C    1.335    20 N    1.285    18 C    1.126
    18   6 C    3.965 --    19 C    1.708    17 C    1.126    52 H    0.974
    19   6 C    3.963 --    18 C    1.708    21 C    1.129    53 H    0.974
    20   7 N    3.021 --    21 C    1.345    17 C    1.285
    21   6 C    3.907 --    20 N    1.345    22 C    1.251    19 C    1.129
    22   6 C    3.937 --    21 C    1.251    23 C    1.251   127 C    1.194
    23   6 C    3.884 --    22 C    1.251    24 C    1.249    27 N    1.190
    24   6 C    3.958 --    25 C    1.583    23 C    1.249    54 H    0.975
    25   6 C    3.955 --    24 C    1.583    26 C    1.241    55 H    0.974
    26   6 C    3.898 --    28 C    1.311    25 C    1.241    27 N    1.164
    27   7 N    3.474 --    23 C    1.190    26 C    1.164    56 H    0.873
    28   6 C    3.925 --    38 C    1.318    26 C    1.311    29 C    1.032
    29   6 C    3.989 --    30 C    1.398    37 C    1.384    28 C    1.032
    30   6 C    3.975 --    29 C    1.398    31 C    1.380    57 H    0.970
    31   6 C    3.918 --    30 C    1.380    33 C    1.324    32 O    1.053
    32   8 O    2.048 --    31 C    1.053    58 H    0.847
    33   6 C    3.903 --    35 C    1.340    31 C    1.324    34 O    1.021
    34   8 O    2.021 --    33 C    1.021    59 H    0.846
    35   6 C    3.905 --    37 C    1.385    33 C    1.340    36 O    1.013
    36   8 O    2.025 --    35 C    1.013    60 H    0.861
    37   6 C    3.971 --    35 C    1.385    29 C    1.384    61 H    0.969
    38   6 C    3.928 --    42 N    1.319    28 C    1.318    39 C    1.119
    39   6 C    3.967 --    40 C    1.720    38 C    1.119    62 H    0.974
    40   6 C    3.966 --    39 C    1.720    41 C    1.118    63 H    0.976
    41   6 C    3.929 --     1 C    1.366    42 N    1.299    40 C    1.118
    42   7 N    3.012 --    38 C    1.319    41 C    1.299
    43   1 H    1.002 --     1 C    0.971
    44   1 H    0.998 --     3 C    0.977
    45   1 H    1.005 --     4 C    0.974
    46   1 H    0.986 --     6 N    0.873
    47   1 H    1.001 --     9 C    0.969
    48   1 H    0.881 --    11 O    0.861
    49   1 H    0.876 --    13 O    0.846
    50   1 H    0.878 --    15 O    0.847
    51   1 H    1.000 --    16 C    0.970
    52   1 H    1.006 --    18 C    0.974
    53   1 H    1.003 --    19 C    0.974
    54   1 H    1.002 --    24 C    0.975
    55   1 H    1.005 --    25 C    0.974
    56   1 H    0.987 --    27 N    0.873
    57   1 H    1.000 --    30 C    0.970
    58   1 H    0.878 --    32 O    0.847
    59   1 H    0.876 --    34 O    0.846
    60   1 H    0.881 --    36 O    0.861
    61   1 H    1.001 --    37 C    0.969
    62   1 H    1.006 --    39 C    0.974
    63   1 H    0.998 --    40 C    0.976
    64   6 C    3.925 --   104 C    1.366    65 C    1.346   106 H    0.971
    65   6 C    3.902 --    64 C    1.346    66 C    1.230    69 N    1.170
    66   6 C    3.953 --    67 C    1.595    65 C    1.230   107 H    0.977
    67   6 C    3.959 --    66 C    1.595    68 C    1.235   108 H    0.974
    68   6 C    3.895 --    70 C    1.303    67 C    1.235    69 N    1.177
    69   7 N    3.469 --    68 C    1.177    65 C    1.170   109 H    0.873
    70   6 C    3.939 --    80 C    1.335    68 C    1.303    71 C    1.030
    71   6 C    3.989 --    79 C    1.398    72 C    1.385    70 C    1.030
    72   6 C    3.974 --    71 C    1.385    73 C    1.385   110 H    0.969
    73   6 C    3.905 --    72 C    1.385    75 C    1.340    74 O    1.014
    74   8 O    2.025 --    73 C    1.014   111 H    0.861
    75   6 C    3.904 --    73 C    1.340    77 C    1.324    76 O    1.021
    76   8 O    2.021 --    75 C    1.021   112 H    0.846
    77   6 C    3.918 --    79 C    1.380    75 C    1.324    78 O    1.053
    78   8 O    2.048 --    77 C    1.053   113 H    0.847
    79   6 C    3.976 --    71 C    1.398    77 C    1.380   114 H    0.970
    80   6 C    3.914 --    70 C    1.335    83 N    1.285    81 C    1.126
    81   6 C    3.965 --    82 C    1.708    80 C    1.126   115 H    0.974
    82   6 C    3.963 --    81 C    1.708    84 C    1.129   116 H    0.974
    83   7 N    3.021 --    84 C    1.345    80 C    1.285
    84   6 C    3.907 --    83 N    1.345    85 C    1.251    82 C    1.129
    85   6 C    3.937 --    84 C    1.251    86 C    1.250   134 C    1.194
    86   6 C    3.884 --    85 C    1.250    87 C    1.249    90 N    1.190
    87   6 C    3.959 --    88 C    1.583    86 C    1.249   117 H    0.975
    88   6 C    3.955 --    87 C    1.583    89 C    1.241   118 H    0.974
    89   6 C    3.898 --    91 C    1.311    88 C    1.241    90 N    1.164
    90   7 N    3.473 --    86 C    1.190    89 C    1.164   119 H    0.873
    91   6 C    3.925 --   101 C    1.319    89 C    1.311    92 C    1.031
    92   6 C    3.989 --    93 C    1.398   100 C    1.384    91 C    1.031
    93   6 C    3.975 --    92 C    1.398    94 C    1.380   120 H    0.970
    94   6 C    3.918 --    93 C    1.380    96 C    1.324    95 O    1.053
    95   8 O    2.049 --    94 C    1.053   121 H    0.847
    96   6 C    3.903 --    98 C    1.340    94 C    1.324    97 O    1.021
    97   8 O    2.021 --    96 C    1.021   122 H    0.846
    98   6 C    3.905 --   100 C    1.385    96 C    1.340    99 O    1.013
    99   8 O    2.025 --    98 C    1.013   123 H    0.861
   100   6 C    3.973 --    98 C    1.385    92 C    1.384   124 H    0.969
   101   6 C    3.928 --   105 N    1.319    91 C    1.319   102 C    1.119
   102   6 C    3.967 --   103 C    1.720   101 C    1.119   125 H    0.974
   103   6 C    3.966 --   102 C    1.720   104 C    1.118   126 H    0.976
   104   6 C    3.929 --    64 C    1.366   105 N    1.299   103 C    1.118
   105   7 N    3.012 --   101 C    1.319   104 C    1.299
   106   1 H    1.002 --    64 C    0.971
   107   1 H    0.998 --    66 C    0.977
   108   1 H    1.005 --    67 C    0.974
   109   1 H    0.986 --    69 N    0.873
   110   1 H    1.001 --    72 C    0.969
   111   1 H    0.881 --    74 O    0.861
   112   1 H    0.876 --    76 O    0.846
   113   1 H    0.878 --    78 O    0.847
   114   1 H    1.000 --    79 C    0.970
   115   1 H    1.006 --    81 C    0.974
   116   1 H    1.003 --    82 C    0.974
   117   1 H    1.002 --    87 C    0.975
   118   1 H    1.005 --    88 C    0.974
   119   1 H    0.987 --    90 N    0.873
   120   1 H    1.000 --    93 C    0.970
   121   1 H    0.878 --    95 O    0.847
   122   1 H    0.876 --    97 O    0.846
   123   1 H    0.881 --    99 O    0.861
   124   1 H    1.001 --   100 C    0.969
   125   1 H    1.006 --   102 C    0.974
   126   1 H    0.998 --   103 C    0.976
   127   6 C    3.877 --   128 C    2.435    22 C    1.194   130 C    0.186
   128   6 C    3.932 --   127 C    2.435   129 C    1.346
   129   6 C    3.892 --   130 C    2.333   128 C    1.346   132 C    0.182
   130   6 C    3.924 --   129 C    2.333   131 C    1.371   127 C    0.186
   131   6 C    3.924 --   132 C    2.333   130 C    1.371   134 C    0.186
   132   6 C    3.892 --   131 C    2.333   133 C    1.346   129 C    0.182
   133   6 C    3.932 --   134 C    2.435   132 C    1.346
   134   6 C    3.877 --   133 C    2.435    85 C    1.194   131 C    0.186
 ---------------------------------------------------------------------------

           -------------------------------------------------
          | TOTAL ENERGY             -256.566756624034 Eh   |
          | GRADIENT NORM               0.000627867080 Eh/α |
          | HOMO-LUMO GAP               1.009950102925 eV   |
           -------------------------------------------------

 * finished run on 2022/07/29 at 22:01:59.727
