   * xtb version 6.5.1 (b24c23e) compiled by 'conda@728c89f4b128' on 2022-07-12
          program call               : xtb Cu_H_C6_3.xyz --gfn 1 --opt -T 48

   ID    Z sym.   atoms
    1   29 Cu     1, 37, 85
    2    6 C      2-6, 8-11, 13-18, 20-24, 38-42, 44-47, 49-54, 56-60, 73-84,
                  86-90, 92-95, 97-102, 104-108
    3    7 N      7, 12, 19, 25, 43, 48, 55, 61, 91, 96, 103, 109
    4    1 H      26-36, 62-72, 110-119

          :  Hamiltonian                  GFN1-xTB          :
 * total energy  :  -220.1785110 Eh     change        0.4880434E-08 Eh
 * total energy  :  -220.4343802 Eh     change       -0.2558693E+00 Eh
 * total energy  :  -220.5178190 Eh     change       -0.8343875E-01 Eh
 * total energy  :  -220.5493429 Eh     change       -0.3152387E-01 Eh
 * total energy  :  -220.5644196 Eh     change       -0.1507676E-01 Eh
 * total energy  :  -220.5802601 Eh     change       -0.1584053E-01 Eh
 * total energy  :  -220.6020762 Eh     change       -0.2181605E-01 Eh
 * total energy  :  -220.6341497 Eh     change       -0.3207346E-01 Eh
 * total energy  :  -220.6757542 Eh     change       -0.4160459E-01 Eh
 * total energy  :  -220.7211583 Eh     change       -0.4540407E-01 Eh
 * total energy  :  -220.9818864 Eh     change       -0.1230725E-03 Eh
 * total energy  :  -220.9820221 Eh     change       -0.1357155E-03 Eh
 * total energy  :  -220.9821142 Eh     change       -0.9207767E-04 Eh
 * total energy  :  -220.9821698 Eh     change       -0.5560423E-04 Eh
 * total energy  :  -220.9822001 Eh     change       -0.3028742E-04 Eh
 * total energy  :  -220.9822181 Eh     change       -0.1796662E-04 Eh
 * total energy  :  -220.9822304 Eh     change       -0.1226818E-04 Eh
 * total energy  :  -220.9822368 Eh     change       -0.6432086E-05 Eh
 * total energy  :  -220.9822406 Eh     change       -0.3830248E-05 Eh
   *** GEOMETRY OPTIMIZATION CONVERGED AFTER 61 ITERATIONS ***

 final structure:
================
119
 xtb: 6.5.1 (b24c23e)
Cu          13.55741974433754       -0.01941939896300       -0.01566714680921
C           10.13268216135675       -0.03537501524902       -0.04625318211883
C           10.77386024308114       -0.90749972151139       -0.91448037100057
C           10.11240999783122       -1.80940562409826       -1.81734755784233
C           11.08164332636231       -2.48286806724492       -2.48546935940033
C           12.34296596593204       -1.99771184909967       -1.99653639206877
N           12.12537572144950       -1.04398703483952       -1.04526645225912
C           13.58731283182926       -2.43347131810835       -2.42906736627178
C           14.81950891387258       -1.98361025427152       -1.97904047453600
C           16.08873447138690       -2.45646201469284       -2.45293565029005
C           17.04417583014720       -1.77392920255386       -1.77202790185518
N           15.02021217141032       -1.02585206934196       -1.02137800597249
C           16.36449788575966       -0.88137726213788       -0.87810111423124
C           17.00534694291882        0.00333242310974        0.00843035051104
C           16.34110590654621        0.87734755084489        0.88812939829817
C           16.99634144816200        1.77543635560595        1.79462396087090
C           16.02246670256560        2.44139773019965        2.46581688692172
C           14.76633122310507        1.95409039345361        1.97199683539968
N           14.99310450082872        1.00301387450682        1.01355703143456
C           13.52202291000060        2.38804260006389        2.40407682799203
C           12.28973171532226        1.94177776436163        1.94831712991444
C           11.01541256758192        2.41488684665250        2.41488768303777
C           10.06456003718191        1.73539646038357        1.72676475584925
C           10.75034287978196        0.84127946034957        0.83437712817870
N           12.09799724329333        0.98893201825727        0.99059833834894
H            9.04766013151229       -0.03983391390040       -0.05635851881002
H            9.04209476902916       -1.90301493232399       -1.91506134844703
H           10.96937344733237       -3.24211467055570       -3.24364110169586
H           13.59808247192428       -3.20133542494010       -3.19589218996862
H           16.21790958870455       -3.21373578902769       -3.21014739700434
H           18.11588579462002       -1.85824333056647       -1.85785233783716
H           18.06555882766938        1.87390409681659        1.89534275100841
H           16.13095120051733        3.19657067083531        3.22836544754803
H           13.51179189735793        3.15289463889433        3.17391600163398
H           10.88254787863101        3.17115126281687        3.17270714281091
H            8.99184842693670        1.81994639880107        1.80443265953880
Cu          45.71633284069708        0.00538188890934       -0.00999632151431
C           49.14082148423621        0.03903988047579        0.01413678536044
C           48.49968343126709        1.26808615861407       -0.04806621360340
C           49.16124740323315        2.54304013532614       -0.10284171513300
C           48.19214617710566        3.49051207593751       -0.15202369771515
C           46.93072017015171        2.80227083103575       -0.12731965532749
N           47.14819806488273        1.45663118863118       -0.06522331890032
C           45.68651386989987        3.41564033738979       -0.15874989274873
C           44.45425078878216        2.77983022288142       -0.13365755579304
C           43.18498309214300        3.44867329670107       -0.16471897534233
C           42.22950296144438        2.48547499045434       -0.12607289613821
N           44.25359084658358        1.42679187014816       -0.07661863215310
C           42.90910532676657        1.22327154709135       -0.07172123370102
C           42.26888929931542       -0.02824698027860       -0.02763527996675
C           42.93283432199271       -1.26707720404825        0.02054058558567
C           42.27742000291864       -2.54236586860882        0.06534068203561
C           43.25106216047927       -3.48687669082850        0.11147094098684
C           44.50732491804300       -2.79337136254892        0.09503022065448
N           44.28093446977037       -1.44440163826014        0.03816307439484
C           45.75142456649418       -3.40498295664607        0.13418337783925
C           46.98367146685882       -2.76727535617838        0.12071908632050
C           48.25790915448675       -3.43060583692476        0.16331934595824
C           49.20879219442429       -2.46418251740556        0.12984042828729
C           48.52315310575325       -1.20241999605227        0.06644260592116
N           47.17553053421070       -1.41753527006657        0.06341056156188
H           50.22581542623735        0.04974112918079        0.02228537271642
H           50.23156590006652        2.67833441401728       -0.10278346516008
H           48.30451095465609        4.56238121039259       -0.20054962669793
H           45.67585114667533        4.49976552198053       -0.20668921048526
H           43.05590661689853        4.51861993513249       -0.21037222510818
H           41.15780044102341        2.60563070624894       -0.13381845570409
H           41.20820579104848       -2.68320665470529        0.06202991700689
H           43.14242857098791       -4.55923529762410        0.15359933841801
H           45.76142508574278       -4.48919556716774        0.18024840530436
H           48.39065060422189       -4.50011655544264        0.21238568600664
H           50.28144839538966       -2.57838348798890        0.14576969371604
C           22.20797753195633        0.01887671756406        0.02110302621956
C           20.97979729969890        0.02088113449178        0.02238241376301
C           19.63485198691165        0.01943856116071        0.02062575357115
C           18.41113545346030        0.01306780976881        0.01505411687623
C           23.55278889454370        0.01421883524887        0.01820430817452
C           24.77671523093654        0.00662953675717        0.01278389102001
C           38.29328028546004       -0.05400929758847       -0.03406737898738
C           37.06534854545447       -0.05635673064215       -0.03363459343019
C           35.71988876164735       -0.05547010402192       -0.03141589828334
C           34.49629308150865       -0.05238083461040       -0.02747266861789
C           39.63887565528831       -0.04781995767096       -0.03333463896084
C           40.86227061374419       -0.04104171017463       -0.03184858732177
Cu          29.63620759728343       -0.02334090561368       -0.00751483390960
C           26.18188869849619       -0.00137968292736        0.00650670068246
C           26.84442316942590        0.92648216759461        0.83161281940394
C           26.18754269415259        1.88016837510501        1.67812523654736
C           27.16063066604939        2.59051372605684        2.30389804089579
C           28.41694391865099        2.07372140282848        1.84236523688108
N           28.19161764018047        1.06180730101859        0.94869747486020
C           29.66160983258618        2.53634670422123        2.24302302148526
C           30.89702563601190        2.06639179264700        1.82246780594872
C           32.16353851459073        2.57655996470452        2.26309585908887
C           33.12239584976626        1.85535893239427        1.62793981470843
N           31.10206859095081        1.04880308190741        0.93057479919501
C           32.44660954869041        0.90095625144594        0.79713443213938
C           33.09032428357333       -0.04501915514140       -0.02174385083775
C           32.42826853939982       -0.98320960247040       -0.83478248803850
C           33.08516835768632       -1.94628895971534       -1.67066459603421
C           32.11210692084740       -2.65596181114915       -2.29718996982749
C           30.85575235838348       -2.12923669832847       -1.84698804415782
N           31.08090034925158       -1.11410258416923       -0.95718551460460
C           29.61106183878943       -2.58294835632986       -2.25799476308562
C           28.37564390607334       -2.10396163603780       -1.84801443500766
C           27.10918387015042       -2.60397879912796       -2.30019356284061
C           26.15027041524161       -1.88170215168457       -1.66624775208400
C           26.82597704803095       -0.93709697844899       -0.82437307487347
N           28.17036729361239       -1.08959925232784       -0.95224748280052
H           25.11819439326791        1.98333750394368        1.77254443634967
H           27.05096261081438        3.39393323815828        3.01524797812723
H           29.66977972705008        3.35110242364272        2.96012729741215
H           32.28919285258207        3.38306615210162        2.96828151552299
H           34.19369594222117        1.95079186522638        1.70709464903312
H           34.15452632354445       -2.05511672610446       -1.75845335773584
H           32.22181232805152       -3.46457803009123       -3.00263408214285
H           29.60303870940821       -3.39781102296662       -2.97498864023879
H           26.98357107648499       -3.40524861647439       -3.01133365348040
H           25.07897679685874       -1.97093162649133       -1.75246795853179

          :  Hamiltonian                  GFN1-xTB          :
         :: total energy            -220.982240614014 Eh    ::
         :: gradient norm              0.000344250855 Eh/a0 ::
         :: HOMO-LUMO gap              0.000012654952 eV    ::
         :: SCC energy              -224.570931935866 Eh    ::
         :: repulsion energy           3.690218411750 Eh    ::

    * Orbital Energies and Occupations

         #    Occupation            Energy/Eh            Energy/eV
      -------------------------------------------------------------
         1        2.0000           -0.7649696             -20.8159
       ...           ...                  ...                  ...
       195        2.0000           -0.4086974             -11.1212
       196        2.0000           -0.4086720             -11.1205
       197        2.0000           -0.4082505             -11.1091
       198        2.0000           -0.4081531             -11.1064
       199        2.0000           -0.4076291             -11.0922
       200        2.0000           -0.3962223             -10.7818
       201        2.0000           -0.3961940             -10.7810
       202        2.0000           -0.3959189             -10.7735
       203        2.0000           -0.3936934             -10.7129
       204        2.0000           -0.3881884             -10.5631
       205        2.0000           -0.3805643             -10.3557
       206        1.0220           -0.3559279              -9.6853
       207        0.9891           -0.3558575              -9.6834 (HOMO)
       208        0.9889           -0.3558570              -9.6834 (LUMO)
       209        0.0000           -0.3413423              -9.2884
       210                         -0.3335184              -9.0755
       211                         -0.3282372              -8.9318
       212                         -0.3282120              -8.9311
       213                         -0.3276881              -8.9168
       214                         -0.3276733              -8.9164
       215                         -0.3036749              -8.2634
       216                         -0.2956221              -8.0443
       217                         -0.2922638              -7.9529
       218                         -0.2840754              -7.7301
       ...                                ...                  ...
       427                          1.5798668              42.9904
      -------------------------------------------------------------
                  HL-Gap            0.0000005 Eh            0.0000 eV

Wiberg/Mayer (AO) data.
largest (>0.10) Wiberg bond orders for each atom

     #   Z sym  total        # sym  WBO       # sym  WBO       # sym  WBO
 ---------------------------------------------------------------------------
     1  29 Cu   2.194 --    25 N    0.507     7 N    0.507    12 N    0.504
                            19 N    0.504
     2   6 C    3.934 --    24 C    1.362     3 C    1.362    26 H    0.972
     3   6 C    3.917 --     2 C    1.362     7 N    1.234     4 C    1.166
     4   6 C    3.955 --     5 C    1.662     3 C    1.166    27 H    0.976
     5   6 C    3.957 --     4 C    1.662     6 C    1.167    28 H    0.976
     6   6 C    3.914 --     8 C    1.360     7 N    1.233     5 C    1.167
     7   7 N    3.247 --     3 C    1.234     6 C    1.233     1 Cu   0.507
     8   6 C    3.940 --     9 C    1.368     6 C    1.360    29 H    0.971
     9   6 C    3.909 --     8 C    1.368    12 N    1.216    10 C    1.173
    10   6 C    3.953 --    11 C    1.649     9 C    1.173    30 H    0.976
    11   6 C    3.956 --    10 C    1.649    13 C    1.182    31 H    0.974
    12   7 N    3.252 --    13 C    1.261     9 C    1.216     1 Cu   0.504
    13   6 C    3.897 --    12 N    1.261    14 C    1.260    11 C    1.182
    14   6 C    3.944 --    15 C    1.260    13 C    1.260    76 C    1.188
    15   6 C    3.897 --    19 N    1.261    14 C    1.260    16 C    1.182
    16   6 C    3.956 --    17 C    1.649    15 C    1.182    32 H    0.974
    17   6 C    3.953 --    16 C    1.649    18 C    1.173    33 H    0.976
    18   6 C    3.909 --    20 C    1.368    19 N    1.216    17 C    1.173
    19   7 N    3.251 --    15 C    1.261    18 C    1.216     1 Cu   0.504
    20   6 C    3.940 --    18 C    1.368    21 C    1.360    34 H    0.971
    21   6 C    3.914 --    20 C    1.360    25 N    1.233    22 C    1.167
    22   6 C    3.957 --    23 C    1.662    21 C    1.167    35 H    0.976
    23   6 C    3.955 --    22 C    1.662    24 C    1.166    36 H    0.976
    24   6 C    3.917 --     2 C    1.362    25 N    1.234    23 C    1.166
    25   7 N    3.247 --    24 C    1.234    21 C    1.233     1 Cu   0.507
    26   1 H    1.001 --     2 C    0.972
    27   1 H    0.998 --     4 C    0.976
    28   1 H    0.998 --     5 C    0.976
    29   1 H    1.001 --     8 C    0.971
    30   1 H    0.998 --    10 C    0.976
    31   1 H    1.002 --    11 C    0.974
    32   1 H    1.002 --    16 C    0.974
    33   1 H    0.998 --    17 C    0.976
    34   1 H    1.001 --    20 C    0.971
    35   1 H    0.998 --    22 C    0.976
    36   1 H    0.998 --    23 C    0.976
    37  29 Cu   2.195 --    61 N    0.507    43 N    0.507    48 N    0.504
                            55 N    0.504
    38   6 C    3.935 --    60 C    1.362    39 C    1.362    62 H    0.972
    39   6 C    3.917 --    38 C    1.362    43 N    1.234    40 C    1.166
    40   6 C    3.955 --    41 C    1.662    39 C    1.166    63 H    0.976
    41   6 C    3.957 --    40 C    1.662    42 C    1.167    64 H    0.976
    42   6 C    3.914 --    44 C    1.360    43 N    1.233    41 C    1.167
    43   7 N    3.248 --    39 C    1.234    42 C    1.233    37 Cu   0.507
    44   6 C    3.940 --    45 C    1.368    42 C    1.360    65 H    0.971
    45   6 C    3.909 --    44 C    1.368    48 N    1.217    46 C    1.173
    46   6 C    3.954 --    47 C    1.650    45 C    1.173    66 H    0.976
    47   6 C    3.957 --    46 C    1.650    49 C    1.181    67 H    0.974
    48   7 N    3.252 --    49 C    1.260    45 C    1.217    37 Cu   0.504
    49   6 C    3.898 --    50 C    1.261    48 N    1.260    47 C    1.181
    50   6 C    3.945 --    51 C    1.262    49 C    1.261    84 C    1.184
    51   6 C    3.898 --    50 C    1.262    55 N    1.260    52 C    1.181
    52   6 C    3.957 --    53 C    1.650    51 C    1.181    68 H    0.974
    53   6 C    3.954 --    52 C    1.650    54 C    1.173    69 H    0.976
    54   6 C    3.909 --    56 C    1.367    55 N    1.217    53 C    1.173
    55   7 N    3.252 --    51 C    1.260    54 C    1.217    37 Cu   0.504
    56   6 C    3.940 --    54 C    1.367    57 C    1.360    70 H    0.971
    57   6 C    3.914 --    56 C    1.360    61 N    1.233    58 C    1.167
    58   6 C    3.957 --    59 C    1.662    57 C    1.167    71 H    0.976
    59   6 C    3.955 --    58 C    1.662    60 C    1.166    72 H    0.976
    60   6 C    3.917 --    38 C    1.362    61 N    1.234    59 C    1.166
    61   7 N    3.248 --    60 C    1.234    57 C    1.233    37 Cu   0.507
    62   1 H    1.001 --    38 C    0.972
    63   1 H    0.998 --    40 C    0.976
    64   1 H    0.998 --    41 C    0.976
    65   1 H    1.001 --    44 C    0.971
    66   1 H    0.998 --    46 C    0.976
    67   1 H    1.002 --    47 C    0.974
    68   1 H    1.002 --    52 C    0.974
    69   1 H    0.998 --    53 C    0.976
    70   1 H    1.001 --    56 C    0.971
    71   1 H    0.998 --    58 C    0.976
    72   1 H    0.998 --    59 C    0.976
    73   6 C    3.927 --    74 C    2.371    77 C    1.333    76 C    0.191
    74   6 C    3.926 --    73 C    2.371    75 C    1.333    78 C    0.191
    75   6 C    3.937 --    76 C    2.453    74 C    1.333
    76   6 C    3.891 --    75 C    2.453    14 C    1.188    73 C    0.191
    77   6 C    3.934 --    78 C    2.451    73 C    1.333
    78   6 C    3.891 --    77 C    2.451    86 C    1.191    74 C    0.191
    79   6 C    3.925 --    80 C    2.375    83 C    1.329    82 C    0.190
    80   6 C    3.926 --    79 C    2.375    81 C    1.330    84 C    0.190
    81   6 C    3.934 --    82 C    2.455    80 C    1.330
    82   6 C    3.891 --    81 C    2.455    98 C    1.187    79 C    0.190
    83   6 C    3.937 --    84 C    2.457    79 C    1.329
    84   6 C    3.890 --    83 C    2.457    50 C    1.184    80 C    0.190
    85  29 Cu   2.163 --   109 N    0.499    96 N    0.499    91 N    0.499
                           103 N    0.499
    86   6 C    3.934 --    87 C    1.257   108 C    1.257    78 C    1.191
    87   6 C    3.897 --    91 N    1.264    86 C    1.257    88 C    1.182
    88   6 C    3.955 --    89 C    1.648    87 C    1.182   110 H    0.974
    89   6 C    3.954 --    88 C    1.648    90 C    1.175   111 H    0.976
    90   6 C    3.907 --    92 C    1.365    91 N    1.217    89 C    1.175
    91   7 N    3.244 --    87 C    1.264    90 C    1.217    85 Cu   0.499
    92   6 C    3.936 --    90 C    1.365    93 C    1.364   112 H    0.971
    93   6 C    3.907 --    92 C    1.364    96 N    1.218    94 C    1.174
    94   6 C    3.955 --    95 C    1.648    93 C    1.174   113 H    0.976
    95   6 C    3.955 --    94 C    1.648    97 C    1.182   114 H    0.974
    96   7 N    3.244 --    97 C    1.263    93 C    1.218    85 Cu   0.499
    97   6 C    3.898 --    96 N    1.263    98 C    1.259    95 C    1.182
    98   6 C    3.934 --    99 C    1.259    97 C    1.259    82 C    1.187
    99   6 C    3.898 --   103 N    1.263    98 C    1.259   100 C    1.182
   100   6 C    3.955 --   101 C    1.648    99 C    1.182   115 H    0.974
   101   6 C    3.955 --   100 C    1.648   102 C    1.174   116 H    0.976
   102   6 C    3.907 --   104 C    1.364   103 N    1.218   101 C    1.174
   103   7 N    3.244 --    99 C    1.263   102 C    1.218    85 Cu   0.499
   104   6 C    3.936 --   105 C    1.365   102 C    1.364   117 H    0.971
   105   6 C    3.907 --   104 C    1.365   109 N    1.217   106 C    1.175
   106   6 C    3.954 --   107 C    1.648   105 C    1.175   118 H    0.976
   107   6 C    3.955 --   106 C    1.648   108 C    1.182   119 H    0.974
   108   6 C    3.897 --   109 N    1.264    86 C    1.257   107 C    1.182
   109   7 N    3.244 --   108 C    1.264   105 C    1.217    85 Cu   0.499
   110   1 H    1.002 --    88 C    0.974
   111   1 H    0.998 --    89 C    0.976
   112   1 H    1.002 --    92 C    0.971
   113   1 H    0.998 --    94 C    0.976
   114   1 H    1.002 --    95 C    0.974
   115   1 H    1.002 --   100 C    0.974
   116   1 H    0.998 --   101 C    0.976
   117   1 H    1.002 --   104 C    0.971
   118   1 H    0.998 --   106 C    0.976
   119   1 H    1.002 --   107 C    0.974
 ---------------------------------------------------------------------------

           -------------------------------------------------
          | TOTAL ENERGY             -220.982240614014 Eh   |
          | GRADIENT NORM               0.000344250855 Eh/α |
          | HOMO-LUMO GAP               0.000012654952 eV   |
           -------------------------------------------------

 * finished run on 2022/07/30 at 04:20:00.392
