   * xtb version 6.5.1 (b24c23e) compiled by 'conda@728c89f4b128' on 2022-07-12
          program call               : xtb Ni_PhOH_C8_2.xyz --gfn 1 --opt -T 48

   ID    Z sym.   atoms
    1   28 Ni     1, 59
    2    6 C      2-6, 8-12, 14-18, 20-25, 27-31, 33-38, 60-64, 66-70, 72-76,
                  78-83, 85-89, 91-96, 117-124
    3    7 N      7, 19, 26, 39, 65, 77, 84, 97
    4    8 O      13, 32, 71, 90
    5    1 H      40-58, 98-116
########################################################################
[WARNING] Please study the warnings concerning your input carefully
-1- prog_main_parseArguments: Unknown option '-T' provided
########################################################################

          :  Hamiltonian                  GFN1-xTB          :
 * total energy  :  -224.2073115 Eh     change       -0.6681660E-09 Eh
 * total energy  :  -224.8843998 Eh     change       -0.6770883E+00 Eh
 * total energy  :  -225.0084216 Eh     change       -0.1240218E+00 Eh
 * total energy  :  -225.0617393 Eh     change       -0.5331764E-01 Eh
 * total energy  :  -225.0823527 Eh     change       -0.2061343E-01 Eh
 * total energy  :  -225.0928888 Eh     change       -0.1053612E-01 Eh
 * total energy  :  -225.1004028 Eh     change       -0.7513952E-02 Eh
 * total energy  :  -225.1063556 Eh     change       -0.5952782E-02 Eh
 * total energy  :  -225.1104615 Eh     change       -0.4105943E-02 Eh
 * total energy  :  -225.1132614 Eh     change       -0.2799872E-02 Eh
 * total energy  :  -225.1220742 Eh     change       -0.1535913E-04 Eh
 * total energy  :  -225.1220607 Eh     change        0.1351140E-04 Eh
 * total energy  :  -225.1220732 Eh     change       -0.1252553E-04 Eh
 * total energy  :  -225.1220226 Eh     change        0.5061658E-04 Eh
 * total energy  :  -225.1220741 Eh     change       -0.5156122E-04 Eh
 * total energy  :  -225.1220793 Eh     change       -0.5144295E-05 Eh
 * total energy  :  -225.1220780 Eh     change        0.1269351E-05 Eh
 * total energy  :  -225.1220841 Eh     change       -0.6109180E-05 Eh
 * total energy  :  -225.1220865 Eh     change       -0.2323234E-05 Eh
   *** GEOMETRY OPTIMIZATION CONVERGED AFTER 53 ITERATIONS ***

 final structure:
================
124
 xtb: 6.5.1 (b24c23e)
Ni          13.01628737311907       -0.03405666638720       -0.07802277091828
C            9.62994761718702       -0.08127915520171       -0.28947029420445
C           10.29448751403118       -1.28975754815253       -0.28172777065173
C            9.62700522280194       -2.55463901705790       -0.32659355482303
C           10.58017320664428       -3.50183350129082       -0.16486214523306
C           11.83292067577630       -2.81534737563428       -0.04406252959529
N           11.64807425839608       -1.45778922741287       -0.12788989753155
C           13.04507400177581       -3.45210608736674        0.18940970694525
C           13.05879538394977       -4.92913154279521        0.33579697591116
C           12.71870157049152       -5.75232110439208       -0.73724186984845
C           12.73350408701480       -7.13226238724864       -0.60242614110685
C           13.08537929398490       -7.70360564285568        0.61811788791207
O           13.10926644673186       -9.04986163411071        0.79501894764982
C           13.42588216408800       -6.89129593353038        1.69817815116883
C           13.41498628304088       -5.51532158271992        1.55214843188456
C           14.24926921055330       -2.76650716405141        0.27073598589987
C           15.51709618557712       -3.41267760271219        0.42702545905087
C           16.46313631688340       -2.44830809319546        0.32920878611494
N           14.41880255458252       -1.41048240942799        0.09857186653404
C           15.77222684824935       -1.21626154814483        0.11919179766570
C           16.42908738988139        0.00211389904228       -0.07796274920861
C           15.74516400045336        1.21280102075014       -0.22001433407793
C           16.40750744366618        2.46646053836942       -0.38909731095892
C           15.44389204384394        3.41872280163735       -0.38338685580942
C           14.19411552520633        2.74219893256904       -0.21270586348297
N           14.38982422683764        1.38113035853155       -0.14294360228150
C           12.97109529183821        3.39493215566012       -0.12830577125030
C           12.95701749477999        4.87751888148332       -0.12731558582826
C           13.58947561679006        5.59128184644764        0.89352153042937
C           13.57649130154065        6.97471440488495        0.90372944489022
C           12.93254438552518        7.66760254736481       -0.11990178283734
O           12.94121199073526        9.02481033824945       -0.08068896828296
C           12.30320364746104        6.96930934472197       -1.14778972919524
C           12.31528688593734        5.58305387093388       -1.14557683171581
C           11.76181049184843        2.71358875271113       -0.07054795695411
C           10.48334095288614        3.35813949556238        0.00364908880619
C            9.54727017605347        2.38347507372098       -0.07564021998562
C           10.25391339031882        1.14313795737043       -0.16997570102159
N           11.61002920179051        1.35078079034279       -0.13851052012473
H            8.54859936002519       -0.09610435388635       -0.36116757644163
H            8.56255652204159       -2.67994952939572       -0.44610000260818
H           10.45704908984315       -4.57168170639017       -0.11954984968977
H           12.45627126709664       -5.30865282867062       -1.69121302471662
H           12.47432237766402       -7.76856017093062       -1.44183784683839
H           12.85804340554414       -9.51613963287086       -0.01358790321833
H           13.69502026328106       -7.34945433696985        2.64183439575151
H           13.67108561478826       -4.88241609418118        2.39440935110762
H           15.65577890125072       -4.47162049765566        0.57135587649806
H           17.53505054755094       -2.54722728729856        0.38691810242525
H           17.47384371178437        2.58650736167157       -0.49257255878970
H           15.55804506662646        4.48444568227513       -0.49602663505470
H           14.08136996405296        5.05199291294216        1.69528162245454
H           14.05960013635212        7.53072386911604        1.69763485343294
H           12.46719381874984        9.40234607038894       -0.83376876521346
H           11.80827472042863        7.51263513639587       -1.94562528470452
H           11.83679165310445        5.04110672451476       -1.95375683241704
H           10.33348959434620        4.42070300350149        0.10515848639971
H            8.47282082323508        2.47518299506525       -0.06172682603180
Ni          31.58457496407130        0.01967054672939       -0.08150036563518
C           34.97127934462950        0.03697350076320       -0.29410525587889
C           34.30671659877709        1.23409397646488       -0.45948275994902
C           34.97419897254753        2.47975141083186       -0.68373219120571
C           34.02067499744525        3.44003693114249       -0.66096257012187
C           32.76781647142349        2.77749985295278       -0.44511847391120
N           32.95288590564977        1.42198711309465       -0.33333058777974
C           31.55520764025549        3.44071649354736       -0.30764255151205
C           31.54073757667920        4.92345799351064       -0.37533179802013
C           31.88064636050716        5.58384135467341       -1.55560516390048
C           31.86430346165055        6.96880042894287       -1.62097385000076
C           31.51114672742677        7.70961199359474       -0.49560299988434
O           31.48542371055577        9.06726735885645       -0.51457199738092
C           31.17097406386211        7.06098795289454        0.69010188643121
C           31.18333972149535        5.67833428334296        0.74378247214151
C           30.35097835512688        2.77356306027627       -0.13038818644396
C           29.08295265701637        3.43524288627260       -0.07022518437382
C           28.13710273088127        2.46664835904307       -0.02887289855200
N           30.18176513039505        1.40682525302465       -0.10552373552889
C           28.82833313910948        1.21735145294301       -0.05821185141991
C           28.17160799237255       -0.01677105121941       -0.07743578524838
C           28.85564036425303       -1.23523291464816       -0.04318165369961
C           28.19343438688165       -2.50025962464276       -0.02978801916208
C           29.15720795251137       -3.44168605751459        0.11253992459197
C           30.40693501410712       -2.74749044241607        0.18346166005669
N           30.21101915764175       -1.39056139917249        0.05689780869989
C           31.63012973456205       -3.38117821662333        0.35982119051450
C           31.64493577778688       -4.84842264051884        0.57276693191327
C           31.01534496603490       -5.40892579369334        1.68674387748015
C           31.02993587695138       -6.77660295883835        1.89516228039752
C           31.67252550670581       -7.60854915121019        0.98001091837372
O           31.66556586848861       -8.94612330841835        1.21347816572784
C           32.29893643908784       -7.06433933800828       -0.13878132889878
C           32.28536874092856       -5.69208553886107       -0.33525811516481
C           32.83931182232723       -2.69843063877402        0.31929492371332
C           34.11777342319655       -3.32577423161213        0.48490269946542
C           35.05384614330881       -2.37222401961917        0.26819795984067
C           34.34719470198502       -1.15803668042224       -0.00214302641433
N           32.99105133638343       -1.35924319293167        0.05775026358258
H           36.05270608057688        0.04157176804018       -0.36599653350650
H           36.03884694561851        2.58696622439730       -0.81815414681589
H           34.14354375112847        4.50539506827230       -0.76919162853811
H           32.14407592638128        5.00765980737861       -2.43560072134043
H           32.12304035454798        7.47783917604483       -2.54323743405561
H           31.73654365296834        9.41246781881828       -1.38181666583737
H           30.90086395341360        7.64999487245655        1.55782327127083
H           30.92758485245934        5.17305500542514        1.66833886722572
H           28.94404836905771        4.50390055814953       -0.08015326074396
H           27.06512498594756        2.57261443770065        0.01291540272479
H           27.12706898554367       -2.63401928657747       -0.11444603763764
H           29.04324948170395       -4.51253950067010        0.15468095715935
H           30.52454335226965       -4.76063341340800        2.40398641916189
H           30.54924139664166       -7.21343755818318        2.76172836738214
H           32.13826586188139       -9.42734685441154        0.52113509802018
H           32.79290284400536       -7.71602820997547       -0.85151902099581
H           32.76178002230778       -5.27113050902660       -1.21369331012298
H           34.26755794135865       -4.36306749037760        0.73664728652726
H           36.12828907694045       -2.46090628436885        0.29560959042869
C           17.83351257000087        0.01127930436918       -0.10590893678189
C           19.05764239922771        0.00719886577054       -0.12743863517967
C           20.40077147929957        0.00164966668592       -0.14208937665159
C           21.63118811242079       -0.00799788004601       -0.14742277200370
C           22.96959756238076       -0.01653131811221       -0.14641380518946
C           24.19999467114242       -0.02649088637757       -0.13935431656238
C           25.54308664925988       -0.02902578279578       -0.12474895661236
C           26.76718547653236       -0.02977170731482       -0.10432120034705

          :  Hamiltonian                  GFN1-xTB          :
         :: total energy            -225.122086450879 Eh    ::
         :: gradient norm              0.000288771248 Eh/a0 ::
         :: HOMO-LUMO gap              1.188944995775 eV    ::
         :: SCC energy              -228.647944998104 Eh    ::
         :: repulsion energy           3.634704821430 Eh    ::

    * Orbital Energies and Occupations

         #    Occupation            Energy/Eh            Energy/eV
      -------------------------------------------------------------
         1        2.0000           -0.8058901             -21.9294
       ...           ...                  ...                  ...
       193        2.0000           -0.4067791             -11.0690
       194        2.0000           -0.3976604             -10.8209
       195        2.0000           -0.3976069             -10.8194
       196        2.0000           -0.3972429             -10.8095
       197        2.0000           -0.3972335             -10.8093
       198        2.0000           -0.3963792             -10.7860
       199        2.0000           -0.3963739             -10.7859
       200        2.0000           -0.3953196             -10.7572
       201        2.0000           -0.3953129             -10.7570
       202        2.0000           -0.3952830             -10.7562
       203        2.0000           -0.3952778             -10.7561
       204        2.0000           -0.3914269             -10.6513
       205        2.0000           -0.3827545             -10.4153 (HOMO)
       206                         -0.3390616              -9.2263 (LUMO)
       207                         -0.3290958              -8.9552
       208                         -0.3284962              -8.9388
       209                         -0.3284902              -8.9387
       210                         -0.3271385              -8.9019
       211                         -0.3271206              -8.9014
       212                         -0.3016361              -8.2079
       213                         -0.2993879              -8.1468
       214                         -0.2923683              -7.9557
       215                         -0.2739914              -7.4557
       216                         -0.2679979              -7.2926
       ...                                ...                  ...
       430                          1.6067738              43.7225
      -------------------------------------------------------------
                  HL-Gap            0.0436929 Eh            1.1889 eV

Wiberg/Mayer (AO) data.
largest (>0.10) Wiberg bond orders for each atom

     #   Z sym  total        # sym  WBO       # sym  WBO       # sym  WBO
 ---------------------------------------------------------------------------
     1  28 Ni   3.012 --     7 N    0.664    39 N    0.664    19 N    0.662
                            26 N    0.662
     2   6 C    3.933 --     3 C    1.364    38 C    1.362    40 H    0.970
     3   6 C    3.924 --     2 C    1.364     7 N    1.213     4 C    1.175
     4   6 C    3.959 --     5 C    1.648     3 C    1.175    41 H    0.975
     5   6 C    3.963 --     4 C    1.648     6 C    1.178    42 H    0.972
     6   6 C    3.919 --     8 C    1.323     7 N    1.222     5 C    1.178
     7   7 N    3.402 --     6 C    1.222     3 C    1.213     1 Ni   0.664
     8   6 C    3.939 --    16 C    1.332     6 C    1.323     9 C    1.021
     9   6 C    3.989 --    10 C    1.396    15 C    1.386     8 C    1.021
    10   6 C    3.989 --    11 C    1.451     9 C    1.396    43 H    0.973
                            14 C    0.106
    11   6 C    3.988 --    10 C    1.451    12 C    1.373    44 H    0.970
                            15 C    0.103
    12   6 C    3.902 --    11 C    1.373    14 C    1.365    13 O    1.040
    13   8 O    2.044 --    12 C    1.040    45 H    0.865
    14   6 C    3.990 --    15 C    1.466    12 C    1.365    46 H    0.971
                            10 C    0.106
    15   6 C    3.989 --    14 C    1.466     9 C    1.386    47 H    0.973
                            11 C    0.103
    16   6 C    3.914 --     8 C    1.332    19 N    1.204    17 C    1.184
    17   6 C    3.959 --    18 C    1.636    16 C    1.184    48 H    0.973
    18   6 C    3.961 --    17 C    1.636    20 C    1.192    49 H    0.973
    19   7 N    3.407 --    20 C    1.240    16 C    1.204     1 Ni   0.662
    20   6 C    3.903 --    21 C    1.261    19 N    1.240    18 C    1.192
    21   6 C    3.943 --    22 C    1.262    20 C    1.261   117 C    1.186
    22   6 C    3.903 --    21 C    1.262    26 N    1.238    23 C    1.192
    23   6 C    3.961 --    24 C    1.634    22 C    1.192    50 H    0.973
    24   6 C    3.959 --    23 C    1.634    25 C    1.185    51 H    0.973
    25   6 C    3.914 --    27 C    1.327    26 N    1.206    24 C    1.185
    26   7 N    3.407 --    22 C    1.238    25 C    1.206     1 Ni   0.662
    27   6 C    3.939 --    25 C    1.327    35 C    1.322    28 C    1.028
    28   6 C    3.988 --    34 C    1.393    29 C    1.383    27 C    1.028
    29   6 C    3.988 --    30 C    1.467    28 C    1.383    52 H    0.973
                            33 C    0.102
    30   6 C    3.990 --    29 C    1.467    31 C    1.364    53 H    0.971
                            34 C    0.105
    31   6 C    3.901 --    33 C    1.372    30 C    1.364    32 O    1.041
    32   8 O    2.044 --    31 C    1.041    54 H    0.865
    33   6 C    3.988 --    34 C    1.452    31 C    1.372    55 H    0.970
                            29 C    0.102
    34   6 C    3.988 --    33 C    1.452    28 C    1.393    56 H    0.972
                            30 C    0.105
    35   6 C    3.919 --    27 C    1.322    39 N    1.221    36 C    1.178
    36   6 C    3.963 --    37 C    1.647    35 C    1.178    57 H    0.972
    37   6 C    3.959 --    36 C    1.647    38 C    1.176    58 H    0.975
    38   6 C    3.924 --     2 C    1.362    39 N    1.214    37 C    1.176
    39   7 N    3.402 --    35 C    1.221    38 C    1.214     1 Ni   0.664
    40   1 H    1.000 --     2 C    0.970
    41   1 H    0.998 --     4 C    0.975
    42   1 H    1.005 --     5 C    0.972
    43   1 H    1.004 --    10 C    0.973
    44   1 H    0.999 --    11 C    0.970
    45   1 H    0.887 --    13 O    0.865
    46   1 H    0.999 --    14 C    0.971
    47   1 H    1.004 --    15 C    0.973
    48   1 H    1.005 --    17 C    0.973
    49   1 H    1.002 --    18 C    0.973
    50   1 H    1.002 --    23 C    0.973
    51   1 H    1.005 --    24 C    0.973
    52   1 H    1.005 --    29 C    0.973
    53   1 H    0.999 --    30 C    0.971
    54   1 H    0.887 --    32 O    0.865
    55   1 H    0.999 --    33 C    0.970
    56   1 H    1.005 --    34 C    0.972
    57   1 H    1.005 --    36 C    0.972
    58   1 H    0.998 --    37 C    0.975
    59  28 Ni   3.012 --    97 N    0.664    65 N    0.664    77 N    0.662
                            84 N    0.662
    60   6 C    3.933 --    61 C    1.364    96 C    1.362    98 H    0.970
    61   6 C    3.924 --    60 C    1.364    65 N    1.213    62 C    1.175
    62   6 C    3.959 --    63 C    1.648    61 C    1.175    99 H    0.975
    63   6 C    3.963 --    62 C    1.648    64 C    1.178   100 H    0.972
    64   6 C    3.919 --    66 C    1.323    65 N    1.222    63 C    1.178
    65   7 N    3.402 --    64 C    1.222    61 C    1.213    59 Ni   0.664
    66   6 C    3.939 --    74 C    1.332    64 C    1.323    67 C    1.021
    67   6 C    3.989 --    68 C    1.396    73 C    1.386    66 C    1.021
    68   6 C    3.989 --    69 C    1.451    67 C    1.396   101 H    0.973
                            72 C    0.106
    69   6 C    3.988 --    68 C    1.451    70 C    1.373   102 H    0.970
                            73 C    0.103
    70   6 C    3.902 --    69 C    1.373    72 C    1.365    71 O    1.040
    71   8 O    2.044 --    70 C    1.040   103 H    0.865
    72   6 C    3.990 --    73 C    1.466    70 C    1.365   104 H    0.971
                            68 C    0.106
    73   6 C    3.989 --    72 C    1.466    67 C    1.386   105 H    0.973
                            69 C    0.103
    74   6 C    3.914 --    66 C    1.332    77 N    1.204    75 C    1.184
    75   6 C    3.959 --    76 C    1.636    74 C    1.184   106 H    0.973
    76   6 C    3.961 --    75 C    1.636    78 C    1.192   107 H    0.973
    77   7 N    3.407 --    78 C    1.240    74 C    1.204    59 Ni   0.662
    78   6 C    3.903 --    79 C    1.261    77 N    1.240    76 C    1.192
    79   6 C    3.943 --    80 C    1.262    78 C    1.261   124 C    1.186
    80   6 C    3.903 --    79 C    1.262    84 N    1.239    81 C    1.192
    81   6 C    3.961 --    82 C    1.634    80 C    1.192   108 H    0.973
    82   6 C    3.959 --    81 C    1.634    83 C    1.185   109 H    0.973
    83   6 C    3.914 --    85 C    1.328    84 N    1.206    82 C    1.185
    84   7 N    3.406 --    80 C    1.239    83 C    1.206    59 Ni   0.662
    85   6 C    3.939 --    83 C    1.328    93 C    1.322    86 C    1.027
    86   6 C    3.988 --    92 C    1.393    87 C    1.384    85 C    1.027
    87   6 C    3.988 --    88 C    1.467    86 C    1.384   110 H    0.973
                            91 C    0.102
    88   6 C    3.990 --    87 C    1.467    89 C    1.364   111 H    0.971
                            92 C    0.105
    89   6 C    3.901 --    91 C    1.372    88 C    1.364    90 O    1.041
    90   8 O    2.044 --    89 C    1.041   112 H    0.865
    91   6 C    3.988 --    92 C    1.452    89 C    1.372   113 H    0.970
                            87 C    0.102
    92   6 C    3.988 --    91 C    1.452    86 C    1.393   114 H    0.972
                            88 C    0.105
    93   6 C    3.919 --    85 C    1.322    97 N    1.221    94 C    1.178
    94   6 C    3.963 --    95 C    1.647    93 C    1.178   115 H    0.972
    95   6 C    3.959 --    94 C    1.647    96 C    1.176   116 H    0.975
    96   6 C    3.924 --    60 C    1.362    97 N    1.214    95 C    1.176
    97   7 N    3.402 --    93 C    1.221    96 C    1.214    59 Ni   0.664
    98   1 H    1.000 --    60 C    0.970
    99   1 H    0.998 --    62 C    0.975
   100   1 H    1.005 --    63 C    0.972
   101   1 H    1.004 --    68 C    0.973
   102   1 H    0.999 --    69 C    0.970
   103   1 H    0.887 --    71 O    0.865
   104   1 H    0.999 --    72 C    0.971
   105   1 H    1.004 --    73 C    0.973
   106   1 H    1.005 --    75 C    0.973
   107   1 H    1.002 --    76 C    0.973
   108   1 H    1.002 --    81 C    0.973
   109   1 H    1.005 --    82 C    0.973
   110   1 H    1.005 --    87 C    0.973
   111   1 H    0.999 --    88 C    0.971
   112   1 H    0.887 --    90 O    0.865
   113   1 H    0.999 --    91 C    0.970
   114   1 H    1.005 --    92 C    0.972
   115   1 H    1.005 --    94 C    0.972
   116   1 H    0.998 --    95 C    0.975
   117   6 C    3.878 --   118 C    2.444    21 C    1.186   120 C    0.187
   118   6 C    3.937 --   117 C    2.444   119 C    1.341
   119   6 C    3.894 --   120 C    2.340   118 C    1.341   122 C    0.183
   120   6 C    3.927 --   119 C    2.340   121 C    1.366   117 C    0.187
   121   6 C    3.927 --   122 C    2.340   120 C    1.366   124 C    0.187
   122   6 C    3.894 --   121 C    2.340   123 C    1.341   119 C    0.183
   123   6 C    3.937 --   124 C    2.444   122 C    1.341
   124   6 C    3.878 --   123 C    2.444    79 C    1.186   121 C    0.187
 ---------------------------------------------------------------------------

           -------------------------------------------------
          | TOTAL ENERGY             -225.122086450879 Eh   |
          | GRADIENT NORM               0.000288771248 Eh/α |
          | HOMO-LUMO GAP               1.188944995775 eV   |
           -------------------------------------------------

 * finished run on 2022/07/30 at 06:14:04.390
