   * xtb version 6.5.1 (b24c23e) compiled by 'conda@728c89f4b128' on 2022-07-12
          program call               : xtb Ni_Ph2Me_C6_2.xyz --gfn 1 --opt -T 48

   ID    Z sym.   atoms
    1   28 Ni     1, 69
    2    6 C      2-6, 8-11, 13-31, 34-41, 70-74, 76-79, 81-99, 102-109,
                  137-142
    3    7 N      7, 12, 32, 33, 75, 80, 100, 101
    4    1 H      42-68, 110-136
########################################################################
[WARNING] Please study the warnings concerning your input carefully
-1- prog_main_parseArguments: Unknown option '-T' provided
########################################################################

          :  Hamiltonian                  GFN1-xTB          :
 * total energy  :  -227.5732401 Eh     change       -0.1757030E-08 Eh
 * total energy  :  -227.6863745 Eh     change       -0.1131344E+00 Eh
 * total energy  :  -227.7342711 Eh     change       -0.4789667E-01 Eh
 * total energy  :  -227.7455932 Eh     change       -0.1132205E-01 Eh
 * total energy  :  -227.7506013 Eh     change       -0.5008089E-02 Eh
 * total energy  :  -227.7529719 Eh     change       -0.2370645E-02 Eh
 * total energy  :  -227.7538535 Eh     change       -0.8815662E-03 Eh
 * total energy  :  -227.7542629 Eh     change       -0.4094399E-03 Eh
 * total energy  :  -227.7544476 Eh     change       -0.1846521E-03 Eh
 * total energy  :  -227.7546259 Eh     change       -0.1783552E-03 Eh
 * total energy  :  -227.7562776 Eh     change       -0.1471463E-04 Eh
 * total energy  :  -227.7562886 Eh     change       -0.1093587E-04 Eh
 * total energy  :  -227.7563003 Eh     change       -0.1175987E-04 Eh
 * total energy  :  -227.7563114 Eh     change       -0.1103989E-04 Eh
 * total energy  :  -227.7563223 Eh     change       -0.1099197E-04 Eh
 * total energy  :  -227.7563314 Eh     change       -0.9006620E-05 Eh
 * total energy  :  -227.7563411 Eh     change       -0.9710100E-05 Eh
 * total energy  :  -227.7563494 Eh     change       -0.8345735E-05 Eh
 * total energy  :  -227.7563512 Eh     change       -0.1826800E-05 Eh
   *** GEOMETRY OPTIMIZATION CONVERGED AFTER 44 ITERATIONS ***

 final structure:
================
142
 xtb: 6.5.1 (b24c23e)
Ni          14.21229492302003        0.07391774347425       -0.11581958252124
C           10.86686968014878        0.28342135609268       -0.65059042662881
C           11.51069939938314        1.39230864209069       -0.14221211079061
C           10.83476783709707        2.60260785576441        0.21237875876536
C           11.78002925886798        3.45349974954140        0.67547394354792
C           13.03714415298603        2.77129900401853        0.57690939749441
N           12.85712295856651        1.49591572015302        0.10146724870637
C           14.25956186066556        3.35552588850277        0.88076630538160
C           15.46621510796145        2.68223135941174        0.74671881236362
C           16.74226134654532        3.30098204766722        0.94173611880640
C           17.67836768862072        2.35057180113658        0.70745075930634
N           15.62109613573985        1.36305328367213        0.38446421273070
C           16.97296232834962        1.15314204688705        0.37812783422075
C           17.61275750041438       -0.06631218338840        0.14204874753057
C           16.91305443751026       -1.24858480796865       -0.11275800197790
C           17.55407511810038       -2.51630444864404       -0.26115661723669
C           16.57572276763420       -3.41992109254090       -0.50759756310049
C           15.33944730135664       -2.69809935049570       -0.52081561109127
C           14.12258689482001       -3.27201654962218       -0.86095253653611
C           14.08560028954323       -4.72511828110239       -1.16449211771565
C           13.81362445227791       -5.16370623046912       -2.45837774323711
C           13.78582483354130       -6.52386312623587       -2.75172667922241
C           13.47796746793485       -6.98860132353723       -4.14958136736032
C           14.02651060828604       -7.44411429204143       -1.73733003649907
C           14.29810899864823       -7.02042800618456       -0.43867011180527
C           14.57084771875057       -8.03242346242518        0.64120462719513
C           14.32989473629629       -5.65927595044966       -0.15862987310644
C           12.94956554652559       -2.53724577974333       -0.96910188633886
C           11.69133427896994       -3.09758651773979       -1.36686626591434
C           10.78701613539347       -2.09107677794972       -1.33886371571913
C           11.48728828842414       -0.92282163745986       -0.89974528625373
N           12.81430838612679       -1.20072337697308       -0.68639739179809
N           15.55851098990399       -1.36332059860558       -0.26235553093895
C           14.28547508251555        4.77157128456288        1.32332353619409
C           13.84499467489966        5.78157730951714        0.46905171558156
C           13.87459772064956        7.11158766483718        0.87377755537234
C           13.42227039870504        8.20124986709487       -0.06043771517704
C           14.34835410033252        7.42728694507090        2.14385195353458
C           14.79202440946511        6.43045522528994        3.00751577560341
C           15.28293080836588        6.78209989130967        4.38590614829487
C           14.75934346178433        5.10357325437240        2.59131833979511
H            9.80051439929772        0.35335086117104       -0.83148988011336
H            9.77112898715667        2.75693392336509        0.12335952122655
H           11.65100609419988        4.45497809534383        1.05259958223223
H           16.89184066202321        4.33416469543817        1.20932301239345
H           18.75197150869944        2.43564317479439        0.75530495684501
H           18.61717170068722       -2.67728664505275       -0.18265834844603
H           16.67254173863398       -4.47853965486248       -0.68508244586351
H           13.63971736708638       -4.43591532013195       -3.24341373047187
H           13.88904422114398       -7.98203081529270       -4.32937172726653
H           12.39630800582391       -7.03549935285416       -4.29526063727860
H           13.88833166316838       -6.29754803169590       -4.88639719184326
H           14.00454257368140       -8.50612895430577       -1.95945240840093
H           14.52392123744174       -7.57317657588469        1.62844204902433
H           13.84617422681258       -8.84647182277772        0.59648029440327
H           15.56674837955314       -8.46051939451471        0.50780108233747
H           14.53250449109669       -5.31548810964455        0.84976403353130
H           11.53275808058555       -4.13167559620334       -1.62636161990059
H            9.73450114613706       -2.12069480099194       -1.57213951663575
H           13.49327548278684        5.52428017937405       -0.52406996864123
H           12.94627255409021        9.01205294706802        0.49173360195789
H           12.71834325330162        7.81465201519709       -0.79751635098410
H           14.28191542404603        8.61364881694740       -0.59364020352430
H           14.37352797258397        8.46396771561174        2.46374439608712
H           14.44445195582838        6.79715912803778        5.08599307884126
H           15.74729868654373        7.76849767314524        4.39232152989883
H           16.00718821071224        6.04805313902391        4.73947626196469
H           15.09230953300588        4.31657537262432        3.25910379543132
Ni          30.18760621557166        0.09193211822557       -0.10426542206031
C           33.53217734030544        0.55063840148275       -0.45604622401338
C           32.88884430437475       -0.24809901998478       -1.37840748512979
C           33.56515635502840       -0.92655702152968       -2.44129002762096
C           32.62039330063945       -1.61023362096555       -3.12831680893687
C           31.36310428251844       -1.32568381958142       -2.50083795521557
N           31.54266901465458       -0.51239332198147       -1.40933051412660
C           30.14089424886093       -1.78098150774256       -2.97720817360874
C           28.93395752313010       -1.46357834351740       -2.36900990386344
C           27.65800648916865       -1.82241978582382       -2.90973878364084
C           26.72162531668161       -1.33047485910152       -2.06376606030995
N           28.77875233937053       -0.74685473649856       -1.20387025248209
C           27.42677175891398       -0.68078558215497       -1.00521015865801
C           26.78711565382055       -0.11474450436308        0.10045652245233
C           27.48711202182284        0.45713404281160        1.16600922656952
C           26.84611599207642        0.95019349516243        2.34333025416407
C           27.82457375914242        1.43574304508569        3.14413563476342
C           29.06086474423788        1.24892470838990        2.44682773467333
C           30.27753588201665        1.73572925815312        2.90357964004364
C           30.31434907206384        2.43127275123747        4.21496809394400
C           30.58694808901312        3.79602741919643        4.27577093825869
C           30.61438205931073        4.45690406099328        5.50022285101849
C           30.92271910669338        5.92879928949581        5.55669708136184
C           30.37269881129937        3.73933773261070        6.66661666887064
C           30.10050480195000        2.37415958311328        6.62151554150478
C           29.82685783854524        1.61936334655777        7.89434000733265
C           30.06906272207691        1.72577348680517        5.39235255397132
C           31.45013750017229        1.63768714426139        2.16662132697531
C           32.70798235601265        2.17720383671662        2.59335846177483
C           33.61181943759057        1.87250667138224        1.63319867310784
C           32.91179299997387        1.12517790584797        0.63348180709406
N           31.58527201616412        0.99539092006542        0.96095281865082
N           28.84168267219919        0.63195194391908        1.23525380817479
C           30.11543335850709       -2.60087020016775       -4.21366280236816
C           30.55673293347166       -2.06171984316689       -5.42135689833090
C           30.52744238363386       -2.82063286655367       -6.58614893445793
C           30.98058053930233       -2.22675137542346       -7.89254478637705
C           30.05315480591137       -4.12819752162658       -6.53603839539202
C           29.60871417396611       -4.68007510860446       -5.33839513832772
C           29.11729123840610       -6.10171352255947       -5.29292666583998
C           29.64106722843504       -3.91098944325386       -4.17977314162135
H           34.59825147900959        0.70623555526430       -0.57436564848811
H           34.62872641011155       -0.88335257642070       -2.61454599080422
H           32.74990372090150       -2.25250754364056       -3.98419823158825
H           27.50869641589070       -2.36829306722722       -3.82689564565573
H           25.64800262853905       -1.39877738526812       -2.13322890523600
H           25.78295959410207        0.91985594439534        2.51945631360510
H           27.72773108585742        1.89821936611462        4.11278670621907
H           30.76139841527894        4.34706489805592        3.35809206008030
H           30.51352170316803        6.37830774224110        6.46151347428855
H           32.00441785601866        6.08149021514749        5.55896284321467
H           30.51077158704845        6.44402790671412        4.68853493544573
H           30.39431392176185        4.24865823951197        7.62464868010361
H           29.87313202716336        0.54320192027631        7.72856663529216
H           30.55146582615090        1.88880130333495        8.66387324454901
H           28.83101583704375        1.86750361095030        8.26797087746507
H           29.86611818575870        0.66157729199144        5.34328397403725
H           32.86677957272531        2.71356457347733        3.51472713090511
H           34.66393679169828        2.10647471217317        1.59595592370406
H           30.90880211934396       -1.03634366146720       -5.45049431925919
H           31.45640910190910       -2.98296601324041       -8.51751671768374
H           31.68487398836499       -1.41158263146852       -7.72602225500427
H           30.12134077082008       -1.82888483202190       -8.43731811729596
H           30.02814973148378       -4.72400470709425       -7.44271240390111
H           29.95560448041152       -6.77874854628936       -5.11333351992788
H           28.65238465947712       -6.38173184727690       -6.23850789279324
H           28.39334864856825       -6.23718540214527       -4.48922839220800
H           29.30746616770099       -4.33320885757936       -3.23817136183950
C           22.81372707777166       -0.15630169951891        0.19906710724521
C           21.58620340010267       -0.15100971997435        0.20323929649282
C           20.24043090636824       -0.13082940827984        0.19958949959536
C           19.01767726234524       -0.10765238144374        0.18301642181966
C           24.15953149678798       -0.15132444896195        0.18133115651648
C           25.38226480195251       -0.14365951699967        0.15269822269016

          :  Hamiltonian                  GFN1-xTB          :
         :: total energy            -227.756351234727 Eh    ::
         :: gradient norm              0.000596980701 Eh/a0 ::
         :: HOMO-LUMO gap              1.285752918152 eV    ::
         :: SCC energy              -231.457735914282 Eh    ::
         :: repulsion energy           3.821702550654 Eh    ::

    * Orbital Energies and Occupations

         #    Occupation            Energy/Eh            Energy/eV
      -------------------------------------------------------------
         1        2.0000           -0.7776661             -21.1614
       ...           ...                  ...                  ...
       201        2.0000           -0.4138202             -11.2606
       202        2.0000           -0.3954199             -10.7599
       203        2.0000           -0.3953525             -10.7581
       204        2.0000           -0.3950000             -10.7485
       205        2.0000           -0.3949946             -10.7484
       206        2.0000           -0.3941538             -10.7255
       207        2.0000           -0.3941453             -10.7252
       208        2.0000           -0.3931202             -10.6973
       209        2.0000           -0.3931101             -10.6971
       210        2.0000           -0.3930830             -10.6963
       211        2.0000           -0.3930754             -10.6961
       212        2.0000           -0.3883088             -10.5664
       213        2.0000           -0.3822871             -10.4026 (HOMO)
       214                         -0.3350366              -9.1168 (LUMO)
       215                         -0.3278380              -8.9209
       216                         -0.3262454              -8.8776
       217                         -0.3262236              -8.8770
       218                         -0.3251138              -8.8468
       219                         -0.3250893              -8.8461
       220                         -0.2966399              -8.0720
       221                         -0.2929940              -7.9728
       222                         -0.2756463              -7.5007
       223                         -0.2639601              -7.1827
       224                         -0.2583731              -7.0307
       ...                                ...                  ...
       470                          1.5820906              43.0509
      -------------------------------------------------------------
                  HL-Gap            0.0472506 Eh            1.2858 eV

Wiberg/Mayer (AO) data.
largest (>0.10) Wiberg bond orders for each atom

     #   Z sym  total        # sym  WBO       # sym  WBO       # sym  WBO
 ---------------------------------------------------------------------------
     1  28 Ni   3.011 --    32 N    0.664     7 N    0.664    12 N    0.662
                            33 N    0.662
     2   6 C    3.934 --    31 C    1.364     3 C    1.363    42 H    0.970
     3   6 C    3.924 --     2 C    1.363     7 N    1.215     4 C    1.176
     4   6 C    3.960 --     5 C    1.648     3 C    1.176    43 H    0.975
     5   6 C    3.963 --     4 C    1.648     6 C    1.177    44 H    0.972
     6   6 C    3.920 --     8 C    1.324     7 N    1.220     5 C    1.177
     7   7 N    3.403 --     6 C    1.220     3 C    1.215     1 Ni   0.664
     8   6 C    3.939 --     9 C    1.329     6 C    1.324    34 C    1.023
     9   6 C    3.915 --     8 C    1.329    12 N    1.206    10 C    1.184
    10   6 C    3.960 --    11 C    1.636     9 C    1.184    45 H    0.973
    11   6 C    3.961 --    10 C    1.636    13 C    1.191    46 H    0.973
    12   7 N    3.407 --    13 C    1.238     9 C    1.206     1 Ni   0.662
    13   6 C    3.905 --    14 C    1.265    12 N    1.238    11 C    1.191
    14   6 C    3.944 --    13 C    1.265    15 C    1.264   140 C    1.180
    15   6 C    3.905 --    14 C    1.264    33 N    1.240    16 C    1.191
    16   6 C    3.962 --    17 C    1.637    15 C    1.191    47 H    0.973
    17   6 C    3.959 --    16 C    1.637    18 C    1.183    48 H    0.973
    18   6 C    3.915 --    19 C    1.331    33 N    1.205    17 C    1.183
    19   6 C    3.939 --    18 C    1.331    28 C    1.324    20 C    1.019
    20   6 C    3.988 --    21 C    1.403    27 C    1.395    19 C    1.019
                            24 C    0.104
    21   6 C    3.987 --    22 C    1.412    20 C    1.403    49 H    0.972
                            25 C    0.104
    22   6 C    3.988 --    24 C    1.421    21 C    1.412    23 C    1.020
                            27 C    0.103
    23   6 C    3.995 --    22 C    1.020    50 H    0.984    52 H    0.982
                            51 H    0.971
    24   6 C    3.990 --    22 C    1.421    25 C    1.411    53 H    0.972
                            20 C    0.104
    25   6 C    3.988 --    27 C    1.421    24 C    1.411    26 C    1.020
                            21 C    0.104
    26   6 C    3.996 --    25 C    1.020    54 H    0.985    55 H    0.979
                            56 H    0.972
    27   6 C    3.988 --    25 C    1.421    20 C    1.395    57 H    0.972
                            22 C    0.103
    28   6 C    3.919 --    19 C    1.324    32 N    1.221    29 C    1.177
    29   6 C    3.963 --    30 C    1.649    28 C    1.177    58 H    0.973
    30   6 C    3.960 --    29 C    1.649    31 C    1.175    59 H    0.975
    31   6 C    3.924 --     2 C    1.364    32 N    1.214    30 C    1.175
    32   7 N    3.403 --    28 C    1.221    31 C    1.214     1 Ni   0.664
    33   7 N    3.407 --    15 C    1.240    18 C    1.205     1 Ni   0.662
    34   6 C    3.988 --    41 C    1.398    35 C    1.396     8 C    1.023
                            38 C    0.103
    35   6 C    3.987 --    36 C    1.418    34 C    1.396    60 H    0.972
                            39 C    0.103
    36   6 C    3.988 --    35 C    1.418    38 C    1.415    37 C    1.020
                            41 C    0.104
    37   6 C    3.995 --    36 C    1.020    62 H    0.984    61 H    0.982
                            63 H    0.971
    38   6 C    3.989 --    39 C    1.416    36 C    1.415    64 H    0.972
                            34 C    0.103
    39   6 C    3.988 --    38 C    1.416    41 C    1.416    40 C    1.020
                            35 C    0.103
    40   6 C    3.996 --    39 C    1.020    67 H    0.983    66 H    0.982
                            65 H    0.971
    41   6 C    3.987 --    39 C    1.416    34 C    1.398    68 H    0.972
                            36 C    0.104
    42   1 H    1.000 --     2 C    0.970
    43   1 H    0.998 --     4 C    0.975
    44   1 H    1.005 --     5 C    0.972
    45   1 H    1.005 --    10 C    0.973
    46   1 H    1.002 --    11 C    0.973
    47   1 H    1.002 --    16 C    0.973
    48   1 H    1.005 --    17 C    0.973
    49   1 H    1.002 --    21 C    0.972
    50   1 H    1.004 --    23 C    0.984
    51   1 H    1.006 --    23 C    0.971
    52   1 H    1.004 --    23 C    0.982
    53   1 H    1.000 --    24 C    0.972
    54   1 H    1.004 --    26 C    0.985
    55   1 H    1.005 --    26 C    0.979
    56   1 H    1.006 --    26 C    0.972
    57   1 H    1.002 --    27 C    0.972
    58   1 H    1.005 --    29 C    0.973
    59   1 H    0.998 --    30 C    0.975
    60   1 H    1.003 --    35 C    0.972
    61   1 H    1.004 --    37 C    0.982
    62   1 H    1.004 --    37 C    0.984
    63   1 H    1.006 --    37 C    0.971
    64   1 H    1.000 --    38 C    0.972
    65   1 H    1.006 --    40 C    0.971
    66   1 H    1.004 --    40 C    0.982
    67   1 H    1.004 --    40 C    0.983
    68   1 H    1.002 --    41 C    0.972
    69  28 Ni   3.011 --   100 N    0.664    75 N    0.664   101 N    0.662
                            80 N    0.662
    70   6 C    3.934 --    99 C    1.364    71 C    1.363   110 H    0.970
    71   6 C    3.924 --    70 C    1.363    75 N    1.215    72 C    1.176
    72   6 C    3.960 --    73 C    1.648    71 C    1.176   111 H    0.975
    73   6 C    3.963 --    72 C    1.648    74 C    1.177   112 H    0.972
    74   6 C    3.920 --    76 C    1.324    75 N    1.220    73 C    1.177
    75   7 N    3.403 --    74 C    1.220    71 C    1.215    69 Ni   0.664
    76   6 C    3.939 --    77 C    1.329    74 C    1.324   102 C    1.023
    77   6 C    3.915 --    76 C    1.329    80 N    1.206    78 C    1.184
    78   6 C    3.960 --    79 C    1.636    77 C    1.184   113 H    0.973
    79   6 C    3.961 --    78 C    1.636    81 C    1.191   114 H    0.973
    80   7 N    3.407 --    81 C    1.238    77 C    1.206    69 Ni   0.662
    81   6 C    3.905 --    82 C    1.265    80 N    1.238    79 C    1.191
    82   6 C    3.944 --    81 C    1.265    83 C    1.264   142 C    1.180
    83   6 C    3.905 --    82 C    1.264   101 N    1.240    84 C    1.191
    84   6 C    3.962 --    85 C    1.637    83 C    1.191   115 H    0.973
    85   6 C    3.959 --    84 C    1.637    86 C    1.183   116 H    0.973
    86   6 C    3.915 --    87 C    1.331   101 N    1.205    85 C    1.183
    87   6 C    3.939 --    86 C    1.331    96 C    1.324    88 C    1.019
    88   6 C    3.988 --    89 C    1.403    95 C    1.395    87 C    1.019
                            92 C    0.104
    89   6 C    3.987 --    90 C    1.412    88 C    1.403   117 H    0.972
                            93 C    0.104
    90   6 C    3.988 --    92 C    1.421    89 C    1.412    91 C    1.020
                            95 C    0.103
    91   6 C    3.995 --    90 C    1.020   118 H    0.984   120 H    0.982
                           119 H    0.971
    92   6 C    3.990 --    90 C    1.421    93 C    1.411   121 H    0.972
                            88 C    0.104
    93   6 C    3.988 --    95 C    1.421    92 C    1.411    94 C    1.020
                            89 C    0.104
    94   6 C    3.996 --    93 C    1.020   122 H    0.985   123 H    0.979
                           124 H    0.972
    95   6 C    3.987 --    93 C    1.421    88 C    1.395   125 H    0.972
                            90 C    0.103
    96   6 C    3.919 --    87 C    1.324   100 N    1.221    97 C    1.177
    97   6 C    3.963 --    98 C    1.649    96 C    1.177   126 H    0.972
    98   6 C    3.960 --    97 C    1.649    99 C    1.175   127 H    0.975
    99   6 C    3.924 --    70 C    1.364   100 N    1.214    98 C    1.175
   100   7 N    3.403 --    96 C    1.221    99 C    1.214    69 Ni   0.664
   101   7 N    3.407 --    83 C    1.240    86 C    1.205    69 Ni   0.662
   102   6 C    3.988 --   109 C    1.398   103 C    1.396    76 C    1.023
                           106 C    0.103
   103   6 C    3.987 --   104 C    1.418   102 C    1.396   128 H    0.972
                           107 C    0.103
   104   6 C    3.988 --   103 C    1.418   106 C    1.415   105 C    1.020
                           109 C    0.104
   105   6 C    3.995 --   104 C    1.020   130 H    0.984   129 H    0.982
                           131 H    0.971
   106   6 C    3.989 --   107 C    1.416   104 C    1.415   132 H    0.972
                           102 C    0.103
   107   6 C    3.988 --   106 C    1.416   109 C    1.416   108 C    1.020
                           103 C    0.103
   108   6 C    3.996 --   107 C    1.020   135 H    0.983   134 H    0.982
                           133 H    0.971
   109   6 C    3.987 --   107 C    1.416   102 C    1.398   136 H    0.972
                           104 C    0.104
   110   1 H    1.000 --    70 C    0.970
   111   1 H    0.998 --    72 C    0.975
   112   1 H    1.005 --    73 C    0.972
   113   1 H    1.005 --    78 C    0.973
   114   1 H    1.002 --    79 C    0.973
   115   1 H    1.002 --    84 C    0.973
   116   1 H    1.005 --    85 C    0.973
   117   1 H    1.002 --    89 C    0.972
   118   1 H    1.004 --    91 C    0.984
   119   1 H    1.006 --    91 C    0.971
   120   1 H    1.004 --    91 C    0.982
   121   1 H    1.000 --    92 C    0.972
   122   1 H    1.004 --    94 C    0.985
   123   1 H    1.005 --    94 C    0.979
   124   1 H    1.006 --    94 C    0.972
   125   1 H    1.002 --    95 C    0.972
   126   1 H    1.005 --    97 C    0.972
   127   1 H    0.998 --    98 C    0.975
   128   1 H    1.003 --   103 C    0.972
   129   1 H    1.004 --   105 C    0.982
   130   1 H    1.004 --   105 C    0.984
   131   1 H    1.006 --   105 C    0.971
   132   1 H    1.000 --   106 C    0.972
   133   1 H    1.006 --   108 C    0.971
   134   1 H    1.004 --   108 C    0.982
   135   1 H    1.004 --   108 C    0.983
   136   1 H    1.002 --   109 C    0.972
   137   6 C    3.927 --   138 C    2.380   141 C    1.326   140 C    0.191
   138   6 C    3.927 --   137 C    2.380   139 C    1.326   142 C    0.191
   139   6 C    3.938 --   140 C    2.461   138 C    1.326
   140   6 C    3.891 --   139 C    2.461    14 C    1.180   137 C    0.191
   141   6 C    3.938 --   142 C    2.461   137 C    1.326
   142   6 C    3.891 --   141 C    2.461    82 C    1.180   138 C    0.191
 ---------------------------------------------------------------------------

           -------------------------------------------------
          | TOTAL ENERGY             -227.756351234727 Eh   |
          | GRADIENT NORM               0.000596980701 Eh/α |
          | HOMO-LUMO GAP               1.285752918152 eV   |
           -------------------------------------------------

 * finished run on 2022/07/30 at 05:03:39.842
