   * xtb version 6.5.1 (b24c23e) compiled by 'conda@728c89f4b128' on 2022-07-12
          program call               : xtb Cu_PhNO2_C2_3.xyz --gfn 1 --opt -T 48

   ID    Z sym.   atoms
    1   29 Cu     1, 61, 125
    2    6 C      2-6, 8-12, 16-20, 22-27, 29-33, 37-42, 62-66, 68-72, 76-80,
                  82-87, 89-93, 97-102, 121-124, 126-130, 132-136, 140-144,
                  146-151, 153-157, 161-166
    3    7 N      7, 13, 21, 28, 34, 43, 67, 73, 81, 88, 94, 103, 131, 137,
                  145, 152, 158, 167
    4    8 O      14, 15, 35, 36, 74, 75, 95, 96, 138, 139, 159, 160
    5    1 H      44-60, 104-120, 168-183
########################################################################
[WARNING] Please study the warnings concerning your input carefully
-1- prog_main_parseArguments: Unknown option '-T' provided
########################################################################

          :  Hamiltonian                  GFN1-xTB          :
 * total energy  :  -364.2771276 Eh     change       -0.8795382E-09 Eh
 * total energy  :  -364.6380209 Eh     change       -0.3608933E+00 Eh
 * total energy  :  -364.8305483 Eh     change       -0.1925274E+00 Eh
 * total energy  :  -364.8912264 Eh     change       -0.6067812E-01 Eh
 * total energy  :  -364.9143783 Eh     change       -0.2315184E-01 Eh
 * total energy  :  -364.9280237 Eh     change       -0.1364547E-01 Eh
 * total energy  :  -364.9367453 Eh     change       -0.8721587E-02 Eh
 * total energy  :  -364.9425022 Eh     change       -0.5756908E-02 Eh
 * total energy  :  -364.9477497 Eh     change       -0.5247453E-02 Eh
 * total energy  :  -364.9509627 Eh     change       -0.3213046E-02 Eh
 * total energy  :  -364.9620488 Eh     change       -0.2718758E-04 Eh
 * total energy  :  -364.9620697 Eh     change       -0.2088470E-04 Eh
 * total energy  :  -364.9620858 Eh     change       -0.1612106E-04 Eh
 * total energy  :  -364.9621002 Eh     change       -0.1444071E-04 Eh
 * total energy  :  -364.9621053 Eh     change       -0.5054772E-05 Eh
 * total energy  :  -364.9621134 Eh     change       -0.8128993E-05 Eh
 * total energy  :  -364.9621188 Eh     change       -0.5415471E-05 Eh
 * total energy  :  -364.9621245 Eh     change       -0.5693779E-05 Eh
 * total energy  :  -364.9621291 Eh     change       -0.4627792E-05 Eh
   *** GEOMETRY OPTIMIZATION CONVERGED AFTER 40 ITERATIONS ***

 final structure:
================
183
 xtb: 6.5.1 (b24c23e)
Cu          34.84205267764828       -0.01670678059037       -0.07773288316651
C           31.43598918104503       -0.02946625322373       -0.14118857738505
C           32.06802762818333       -1.25167438431898       -0.31157938379105
C           31.38991756947173       -2.50816722406680       -0.45618459817839
C           32.34591198818527       -3.45789641993078       -0.60326828495005
C           33.61740759466858       -2.78654821396122       -0.56546213581744
N           33.41811880640908       -1.45009049389949       -0.37549143015305
C           34.86201419146879       -3.40890049837000       -0.69227220877227
C           34.87387451017599       -4.86864835471875       -0.94605113318672
C           35.49255422720658       -5.73603320908471       -0.04023284730120
C           35.50016794622537       -7.10037669242398       -0.26568973238379
C           34.88824663800145       -7.60243289609361       -1.41070044863995
N           34.89217036307009       -9.03461132869992       -1.65228610468552
O           34.34565842619656       -9.43328426643739       -2.64850332482296
O           35.44126130460730       -9.73495922554785       -0.84118842325503
C           34.27158083339305       -6.75615050188899       -2.32776594287404
C           34.26512343984669       -5.39380682096071       -2.09009597405636
C           36.09717316003842       -2.76252141600797       -0.59886695953084
C           37.36933041009389       -3.38704032347362       -0.82691973077382
C           38.31712330714450       -2.43229421747757       -0.64976759012126
N           36.28950479033573       -1.43971702553455       -0.30280212939385
C           37.63333944273893       -1.21989527250349       -0.31407097630089
C           38.27280377583380       -0.00164017002763       -0.02657669239179
C           37.61529419485147        1.21071026968366        0.24427108132751
C           38.27832993062706        2.42755461825517        0.60443591211522
C           37.31704402675364        3.37198583608614        0.76326146386090
C           36.05742929818839        2.73732044554240        0.49691307521034
N           36.27029479498241        1.41855119331110        0.19684400514458
C           34.81383154188177        3.37055636315976        0.56132879679159
C           34.80019548213760        4.82514861246244        0.84411893847719
C           34.15129046658318        5.31508378756005        1.98178634506398
C           34.13010588324784        6.67135006671077        2.25050414703714
C           34.75931167228832        7.54733757226510        1.37060917399553
N           34.73360524102193        8.97349768740454        1.64420937042493
O           34.15698334265199        9.34019474993237        2.63580642914338
O           35.28981264127950        9.70125179864213        0.86261319460706
C           35.41087870546909        7.08069967120558        0.23255540358802
C           35.43097020413834        5.72178271452766       -0.02379227289415
C           33.57967132701288        2.73943312689495        0.38468460056890
C           32.30256286552085        3.40112816117946        0.38327540666620
C           31.35999755829752        2.44654899232053        0.18866400229163
C           32.05238258485883        1.19641957486905        0.05716871310909
N           33.39772172327088        1.40386788364108        0.17296909130132
H           30.35120908281157       -0.03328535870776       -0.16187598857493
H           30.31910753530178       -2.63411080637712       -0.43399165414730
H           32.20939725944497       -4.52141587490891       -0.71469541894044
H           35.95425791903067       -5.33369246964060        0.85394483404582
H           35.97050874489994       -7.78073805344578        0.43400154763804
H           33.80709111190045       -7.17174440002273       -3.21387623946477
H           33.79939072338093       -4.72341472112605       -2.80298259565878
H           37.51486175943383       -4.41761854448364       -1.10724316744207
H           39.38565129220099       -2.53049510702935       -0.75027609395496
H           39.34299800745031        2.53512684137245        0.73282088199937
H           37.44528518718990        4.40212080738156        1.05341022325606
H           33.67508597007200        4.62153259502584        2.66501333912443
H           33.63411501498454        7.05949893139590        3.13194163011577
H           35.88993702922140        7.78392300601054       -0.43802454786895
H           35.92364964331329        5.34736918853767       -0.91351818997794
H           32.15390236820134        4.46220734906431        0.50222501593091
H           30.28985918008368        2.56515405510453        0.12782373030497
Cu          56.68514469201756        0.06915435349484       -0.02100849681732
C           60.09316763081396        0.11021644059428       -0.13388138119413
C           59.46345704233045        1.30531349600168        0.17765341229505
C           60.14380120130546        2.52668969101325        0.50148955862498
C           59.18907965071590        3.46054442999947        0.73360556779349
C           57.91613917500939        2.82017944731908        0.53793980832684
N           58.11316715600295        1.50952368792987        0.21428204643791
C           56.67184278327824        3.44112584602325        0.66979929329280
C           56.66105960019929        4.89078155919021        0.97744335410444
C           56.05973677937590        5.35804535236458        2.15036563326006
C           56.04993046047648        6.70885656585329        2.44613156910242
C           56.64349911987574        7.60227854376191        1.55895359973289
N           56.63595770061551        9.02212059014350        1.86455356834003
O           57.17436807674883        9.76340515887500        1.08319500154669
O           56.09137539380161        9.37037033044166        2.88058444053923
C           57.24476408858411        7.15863320917976        0.38460051189682
C           57.25254984876207        5.80518432447065        0.10036796753894
C           55.43552292795547        2.80449588262746        0.53336542270163
C           54.16574277561463        3.47049946072165        0.58247712402328
C           53.21448574446327        2.51998279435212        0.40583445898968
N           55.23652037764458        1.46759202124304        0.31235173390162
C           53.88972833713444        1.26921981651896        0.24249761457386
C           53.24207158989623        0.03208911681422        0.06886351218336
C           53.90648263022491       -1.19326326415928       -0.12400795194128
C           53.25108093584989       -2.46059991520700       -0.23169987182026
C           54.21246661155188       -3.39287991939665       -0.44738011241324
C           55.46748504411863       -2.69852014095147       -0.48053365926186
N           55.25137778481707       -1.36350607860631       -0.26416616520692
C           56.70775737030393       -3.30730258280914       -0.68766385859779
C           56.71491043940992       -4.76002204609424       -0.98093682429798
C           57.38384045956383       -5.64897598790816       -0.13396031521257
C           57.39947622368793       -7.00446701806691       -0.40772451609307
C           56.74410539632121       -7.47552182596709       -1.54175132998377
N           56.76484100427010       -8.89704413353520       -1.83905124788631
O           57.36499803042840       -9.61602421043291       -1.08211390318197
O           56.18182721584647       -9.26875389489668       -2.82495160420995
C           56.07125885389100       -6.60788521634456       -2.39734023496203
C           56.05751625799363       -5.25490847824083       -2.11157376362609
C           57.94251092375528       -2.65542703956181       -0.64374980041771
C           59.21460934178574       -3.26662945263550       -0.92101066216287
C           60.15954206492870       -2.30782346902137       -0.76194117325705
C           59.47300343147845       -1.10081860823928       -0.39967658775274
N           58.12874364999001       -1.33775172067290       -0.34312736678917
H           61.17738218370815        0.12344542935225       -0.17118339276636
H           61.21526921366091        2.63772510134625        0.55245316358465
H           59.32744632731773        4.48946435373430        1.02394633267185
H           55.61247906843352        4.65106325211104        2.83938932608842
H           55.59169783235432        7.07945693342690        3.35517002542762
H           57.69567977488569        7.87500691130868       -0.29156322020464
H           57.70554085443681        5.44887953191955       -0.81745320442801
H           54.02239452011471        4.53033935486643        0.71602966608304
H           52.14660078163732        2.65135275298244        0.38147380835556
H           52.18955343476224       -2.61457755420852       -0.14086279089361
H           54.08660768016767       -4.45769514862522       -0.55667594655249
H           57.88037208596666       -5.27111263345873        0.75215392267825
H           57.91119732404766       -7.70133354991160        0.24505505933087
H           55.57146977906939       -6.99963588017579       -3.27510283993501
H           55.54850207281209       -4.56749363073378       -2.77716632982276
H           59.35828071172687       -4.29449093783628       -1.21250651041959
H           61.22746119889540       -2.39343120573301       -0.88522635279718
C           39.68267033591133        0.00307258983910       -0.00696156634152
C           40.89939110778527        0.00429233031765        0.00868633599470
C           50.61136603900863        0.00875997522151        0.08527628321877
C           51.82978366401596        0.01869328843496        0.08525538445642
Cu          45.74913862199345        0.00357750288706        0.04192363103212
C           42.30866737184633        0.00476789696907        0.02135132344638
C           42.95924220352916       -1.23440430905390        0.15674046167997
C           42.29045564257010       -2.48321247502004        0.36515924238537
C           43.24689306769588       -3.44575238589267        0.39307085897443
C           44.50804586865038       -2.78837682651017        0.19911931469571
N           44.30227297627768       -1.44124582661841        0.07799922374202
C           45.74808718724941       -3.43035169345795        0.14694859160756
C           45.74421587542117       -4.91169354855667        0.17663720775077
C           46.41060796572724       -5.60396547615453        1.19244765799353
C           46.40721410280334       -6.98662846288525        1.22046853458667
C           45.73564039707404       -7.68464414626634        0.22100273946328
N           45.73251091948753       -9.13712774050108        0.24356765213422
O           45.13660801896240       -9.70646025138919       -0.63367052049914
O           46.32777576063722       -9.68145209053046        1.13751070014480
C           45.06675846073585       -7.01529598966031       -0.79964518674966
C           45.07171051919023       -5.63258114035002       -0.81530862819277
C           46.98876282161337       -2.79247078765757        0.06481945026734
C           48.24939110308860       -3.46378106512720       -0.07278423853432
C           49.20753321571402       -2.50348588874434       -0.09282373145792
N           47.19881452984734       -1.44019215118224        0.10297504454374
C           48.54385093333678       -1.24079560596216        0.02247594809865
C           49.19934588211802        0.00385742136798        0.07897048142711
C           48.53993740872944        1.24713388446598        0.12017758915131
C           49.19962900154185        2.51097080024807        0.24211713233991
C           48.24273435443298        3.47085061796489        0.18488180168349
C           46.98664402595149        2.79753471838226        0.02159919560252
N           47.19723904751881        1.44509024413740        0.00501896737021
C           45.74994823054839        3.43643136980345       -0.10078944066631
C           45.75741502376703        4.91580370105704       -0.18230206735629
C           46.44696039224899        5.55926777750997       -1.21497349481796
C           46.45506345191003        6.93919821550281       -1.30267545557227
C           45.77213956692300        7.68399136543517       -0.34539276743880
N           45.77843353774040        9.13401222728531       -0.43231459318524
O           46.38711451517986        9.63457790482634       -1.34284861596951
O           45.17335704947062        9.74520562909521        0.41008365293540
C           45.08302853244341        7.06379867529228        0.69281049380759
C           45.07641835716404        5.68284912838485        0.76796929964257
C           44.50945677251431        2.79676329873033       -0.15759478071930
C           43.25045966008467        3.45233873348769       -0.37081869771133
C           42.29316117011646        2.49089745069920       -0.33684675519232
C           42.95990256209318        1.24401308440205       -0.10995558273009
N           44.30190545020213        1.45137335458974       -0.02026345389814
H           41.22633244296949       -2.60017157910055        0.48961020583301
H           43.11438048310973       -4.50369638626859        0.55146949924456
H           46.91913903067037       -5.04940322535189        1.97237665189700
H           46.91622081632881       -7.53169438159335        2.00619832969860
H           44.55400025525944       -7.58203379840567       -1.56746921338571
H           44.56505473402182       -5.09971643919891       -1.61151605157160
H           48.38215089008857       -4.52978822661898       -0.16042813188808
H           50.27185135166708       -2.63416065124261       -0.18815203438491
H           50.26036882369274        2.64287764755721        0.36690100606626
H           48.37244179198233        4.53772791888134        0.26554184115400
H           46.96473631028320        4.96758342990952       -1.96090563296296
H           46.98084672771888        7.44614809676128       -2.10277499819668
H           44.56374466270940        7.66686300211875        1.42787696045176
H           44.55407684057019        5.18859479072808        1.57882537530946
H           43.11966200660897        4.50833445224211       -0.54298534081576
H           41.22983193674858        2.60704825384360       -0.46917785055710

          :  Hamiltonian                  GFN1-xTB          :
         :: total energy            -364.962129140491 Eh    ::
         :: gradient norm              0.000963928329 Eh/a0 ::
         :: HOMO-LUMO gap              0.005606054341 eV    ::
         :: SCC energy              -369.798229920170 Eh    ::
         :: repulsion energy           5.008302694707 Eh    ::

    * Orbital Energies and Occupations

         #    Occupation            Energy/Eh            Energy/eV
      -------------------------------------------------------------
         1        2.0000           -0.9241250             -25.1467
       ...           ...                  ...                  ...
       311        2.0000           -0.4346191             -11.8266
       312        2.0000           -0.4345537             -11.8248
       313        2.0000           -0.4341169             -11.8129
       314        2.0000           -0.4340647             -11.8115
       315        2.0000           -0.4339566             -11.8086
       316        2.0000           -0.4256532             -11.5826
       317        2.0000           -0.4232852             -11.5182
       318        2.0000           -0.4228736             -11.5070
       319        2.0000           -0.4227103             -11.5025
       320        2.0000           -0.4162889             -11.3278
       321        2.0000           -0.4061811             -11.0528
       322        1.0915           -0.3824673             -10.4075
       323        1.0022           -0.3822756             -10.4022 (HOMO)
       324        0.9062           -0.3820696             -10.3966 (LUMO)
       325        0.0000           -0.3692226             -10.0471
       326                         -0.3614527              -9.8356
       327                         -0.3610861              -9.8257
       328                         -0.3609770              -9.8227
       329                         -0.3581121              -9.7447
       330                         -0.3511180              -9.5544
       331                         -0.3509725              -9.5504
       332                         -0.3501297              -9.5275
       333                         -0.3456204              -9.4048
       334                         -0.3449052              -9.3853
       ...                                ...                  ...
       647                          1.3141571              35.7600
      -------------------------------------------------------------
                  HL-Gap            0.0002060 Eh            0.0056 eV

Wiberg/Mayer (AO) data.
largest (>0.10) Wiberg bond orders for each atom

     #   Z sym  total        # sym  WBO       # sym  WBO       # sym  WBO
 ---------------------------------------------------------------------------
     1  29 Cu   2.185 --    43 N    0.505     7 N    0.504    21 N    0.501
                            28 N    0.501
     2   6 C    3.930 --    42 C    1.363     3 C    1.362    44 H    0.971
     3   6 C    3.914 --     2 C    1.362     7 N    1.228     4 C    1.169
     4   6 C    3.955 --     5 C    1.658     3 C    1.169    45 H    0.975
     5   6 C    3.958 --     4 C    1.658     6 C    1.170    46 H    0.973
     6   6 C    3.914 --     8 C    1.317     7 N    1.241     5 C    1.170
     7   7 N    3.243 --     6 C    1.241     3 C    1.228     1 Cu   0.504
     8   6 C    3.931 --    18 C    1.321     6 C    1.317     9 C    1.035
     9   6 C    3.984 --    17 C    1.383    10 C    1.383     8 C    1.035
    10   6 C    3.986 --    11 C    1.464     9 C    1.383    47 H    0.971
                            16 C    0.101
    11   6 C    3.987 --    10 C    1.464    12 C    1.387    48 H    0.965
                            17 C    0.101
    12   6 C    3.941 --    16 C    1.387    11 C    1.387    13 N    0.921
    13   7 N    3.866 --    15 O    1.455    14 O    1.454    12 C    0.921
    14   8 O    1.829 --    13 N    1.454    15 O    0.252
    15   8 O    1.830 --    13 N    1.455    14 O    0.252
    16   6 C    3.987 --    17 C    1.464    12 C    1.387    49 H    0.965
                            10 C    0.101
    17   6 C    3.986 --    16 C    1.464     9 C    1.383    50 H    0.971
                            11 C    0.101
    18   6 C    3.908 --     8 C    1.321    21 N    1.226    19 C    1.179
    19   6 C    3.954 --    20 C    1.642    18 C    1.179    51 H    0.973
    20   6 C    3.957 --    19 C    1.642    22 C    1.186    52 H    0.970
    21   7 N    3.246 --    22 C    1.254    18 C    1.226     1 Cu   0.501
    22   6 C    3.900 --    23 C    1.264    21 N    1.254    20 C    1.186
    23   6 C    3.939 --    24 C    1.264    22 C    1.264   121 C    1.176
    24   6 C    3.900 --    23 C    1.264    28 N    1.254    25 C    1.186
    25   6 C    3.957 --    26 C    1.642    24 C    1.186    53 H    0.970
    26   6 C    3.954 --    25 C    1.642    27 C    1.179    54 H    0.973
    27   6 C    3.908 --    29 C    1.322    28 N    1.226    26 C    1.179
    28   7 N    3.246 --    24 C    1.254    27 C    1.226     1 Cu   0.501
    29   6 C    3.931 --    27 C    1.322    39 C    1.317    30 C    1.034
    30   6 C    3.984 --    38 C    1.383    31 C    1.383    29 C    1.034
    31   6 C    3.986 --    32 C    1.464    30 C    1.383    55 H    0.971
                            37 C    0.102
    32   6 C    3.987 --    31 C    1.464    33 C    1.387    56 H    0.965
                            38 C    0.101
    33   6 C    3.941 --    37 C    1.387    32 C    1.387    34 N    0.921
    34   7 N    3.866 --    36 O    1.455    35 O    1.454    33 C    0.921
    35   8 O    1.829 --    34 N    1.454    36 O    0.252
    36   8 O    1.830 --    34 N    1.455    35 O    0.252
    37   6 C    3.987 --    38 C    1.464    33 C    1.387    57 H    0.965
                            31 C    0.102
    38   6 C    3.986 --    37 C    1.464    30 C    1.383    58 H    0.971
                            32 C    0.101
    39   6 C    3.914 --    29 C    1.317    43 N    1.242    40 C    1.170
    40   6 C    3.958 --    41 C    1.658    39 C    1.170    59 H    0.973
    41   6 C    3.955 --    40 C    1.658    42 C    1.169    60 H    0.975
    42   6 C    3.914 --     2 C    1.363    43 N    1.228    41 C    1.169
    43   7 N    3.243 --    39 C    1.242    42 C    1.228     1 Cu   0.505
    44   1 H    1.001 --     2 C    0.971
    45   1 H    0.997 --     4 C    0.975
    46   1 H    1.003 --     5 C    0.973
    47   1 H    1.004 --    10 C    0.971
    48   1 H    1.006 --    11 C    0.965
    49   1 H    1.006 --    16 C    0.965
    50   1 H    1.003 --    17 C    0.971
    51   1 H    1.003 --    19 C    0.973
    52   1 H    1.005 --    20 C    0.970
    53   1 H    1.005 --    25 C    0.970
    54   1 H    1.003 --    26 C    0.973
    55   1 H    1.003 --    31 C    0.971
    56   1 H    1.006 --    32 C    0.965
    57   1 H    1.006 --    37 C    0.965
    58   1 H    1.003 --    38 C    0.971
    59   1 H    1.003 --    40 C    0.973
    60   1 H    0.997 --    41 C    0.975
    61  29 Cu   2.188 --   103 N    0.505    67 N    0.505    81 N    0.502
                            88 N    0.502
    62   6 C    3.930 --    63 C    1.362   102 C    1.362   104 H    0.971
    63   6 C    3.914 --    62 C    1.362    67 N    1.228    64 C    1.169
    64   6 C    3.955 --    65 C    1.658    63 C    1.169   105 H    0.975
    65   6 C    3.958 --    64 C    1.658    66 C    1.169   106 H    0.973
    66   6 C    3.914 --    68 C    1.317    67 N    1.241    65 C    1.169
    67   7 N    3.243 --    66 C    1.241    63 C    1.228    61 Cu   0.505
    68   6 C    3.931 --    78 C    1.321    66 C    1.317    69 C    1.034
    69   6 C    3.984 --    77 C    1.383    70 C    1.383    68 C    1.034
    70   6 C    3.986 --    71 C    1.464    69 C    1.383   107 H    0.971
                            76 C    0.101
    71   6 C    3.987 --    70 C    1.464    72 C    1.387   108 H    0.965
                            77 C    0.101
    72   6 C    3.941 --    76 C    1.387    71 C    1.387    73 N    0.921
    73   7 N    3.866 --    74 O    1.455    75 O    1.454    72 C    0.921
    74   8 O    1.829 --    73 N    1.455    75 O    0.252
    75   8 O    1.829 --    73 N    1.454    74 O    0.252
    76   6 C    3.987 --    77 C    1.463    72 C    1.387   109 H    0.965
                            70 C    0.101
    77   6 C    3.986 --    76 C    1.463    69 C    1.383   110 H    0.971
                            71 C    0.101
    78   6 C    3.908 --    68 C    1.321    81 N    1.226    79 C    1.179
    79   6 C    3.953 --    80 C    1.641    78 C    1.179   111 H    0.973
    80   6 C    3.956 --    79 C    1.641    82 C    1.188   112 H    0.963
    81   7 N    3.246 --    82 C    1.253    78 C    1.226    61 Cu   0.502
    82   6 C    3.899 --    83 C    1.263    81 N    1.253    80 C    1.188
    83   6 C    3.939 --    82 C    1.263    84 C    1.263   124 C    1.178
    84   6 C    3.899 --    83 C    1.263    88 N    1.253    85 C    1.188
    85   6 C    3.956 --    86 C    1.641    84 C    1.188   113 H    0.964
    86   6 C    3.953 --    85 C    1.641    87 C    1.179   114 H    0.973
    87   6 C    3.908 --    89 C    1.321    88 N    1.225    86 C    1.179
    88   7 N    3.245 --    84 C    1.253    87 C    1.225    61 Cu   0.502
    89   6 C    3.931 --    87 C    1.321    99 C    1.317    90 C    1.034
    90   6 C    3.984 --    91 C    1.383    98 C    1.383    89 C    1.034
    91   6 C    3.986 --    92 C    1.464    90 C    1.383   115 H    0.971
                            97 C    0.101
    92   6 C    3.987 --    91 C    1.464    93 C    1.387   116 H    0.965
                            98 C    0.102
    93   6 C    3.941 --    92 C    1.387    97 C    1.387    94 N    0.921
    94   7 N    3.866 --    95 O    1.454    96 O    1.454    93 C    0.921
    95   8 O    1.829 --    94 N    1.454    96 O    0.252
    96   8 O    1.829 --    94 N    1.454    95 O    0.252
    97   6 C    3.987 --    98 C    1.464    93 C    1.387   117 H    0.965
                            91 C    0.101
    98   6 C    3.986 --    97 C    1.464    90 C    1.383   118 H    0.971
                            92 C    0.102
    99   6 C    3.914 --    89 C    1.317   103 N    1.241   100 C    1.170
   100   6 C    3.958 --   101 C    1.658    99 C    1.170   119 H    0.973
   101   6 C    3.955 --   100 C    1.658   102 C    1.169   120 H    0.975
   102   6 C    3.914 --    62 C    1.362   103 N    1.228   101 C    1.169
   103   7 N    3.243 --    99 C    1.241   102 C    1.228    61 Cu   0.505
   104   1 H    1.001 --    62 C    0.971
   105   1 H    0.997 --    64 C    0.975
   106   1 H    1.003 --    65 C    0.973
   107   1 H    1.004 --    70 C    0.971
   108   1 H    1.006 --    71 C    0.965
   109   1 H    1.006 --    76 C    0.965
   110   1 H    1.003 --    77 C    0.971
   111   1 H    1.003 --    79 C    0.973
   112   1 H    1.007 --    80 C    0.963
   113   1 H    1.007 --    85 C    0.964
   114   1 H    1.003 --    86 C    0.973
   115   1 H    1.003 --    91 C    0.971
   116   1 H    1.006 --    92 C    0.965
   117   1 H    1.006 --    97 C    0.965
   118   1 H    1.004 --    98 C    0.971
   119   1 H    1.003 --   100 C    0.973
   120   1 H    0.997 --   101 C    0.975
   121   6 C    3.933 --   122 C    2.579    23 C    1.176
   122   6 C    3.936 --   121 C    2.579   126 C    1.178
   123   6 C    3.936 --   124 C    2.580   147 C    1.180
   124   6 C    3.933 --   123 C    2.580    83 C    1.178
   125  29 Cu   2.146 --   152 N    0.495   131 N    0.494   145 N    0.493
                           167 N    0.492
   126   6 C    3.928 --   127 C    1.262   166 C    1.262   122 C    1.178
   127   6 C    3.901 --   126 C    1.262   131 N    1.257   128 C    1.187
   128   6 C    3.955 --   129 C    1.641   127 C    1.187   168 H    0.970
   129   6 C    3.955 --   128 C    1.641   130 C    1.179   169 H    0.973
   130   6 C    3.907 --   132 C    1.318   131 N    1.228   129 C    1.179
   131   7 N    3.239 --   127 C    1.257   130 C    1.228   125 Cu   0.494
   132   6 C    3.927 --   142 C    1.319   130 C    1.318   133 C    1.036
   133   6 C    3.984 --   134 C    1.383   141 C    1.382   132 C    1.036
   134   6 C    3.986 --   135 C    1.464   133 C    1.383   170 H    0.971
                           140 C    0.101
   135   6 C    3.987 --   134 C    1.464   136 C    1.387   171 H    0.965
                           141 C    0.102
   136   6 C    3.941 --   135 C    1.387   140 C    1.387   137 N    0.920
   137   7 N    3.866 --   138 O    1.455   139 O    1.454   136 C    0.920
   138   8 O    1.830 --   137 N    1.455   139 O    0.252
   139   8 O    1.829 --   137 N    1.454   138 O    0.252
   140   6 C    3.987 --   141 C    1.464   136 C    1.387   172 H    0.964
                           134 C    0.101
   141   6 C    3.986 --   140 C    1.464   133 C    1.382   173 H    0.971
                           135 C    0.102
   142   6 C    3.908 --   132 C    1.319   145 N    1.227   143 C    1.179
   143   6 C    3.955 --   144 C    1.641   142 C    1.179   174 H    0.973
   144   6 C    3.955 --   143 C    1.641   146 C    1.187   175 H    0.964
   145   7 N    3.237 --   146 C    1.257   142 C    1.227   125 Cu   0.493
   146   6 C    3.901 --   147 C    1.261   145 N    1.257   144 C    1.187
   147   6 C    3.929 --   146 C    1.261   148 C    1.260   123 C    1.180
   148   6 C    3.901 --   147 C    1.260   152 N    1.257   149 C    1.188
   149   6 C    3.955 --   150 C    1.640   148 C    1.188   176 H    0.963
   150   6 C    3.955 --   149 C    1.640   151 C    1.180   177 H    0.973
   151   6 C    3.907 --   153 C    1.318   152 N    1.227   150 C    1.180
   152   7 N    3.238 --   148 C    1.257   151 C    1.227   125 Cu   0.495
   153   6 C    3.927 --   163 C    1.319   151 C    1.318   154 C    1.036
   154   6 C    3.984 --   162 C    1.383   155 C    1.382   153 C    1.036
   155   6 C    3.986 --   156 C    1.464   154 C    1.382   178 H    0.971
                           161 C    0.102
   156   6 C    3.987 --   155 C    1.464   157 C    1.387   179 H    0.965
                           162 C    0.101
   157   6 C    3.941 --   161 C    1.388   156 C    1.387   158 N    0.920
   158   7 N    3.866 --   160 O    1.455   159 O    1.454   157 C    0.920
   159   8 O    1.829 --   158 N    1.454   160 O    0.252
   160   8 O    1.830 --   158 N    1.455   159 O    0.252
   161   6 C    3.987 --   162 C    1.463   157 C    1.388   180 H    0.964
                           155 C    0.102
   162   6 C    3.986 --   161 C    1.463   154 C    1.383   181 H    0.971
                           156 C    0.101
   163   6 C    3.908 --   153 C    1.319   167 N    1.227   164 C    1.179
   164   6 C    3.955 --   165 C    1.642   163 C    1.179   182 H    0.973
   165   6 C    3.955 --   164 C    1.642   166 C    1.186   183 H    0.970
   166   6 C    3.902 --   126 C    1.262   167 N    1.258   165 C    1.186
   167   7 N    3.238 --   166 C    1.258   163 C    1.227   125 Cu   0.492
   168   1 H    1.005 --   128 C    0.970
   169   1 H    1.003 --   129 C    0.973
   170   1 H    1.004 --   134 C    0.971
   171   1 H    1.006 --   135 C    0.965
   172   1 H    1.006 --   140 C    0.964
   173   1 H    1.004 --   141 C    0.971
   174   1 H    1.003 --   143 C    0.973
   175   1 H    1.007 --   144 C    0.964
   176   1 H    1.007 --   149 C    0.963
   177   1 H    1.003 --   150 C    0.973
   178   1 H    1.004 --   155 C    0.971
   179   1 H    1.006 --   156 C    0.965
   180   1 H    1.006 --   161 C    0.964
   181   1 H    1.004 --   162 C    0.971
   182   1 H    1.003 --   164 C    0.973
   183   1 H    1.005 --   165 C    0.970
 ---------------------------------------------------------------------------

           -------------------------------------------------
          | TOTAL ENERGY             -364.962129140491 Eh   |
          | GRADIENT NORM               0.000963928329 Eh/α |
          | HOMO-LUMO GAP               0.005606054341 eV   |
           -------------------------------------------------

 * finished run on 2022/07/30 at 07:58:13.592
