   * xtb version 6.5.1 (b24c23e) compiled by 'conda@728c89f4b128' on 2022-07-12
          program call               : xtb m-CP_C2_2.xyz --gfn 1 --opt -T 48

   ID    Z sym.   atoms
    1    6 C      1-5, 7-11, 14-19, 21-26, 28-34, 37-41, 64-68, 70-74, 77-82,
                  84-89, 91-97, 100-104, 127, 128
    2    7 N      6, 20, 27, 42, 69, 83, 90, 105
    3    8 O      12, 13, 35, 36, 75, 76, 98, 99
    4    1 H      43-63, 106-126
########################################################################
[WARNING] Please study the warnings concerning your input carefully
-1- prog_main_parseArguments: Unknown option '-T' provided
########################################################################

          :  Hamiltonian                  GFN1-xTB          :
 * total energy  :  -233.3140460 Eh     change       -0.1336957E-09 Eh
 * total energy  :  -233.5522363 Eh     change       -0.2381903E+00 Eh
 * total energy  :  -233.6401311 Eh     change       -0.8789475E-01 Eh
 * total energy  :  -233.6697974 Eh     change       -0.2966635E-01 Eh
 * total energy  :  -233.6806843 Eh     change       -0.1088685E-01 Eh
 * total energy  :  -233.6863857 Eh     change       -0.5701417E-02 Eh
 * total energy  :  -233.6889698 Eh     change       -0.2584076E-02 Eh
 * total energy  :  -233.6909095 Eh     change       -0.1939759E-02 Eh
 * total energy  :  -233.6924962 Eh     change       -0.1586715E-02 Eh
 * total energy  :  -233.6937989 Eh     change       -0.1302652E-02 Eh
 * total energy  :  -233.7010296 Eh     change       -0.1576358E-04 Eh
 * total energy  :  -233.7010421 Eh     change       -0.1245688E-04 Eh
 * total energy  :  -233.7010504 Eh     change       -0.8296278E-05 Eh
 * total energy  :  -233.7010578 Eh     change       -0.7471647E-05 Eh
 * total energy  :  -233.7010662 Eh     change       -0.8398696E-05 Eh
 * total energy  :  -233.7010758 Eh     change       -0.9518334E-05 Eh
 * total energy  :  -233.7010863 Eh     change       -0.1049965E-04 Eh
 * total energy  :  -233.7010964 Eh     change       -0.1017093E-04 Eh
 * total energy  :  -233.7011006 Eh     change       -0.4140965E-05 Eh
   *** GEOMETRY OPTIMIZATION CONVERGED AFTER 94 ITERATIONS ***

 final structure:
================
128
 xtb: 6.5.1 (b24c23e)
C           13.61206366250682       -0.02595478789645       -0.44850860034498
C           14.21894853850633        1.17668137204279       -0.78547863453352
C           13.56785480908394        2.39777167443973       -1.11719890162650
C           14.53121365053203        3.33527163102438       -1.36232808719493
C           15.80238917741124        2.71303131429274       -1.20102629354538
N           15.56283746223818        1.41598435997097       -0.84654207627387
C           17.06634725324278        3.29084894283083       -1.35927868958254
C           17.09932462134080        4.71662206788556       -1.76954439868624
C           17.69558556644057        5.66818304566702       -0.94633251287081
C           17.71907541084003        7.01138176965512       -1.31855733726106
C           18.36401323970767        7.97807726707045       -0.39434637387476
O           18.32147756622245        9.24569869157019       -0.82953927923574
O           18.88260298132054        7.67767862384488        0.65021731031455
C           17.14730222451899        7.41215863626944       -2.52611926049609
C           16.55796100205362        6.46627326822631       -3.35010094526407
C           16.53094678747330        5.12972415267584       -2.97674739999186
C           18.28471474943115        2.63664460051889       -1.15951856253310
C           19.57446051460483        3.23738963275329       -1.44737066818420
C           20.50320791479420        2.30781522420066       -1.14378961915628
N           18.45233809273527        1.36448923228355       -0.70527639384382
C           19.78335384432756        1.14424841955329       -0.66552059241577
C           20.43096674045686       -0.02716819098089       -0.22280758571678
C           19.79128269812835       -1.20651567879447        0.20464989807241
C           20.42655512338424       -2.39328733009502        0.65534591394787
C           19.45734533384900       -3.31886824871762        0.92309517526917
C           18.19456414378950       -2.71946135865974        0.65929566509992
N           18.44802077669363       -1.44289916369830        0.23147875466469
C           16.93518088260738       -3.31950302396349        0.76579010593432
C           16.90673117510759       -4.73115828758538        1.22284769938116
C           16.38712832814520       -5.72859514936181        0.39416678634493
C           16.35949363486857       -7.05192682221478        0.81132504276192
C           16.85105814116829       -7.39713671089867        2.05913823150790
C           17.37458933896681       -6.41032088071068        2.89563347204958
C           17.90054305401990       -6.82170593307575        4.22185043265208
O           18.41155325362579       -5.80774356586224        4.93415088268218
O           17.88527782639938       -7.95235730923341        4.63680723645497
C           17.40044838545046       -5.08119333029708        2.47769740875867
C           15.71705230406569       -2.69706699774512        0.47514906699619
C           14.41632023365304       -3.32469708034622        0.65354593798762
C           13.49619094923634       -2.40162481890934        0.30940025489044
C           14.23280869255222       -1.20873305449177       -0.06933941631988
N           15.56679429694786       -1.42376719999300        0.04053014711252
H           12.52700543930817       -0.02708472186172       -0.46832496345105
H           12.49835233169795        2.53110442608296       -1.15120882193231
H           14.37975771111903        4.37038268193890       -1.62230416819654
H           16.28540558438894        0.73347283271917       -0.64365455228778
H           18.13451483389888        5.37599577741377        0.00138560879528
H           18.76313133899563        9.81063287787729       -0.17469857384011
H           17.16720028872841        8.45610006725852       -2.81455173756838
H           16.11639354616164        6.76990519980852       -4.29258033759106
H           16.08044104703300        4.39407118934580       -3.63377167233439
H           19.72592033724686        4.22637731768307       -1.84844649267203
H           21.57397279300210        2.37602260846769       -1.24053306802120
H           21.49106724081090       -2.51756649696342        0.76089487047275
H           19.60344621474849       -4.33027662587521        1.26507152815552
H           17.73193422594123       -0.77540958978118       -0.03551168156254
H           16.01686053394381       -5.46272786463592       -0.58962834125083
H           15.95527423511603       -7.81499218610863        0.15592909170174
H           16.83841363639654       -8.42614163736695        2.40021666030487
H           18.73993675128267       -6.15730172432580        5.77851488748716
H           17.79064507544837       -4.31533174599301        3.13752121477473
H           14.25330837169896       -4.32849994583286        1.01158625890307
H           12.42076310049215       -2.48603040788760        0.31188045811882
C           31.28918206117050       -0.15974117190146       -0.41994938411001
C           30.68240872486487       -1.39499098048279       -0.23508165919648
C           31.33361247775045       -2.64475633721339       -0.03746612962785
C           30.37033825087894       -3.60054337557635        0.12262523951561
C           29.09910522541677       -2.96698231255347        0.01465254336835
N           29.33854414218470       -1.63848642071770       -0.19310529884937
C           27.83516437647067       -3.55898338668592        0.10676609708977
C           27.80195169357304       -5.02773999426529        0.31599443072661
C           27.20481373361553       -5.55876498600403        1.45624410558139
C           27.18080749231272       -6.93660179420893        1.66654219294006
C           26.53606553903678       -7.43998531617897        2.90572854481377
O           26.57940335854699       -8.77459303024733        3.02814132061049
O           26.01811710571205       -6.73809426059186        3.73601065335079
C           27.75253901695422       -7.79678707928830        0.72900971791797
C           28.34283073987478       -7.27127909274940       -0.40956302785134
C           28.37081568917543       -5.89899813049696       -0.61585405256061
C           26.61678244477721       -2.88025137025167        0.02152912402081
C           25.32705119099086       -3.54622258849857        0.00454281240891
C           24.39827073785565       -2.57380485542879       -0.09843420922221
N           26.44911359663346       -1.53359074484021       -0.08412745054412
C           25.11807322021198       -1.31638221013450       -0.13782599423936
C           24.47036859222523       -0.06643343326289       -0.21326851952597
C           25.10995446001744        1.18462017794371       -0.30582885840147
C           24.47459283289632        2.45182099110710       -0.38079890784313
C           25.44372896152696        3.40588834735148       -0.51607711097898
C           26.70653853588815        2.75107450441097       -0.51139276404830
N           26.45319710093273        1.41130418413640       -0.37840987669357
C           27.96587124922380        3.34210186844539       -0.66049501139519
C           27.99419244713961        4.81711416425498       -0.82163207597139
C           28.51378966576625        5.38806775932137       -1.98593500266404
C           28.54113244179457        6.76623744059386       -2.14695838608345
C           28.04947707761992        7.59188462860353       -1.14973726076578
C           27.52608827363079        7.03380084813257        0.01741340085079
C           27.00032081634142        7.95172682996666        1.05936959108018
O           26.48940641461572        7.31780266028715        2.12414948436793
O           27.01610927347602        9.15320225356555        0.97581373528514
C           27.50035465285969        5.65004768850823        0.18001497999444
C           29.18400984186366        2.65526920350317       -0.67083037993273
C           30.48470292192039        3.30102120999477       -0.76494820445283
C           31.40489414335464        2.31802790555650       -0.70086739306442
C           30.66834216999230        1.07456676117838       -0.55820249470978
N           29.33434246994447        1.31563864043769       -0.54609116703881
H           32.37424357485496       -0.16670443949425       -0.43838134004740
H           32.40312920347556       -2.78016635254230       -0.01356683256269
H           30.52188421841553       -4.65129614804509        0.30952741131684
H           28.61588719197849       -0.93283940679017       -0.28755098689977
H           26.76561783725462       -4.90403769564114        2.20098602329850
H           26.13911900822998       -9.02210839928864        3.85753678385976
H           27.73189987779038       -8.86733647357484        0.89301506086449
H           28.78453476062905       -7.93430388829482       -1.14490902734125
H           28.82240599333312       -5.49693171031182       -1.51597943315610
H           25.17558416677789       -4.61275484983283        0.04274414877182
H           23.32750511061074       -2.67564146955441       -0.15866928428200
H           23.41008355535818        2.60837500596612       -0.33510386425332
H           25.29753422921898        4.46859634749775       -0.61866094141393
H           27.16931472431698        0.69304521649701       -0.34856261583903
H           28.88405919474002        4.74292913233118       -2.77480754922138
H           28.94502136854597        7.19425525202684       -3.05737994929260
H           28.06192816233991        8.67035284562924       -1.25973717305032
H           26.16153727383075        7.98211153050966        2.75197043771937
H           27.11036068132144        5.22124703975090        1.09553786461124
H           30.64761310343969        4.36345249720928       -0.84914925196788
H           32.48032549122740        2.39612666099511       -0.73294984143644
C           21.84182243779442       -0.03689494402035       -0.21304639173424
C           23.05950861685695       -0.05366496002084       -0.20915456604258

          :  Hamiltonian                  GFN1-xTB          :
         :: total energy            -233.701100569352 Eh    ::
         :: gradient norm              0.000361286416 Eh/a0 ::
         :: HOMO-LUMO gap              1.008286175296 eV    ::
         :: SCC energy              -237.098651860491 Eh    ::
         :: repulsion energy           3.507568205882 Eh    ::

    * Orbital Energies and Occupations

         #    Occupation            Energy/Eh            Energy/eV
      -------------------------------------------------------------
         1        2.0000           -0.8327899             -22.6614
       ...           ...                  ...                  ...
       193        2.0000           -0.4380953             -11.9212
       194        2.0000           -0.4269330             -11.6174
       195        2.0000           -0.4257024             -11.5840
       196        2.0000           -0.4252551             -11.5718
       197        2.0000           -0.4240755             -11.5397
       198        2.0000           -0.4214410             -11.4680
       199        2.0000           -0.4213254             -11.4648
       200        2.0000           -0.4199376             -11.4271
       201        2.0000           -0.4199239             -11.4267
       202        2.0000           -0.4040385             -10.9944
       203        2.0000           -0.4035921             -10.9823
       204        2.0000           -0.3958659             -10.7721
       205        2.0000           -0.3831170             -10.4251 (HOMO)
       206                         -0.3460632              -9.4169 (LUMO)
       207                         -0.3369313              -9.1684
       208                         -0.3367486              -9.1634
       209                         -0.3297101              -8.9719
       210                         -0.3115816              -8.4786
       211                         -0.3112984              -8.4709
       212                         -0.3095969              -8.4246
       213                         -0.3095598              -8.4236
       214                         -0.3031542              -8.2492
       215                         -0.2948630              -8.0236
       216                         -0.2759880              -7.5100
       ...                                ...                  ...
       428                          1.3277445              36.1298
      -------------------------------------------------------------
                  HL-Gap            0.0370538 Eh            1.0083 eV

Wiberg/Mayer (AO) data.
largest (>0.10) Wiberg bond orders for each atom

     #   Z sym  total        # sym  WBO       # sym  WBO       # sym  WBO
 ---------------------------------------------------------------------------
     1   6 C    3.926 --    41 C    1.366     2 C    1.347    43 H    0.971
     2   6 C    3.902 --     1 C    1.347     3 C    1.229     6 N    1.169
     3   6 C    3.953 --     4 C    1.596     2 C    1.229    44 H    0.976
     4   6 C    3.959 --     3 C    1.596     5 C    1.233    45 H    0.974
     5   6 C    3.898 --     7 C    1.305     4 C    1.233     6 N    1.177
     6   7 N    3.469 --     5 C    1.177     2 C    1.169    46 H    0.874
     7   6 C    3.938 --    17 C    1.333     5 C    1.305     8 C    1.028
     8   6 C    3.988 --     9 C    1.406    16 C    1.388     7 C    1.028
                            14 C    0.102
     9   6 C    3.984 --     8 C    1.406    10 C    1.398    47 H    0.968
                            15 C    0.104
    10   6 C    3.988 --     9 C    1.398    14 C    1.391    11 C    1.004
    11   6 C    3.836 --    13 O    1.693    12 O    1.090    10 C    1.004
    12   8 O    2.098 --    11 C    1.090    48 H    0.838    13 O    0.129
    13   8 O    1.962 --    11 C    1.693    12 O    0.129
    14   6 C    3.986 --    15 C    1.448    10 C    1.391    49 H    0.970
                             8 C    0.102
    15   6 C    3.994 --    14 C    1.448    16 C    1.441    50 H    0.972
                             9 C    0.104
    16   6 C    3.986 --    15 C    1.441     8 C    1.388    51 H    0.973
    17   6 C    3.916 --     7 C    1.333    20 N    1.289    18 C    1.125
    18   6 C    3.965 --    19 C    1.709    17 C    1.125    52 H    0.974
    19   6 C    3.964 --    18 C    1.709    21 C    1.129    53 H    0.967
    20   7 N    3.022 --    21 C    1.341    17 C    1.289
    21   6 C    3.912 --    20 N    1.341    22 C    1.259    19 C    1.129
    22   6 C    3.938 --    21 C    1.259    23 C    1.256   127 C    1.179
    23   6 C    3.888 --    22 C    1.256    24 C    1.248    27 N    1.187
    24   6 C    3.959 --    25 C    1.584    23 C    1.248    54 H    0.968
    25   6 C    3.954 --    24 C    1.584    26 C    1.239    55 H    0.974
    26   6 C    3.899 --    28 C    1.309    25 C    1.239    27 N    1.167
    27   7 N    3.474 --    23 C    1.187    26 C    1.167    56 H    0.873
    28   6 C    3.924 --    38 C    1.322    26 C    1.309    29 C    1.028
    29   6 C    3.988 --    37 C    1.406    30 C    1.388    28 C    1.028
                            32 C    0.102
    30   6 C    3.986 --    31 C    1.440    29 C    1.388    57 H    0.972
                            33 C    0.100
    31   6 C    3.994 --    32 C    1.450    30 C    1.440    58 H    0.972
                            37 C    0.104
    32   6 C    3.985 --    31 C    1.450    33 C    1.388    59 H    0.969
                            29 C    0.102
    33   6 C    3.988 --    37 C    1.399    32 C    1.388    34 C    1.004
                            30 C    0.100
    34   6 C    3.836 --    36 O    1.692    35 O    1.091    33 C    1.004
    35   8 O    2.100 --    34 C    1.091    60 H    0.837    36 O    0.129
    36   8 O    1.961 --    34 C    1.692    35 O    0.129
    37   6 C    3.984 --    29 C    1.406    33 C    1.399    61 H    0.969
                            31 C    0.104
    38   6 C    3.930 --    28 C    1.322    42 N    1.317    39 C    1.116
    39   6 C    3.967 --    40 C    1.723    38 C    1.116    62 H    0.973
    40   6 C    3.966 --    39 C    1.723    41 C    1.116    63 H    0.976
    41   6 C    3.929 --     1 C    1.366    42 N    1.300    40 C    1.116
    42   7 N    3.011 --    38 C    1.317    41 C    1.300
    43   1 H    1.002 --     1 C    0.971
    44   1 H    0.997 --     3 C    0.976
    45   1 H    1.004 --     4 C    0.974
    46   1 H    0.986 --     6 N    0.874
    47   1 H    1.007 --     9 C    0.968
    48   1 H    0.872 --    12 O    0.838
    49   1 H    1.005 --    14 C    0.970
    50   1 H    1.002 --    15 C    0.972
    51   1 H    1.005 --    16 C    0.973
    52   1 H    1.004 --    18 C    0.974
    53   1 H    1.007 --    19 C    0.967
    54   1 H    1.007 --    24 C    0.968
    55   1 H    1.004 --    25 C    0.974
    56   1 H    0.987 --    27 N    0.873
    57   1 H    1.005 --    30 C    0.972
    58   1 H    1.002 --    31 C    0.972
    59   1 H    1.005 --    32 C    0.969
    60   1 H    0.872 --    35 O    0.837
    61   1 H    1.007 --    37 C    0.969
    62   1 H    1.004 --    39 C    0.973
    63   1 H    0.998 --    40 C    0.976
    64   6 C    3.926 --   104 C    1.366    65 C    1.347   106 H    0.971
    65   6 C    3.902 --    64 C    1.347    66 C    1.229    69 N    1.169
    66   6 C    3.953 --    67 C    1.596    65 C    1.229   107 H    0.976
    67   6 C    3.959 --    66 C    1.596    68 C    1.233   108 H    0.974
    68   6 C    3.898 --    70 C    1.305    67 C    1.233    69 N    1.177
    69   7 N    3.469 --    68 C    1.177    65 C    1.169   109 H    0.874
    70   6 C    3.938 --    80 C    1.333    68 C    1.305    71 C    1.028
    71   6 C    3.988 --    72 C    1.406    79 C    1.388    70 C    1.028
                            77 C    0.102
    72   6 C    3.984 --    71 C    1.406    73 C    1.398   110 H    0.968
                            78 C    0.104
    73   6 C    3.988 --    72 C    1.398    77 C    1.390    74 C    1.004
    74   6 C    3.836 --    76 O    1.693    75 O    1.090    73 C    1.004
    75   8 O    2.098 --    74 C    1.090   111 H    0.838    76 O    0.129
    76   8 O    1.962 --    74 C    1.693    75 O    0.129
    77   6 C    3.986 --    78 C    1.448    73 C    1.390   112 H    0.970
                            71 C    0.102
    78   6 C    3.994 --    77 C    1.448    79 C    1.441   113 H    0.972
                            72 C    0.104
    79   6 C    3.986 --    78 C    1.441    71 C    1.388   114 H    0.973
    80   6 C    3.916 --    70 C    1.333    83 N    1.289    81 C    1.125
    81   6 C    3.965 --    82 C    1.709    80 C    1.125   115 H    0.974
    82   6 C    3.964 --    81 C    1.709    84 C    1.129   116 H    0.967
    83   7 N    3.022 --    84 C    1.341    80 C    1.289
    84   6 C    3.912 --    83 N    1.341    85 C    1.259    82 C    1.129
    85   6 C    3.938 --    84 C    1.259    86 C    1.256   128 C    1.179
    86   6 C    3.888 --    85 C    1.256    87 C    1.248    90 N    1.187
    87   6 C    3.959 --    88 C    1.584    86 C    1.248   117 H    0.968
    88   6 C    3.954 --    87 C    1.584    89 C    1.239   118 H    0.974
    89   6 C    3.899 --    91 C    1.309    88 C    1.239    90 N    1.167
    90   7 N    3.474 --    86 C    1.187    89 C    1.167   119 H    0.873
    91   6 C    3.924 --   101 C    1.322    89 C    1.309    92 C    1.028
    92   6 C    3.988 --   100 C    1.406    93 C    1.388    91 C    1.028
                            95 C    0.102
    93   6 C    3.986 --    94 C    1.440    92 C    1.388   120 H    0.972
                            96 C    0.100
    94   6 C    3.994 --    95 C    1.450    93 C    1.440   121 H    0.972
                           100 C    0.104
    95   6 C    3.985 --    94 C    1.450    96 C    1.388   122 H    0.969
                            92 C    0.102
    96   6 C    3.988 --   100 C    1.399    95 C    1.388    97 C    1.004
                            93 C    0.100
    97   6 C    3.836 --    99 O    1.692    98 O    1.091    96 C    1.004
    98   8 O    2.100 --    97 C    1.091   123 H    0.837    99 O    0.129
    99   8 O    1.961 --    97 C    1.692    98 O    0.129
   100   6 C    3.984 --    92 C    1.406    96 C    1.399   124 H    0.969
                            94 C    0.104
   101   6 C    3.930 --    91 C    1.322   105 N    1.317   102 C    1.116
   102   6 C    3.967 --   103 C    1.723   101 C    1.116   125 H    0.973
   103   6 C    3.966 --   102 C    1.723   104 C    1.116   126 H    0.976
   104   6 C    3.929 --    64 C    1.366   105 N    1.300   103 C    1.116
   105   7 N    3.011 --   101 C    1.317   104 C    1.300
   106   1 H    1.002 --    64 C    0.971
   107   1 H    0.997 --    66 C    0.976
   108   1 H    1.004 --    67 C    0.974
   109   1 H    0.986 --    69 N    0.874
   110   1 H    1.007 --    72 C    0.968
   111   1 H    0.872 --    75 O    0.838
   112   1 H    1.005 --    77 C    0.970
   113   1 H    1.002 --    78 C    0.972
   114   1 H    1.005 --    79 C    0.973
   115   1 H    1.004 --    81 C    0.974
   116   1 H    1.007 --    82 C    0.967
   117   1 H    1.007 --    87 C    0.968
   118   1 H    1.004 --    88 C    0.974
   119   1 H    0.987 --    90 N    0.873
   120   1 H    1.005 --    93 C    0.972
   121   1 H    1.002 --    94 C    0.972
   122   1 H    1.005 --    95 C    0.969
   123   1 H    0.872 --    98 O    0.837
   124   1 H    1.007 --   100 C    0.969
   125   1 H    1.004 --   102 C    0.973
   126   1 H    0.998 --   103 C    0.976
   127   6 C    3.933 --   128 C    2.577    22 C    1.179
   128   6 C    3.933 --   127 C    2.577    85 C    1.179
 ---------------------------------------------------------------------------

           -------------------------------------------------
          | TOTAL ENERGY             -233.701100569352 Eh   |
          | GRADIENT NORM               0.000361286416 Eh/α |
          | HOMO-LUMO GAP               1.008286175296 eV   |
           -------------------------------------------------

 * finished run on 2022/07/27 at 13:54:11.329
