   * xtb version 6.5.1 (b24c23e) compiled by 'conda@728c89f4b128' on 2022-07-12
          program call               : xtb Fe_NMA_C2_2.xyz --gfn 1 --opt -T 48

   ID    Z sym.   atoms
    1   26 Fe     1, 67
    2    6 C      2-6, 8-12, 14-19, 21-26, 28-32, 34-40, 68-72, 74-78, 80-85,
                  87-92, 94-98, 100-106, 133, 134
    3    7 N      7, 13, 20, 27, 33, 41, 73, 79, 86, 93, 99, 107
    4    1 H      42-66, 108-132
########################################################################
[WARNING] Please study the warnings concerning your input carefully
-1- prog_main_parseArguments: Unknown option '-T' provided
########################################################################

          :  Hamiltonian                  GFN1-xTB          :
 * total energy  :  -205.1235905 Eh     change       -0.9740120E-10 Eh
 * total energy  :  -216.3682986 Eh     change       -0.1124471E+02 Eh
 * total energy  :  -217.2573221 Eh     change       -0.8890235E+00 Eh
 * total energy  :  -217.8938357 Eh     change       -0.6365136E+00 Eh
 * total energy  :  -218.2011697 Eh     change       -0.3073340E+00 Eh
 * total energy  :  -218.3715206 Eh     change       -0.1703508E+00 Eh
 * total energy  :  -218.4792183 Eh     change       -0.1076977E+00 Eh
 * total energy  :  -218.5554485 Eh     change       -0.7623025E-01 Eh
 * total energy  :  -218.6202244 Eh     change       -0.6477586E-01 Eh
 * total energy  :  -218.6956938 Eh     change       -0.7546941E-01 Eh
 * total energy  :  -219.2410582 Eh     change       -0.5112586E-04 Eh
 * total energy  :  -219.2410860 Eh     change       -0.2777908E-04 Eh
 * total energy  :  -219.2411226 Eh     change       -0.3658638E-04 Eh
 * total energy  :  -219.2411557 Eh     change       -0.3308330E-04 Eh
 * total energy  :  -219.2411845 Eh     change       -0.2884884E-04 Eh
 * total energy  :  -219.2412146 Eh     change       -0.3002560E-04 Eh
 * total energy  :  -219.2412372 Eh     change       -0.2261065E-04 Eh
 * total energy  :  -219.2412466 Eh     change       -0.9381994E-05 Eh
 * total energy  :  -219.2412513 Eh     change       -0.4784386E-05 Eh
   *** GEOMETRY OPTIMIZATION CONVERGED AFTER 60 ITERATIONS ***

 final structure:
================
134
 xtb: 6.5.1 (b24c23e)
Fe          18.91425392633382        0.06173154338174       -0.02000951717824
C           15.53782685912693        0.14462459402040       -0.10604742600376
C           16.17622819504145        0.89925454511842        0.85781084806711
C           15.49539875282734        1.69039134255785        1.83715519011686
C           16.44708949965710        2.39019939193097        2.50079630596557
C           17.70719732260703        2.03896015202989        1.91252410521586
N           17.53180937332719        1.07946984313156        0.95247302481978
C           18.91731795826917        2.65787762534211        2.21848718204004
C           18.92313708246638        3.79247350207304        3.16451015091377
C           18.13061635123191        4.92201167442596        2.93617620039713
C           18.14839178781333        5.98787049500566        3.81479994499587
C           18.95156561929767        5.95203695011197        4.96193657491418
N           18.97317544809637        7.06500728199877        5.78730190138873
C           19.39461960449544        6.93065543362285        7.17495982898628
C           19.74849244475713        4.82683451864721        5.19418204238495
C           19.73170490607724        3.76782224945880        4.30350194644044
C           20.12238386981835        2.25543029603506        1.65268971413189
C           21.37331243977447        2.92261298187365        1.85633488471179
C           22.32271769019804        2.16879986594457        1.24865035036133
N           20.30455323290859        1.13358596016898        0.88145799210166
C           21.64961829270523        1.04851818601388        0.67232322216595
C           22.31041135666715       -0.03184703658131        0.07452215555484
C           21.62897917073206       -1.09596281056271       -0.52976451213833
C           22.27783196460015       -2.25215412693721       -1.06145833894673
C           21.31976627362800       -2.98651584223819       -1.67895870016724
C           20.09008694105881       -2.26570809528713       -1.53574009787835
N           20.28740245653633       -1.14207262169011       -0.76925438950832
C           18.89954201035688       -2.61295429373987       -2.16416703094131
C           18.89597031764532       -3.75503266591118       -3.10077785751549
C           19.77411311890323       -3.79282830408399       -4.18671319120658
C           19.77741418330014       -4.85818604426468       -5.06987990310381
C           18.89478950280563       -5.92668302445987       -4.88440135391834
N           18.89458637421077       -7.04537290909346       -5.70171867395816
C           19.41736015969328       -6.95511961667920       -7.05792596994040
C           18.01958562548772       -5.89962851061785       -3.79087504881732
C           18.01696613612276       -4.82777455575396       -2.91955975429568
C           17.71223383194814       -1.91590846160897       -1.94697093867752
C           16.47832347967111       -2.18574295573374       -2.62613360249577
C           15.53132400729551       -1.41171395261505       -2.04255817927970
C           16.19060910727534       -0.65927031058444       -1.01914617729753
N           17.53153677860775       -0.94318598951268       -1.00246360800843
H           14.45492155214574        0.18364726069877       -0.14652220963756
H           14.42681297317861        1.69774666144015        1.98370677969795
H           16.31783736138547        3.08070102390996        3.31853873833416
H           17.51519483703372        4.97180880942728        2.04460654081552
H           17.53960732439446        6.86406360593489        3.61778234568788
H           18.15110038758124        7.64744598991770        5.68545012287537
H           20.46339027351852        6.71752568541272        7.22208566951441
H           18.84490896730152        6.13305485950114        7.68746123247249
H           19.20562059616212        7.87913331728534        7.67764069416812
H           20.38475135079107        4.77235431892169        6.06892568116808
H           20.34013839224601        2.89289787604230        4.50517758409980
H           21.50030743997498        3.85410854531388        2.38354294896112
H           23.38399515686935        2.34742297312332        1.18660449033610
H           23.32920686868495       -2.46809082899733       -0.96130540689892
H           21.42813490370387       -3.93427909626832       -2.18062558812038
H           20.44923508889156       -2.96077585623705       -4.35468980695380
H           20.46949848011652       -4.85226793614863       -5.90293951624240
H           18.03062843577810       -7.57120322704493       -5.65189247819128
H           18.95152779020119       -6.13487224289375       -7.61586551678443
H           19.20877293737503       -7.89832713768488       -7.56276220859916
H           20.49733570370983       -6.80425252684559       -7.03283062355190
H           17.34189474162961       -6.73145447221900       -3.63011626448016
H           17.34342060292698       -4.82876035983144       -2.06959611242710
H           16.36278396428762       -2.87476740610917       -3.44719187727940
H           14.47965394582105       -1.34390450060008       -2.27233133757798
Fe          29.73107055135252        0.00672374542784       -0.06537916032481
C           33.10742706188535        0.07202570858776       -0.16519884247402
C           32.46883113992384       -1.03338075848051       -0.69087717742129
C           33.14948286406646       -2.16205575536552       -1.24884926551180
C           32.19762376666835       -2.96267773257091       -1.78628270199509
C           30.93761589265828       -2.31171897092198       -1.57199318502559
N           31.11320293496431       -1.16514901253841       -0.84559027331978
C           29.72748968993068       -2.74522690349498       -2.10931144811253
C           29.72170454419226       -3.91611749654729       -3.01005804951562
C           30.51417191839190       -3.93942875467915       -4.16225394454217
C           30.49663317900382       -5.02935314808081       -5.01081199048808
C           29.69380205699498       -6.14129790156808       -4.72555675908891
N           29.67248508814052       -7.18942257283176       -5.63182917023378
C           29.25086946591138       -8.51448784883263       -5.19862766951893
C           28.89699242138590       -6.12278293674793       -3.57669890160567
C           28.91345791096552       -5.02250418242256       -2.73748643222632
C           28.52261379998483       -2.10465564368618       -1.84069406847975
C           27.27176162664948       -2.44846969670092       -2.44776198488440
C           26.32253105435353       -1.69024218203246       -1.84529722270973
N           28.34062553650315       -1.10694666234842       -0.91441483592427
C           26.99569631973345       -0.88355217357487       -0.87763637544319
C           26.33494054535279       -0.06440539278093        0.04630433139007
C           27.01641125582884        0.75744726405459        0.95293230843947
C           26.36759437835073        1.52870470453557        1.96518840765684
C           27.32583148814167        2.29089533327727        2.54768047345378
C           28.55560715056609        1.99345260116616        1.87581277090234
N           28.35814042655385        1.00057577697113        0.94621079429151
C           29.74638433577432        2.68198062262047        2.07818259933008
C           29.74994118069337        3.84510825589283        2.98846679763996
C           28.87136701965665        4.91282447967540        2.78855232930593
C           28.86777234795277        6.00716069507589        3.63550358617047
C           29.75064193618281        6.05972043050197        4.71850751350696
N           29.75061043991510        7.10163599992961        5.63169775571069
C           29.22779636949277        8.40529578426028        5.24707688679820
C           30.62628631113715        4.98698289509172        4.93057668935251
C           30.62912547333188        3.90271309153196        4.07473298298839
C           30.93367970278867        2.31782537102163        1.44532932162778
C           32.16769804163398        3.03932366314112        1.56046098184912
C           33.11442818616150        2.30117487523521        0.93170575780455
C           32.45490225971781        1.13849551118783        0.42042660414454
N           31.11407649362783        1.18407679906627        0.70171045334400
H           34.19031499812274        0.10298032284418       -0.21254939122056
H           34.21806897723086       -2.30669870614204       -1.22424170148116
H           32.32667955673190       -3.91166988379398       -2.28121032014771
H           31.12934202326023       -3.08000274200460       -4.40530015980590
H           31.10532063209961       -5.02801165605655       -5.90894894346243
H           30.49459930637881       -7.21685267147213       -6.22241508742298
H           28.18198108901811       -8.51406738250406       -4.98088557212982
H           29.80016530350606       -8.84097529774835       -4.30827903853553
H           29.44030258198994       -9.21167891102319       -6.01477496270499
H           28.26110649951008       -6.96483953859855       -3.33262682160102
H           28.30504012946215       -5.02864062392177       -1.83962582817004
H           27.14474227430907       -3.16639972114748       -3.24162033186022
H           25.26134978073246       -1.66804331292872       -2.03363914812528
H           25.31610394051248        1.47862545155975        2.19733951813332
H           27.21747744076571        2.98704126123429        3.36333782147219
H           28.19613700934221        4.89494399141461        1.93999188510519
H           28.17525750649573        6.81851698902906        3.44810967442296
H           30.61458996469551        7.16806344716935        6.15566549820532
H           29.69385540416216        8.77047095886410        4.32482874363479
H           29.43607239231463        9.10411745987101        6.05718710602767
H           28.14786380843602        8.34772592446906        5.10502846230339
H           31.30416649650757        5.01190034895926        5.77727670702655
H           31.30299975825881        3.07370665589230        4.26113818930979
H           32.28350828827609        3.99068909956398        2.05415940458646
H           34.16606808458526        2.51061697063594        0.81511722037564
C           23.71353259001075       -0.04917620853095        0.07737553386279
C           24.93181646770362       -0.06407174868401        0.06419547957667

          :  Hamiltonian                  GFN1-xTB          :
         :: total energy            -219.241251337986 Eh    ::
         :: gradient norm              0.000424926775 Eh/a0 ::
         :: HOMO-LUMO gap              0.085504777716 eV    ::
         :: SCC energy              -222.612150233173 Eh    ::
         :: repulsion energy           3.488289292136 Eh    ::

    * Orbital Energies and Occupations

         #    Occupation            Energy/Eh            Energy/eV
      -------------------------------------------------------------
         1        2.0000           -0.7796173             -21.2145
       ...           ...                  ...                  ...
       191        2.0000           -0.3936810             -10.7126
       192        2.0000           -0.3910373             -10.6407
       193        2.0000           -0.3910277             -10.6404
       194        2.0000           -0.3852133             -10.4822
       195        2.0000           -0.3852004             -10.4818
       196        2.0000           -0.3815718             -10.3831
       197        1.9926           -0.3749268             -10.2023
       198        1.9922           -0.3748783             -10.2010
       199        1.9619           -0.3733599             -10.1596
       200        1.9603           -0.3733216             -10.1586
       201        1.9548           -0.3731949             -10.1552
       202        1.9546           -0.3731917             -10.1551
       203        1.6642           -0.3711372             -10.0992 (HOMO)
       204        0.3071           -0.3679950             -10.0137 (LUMO)
       205        0.2124           -0.3675928             -10.0027
       206                         -0.3272728              -8.9055
       207                         -0.3157702              -8.5925
       208                         -0.3157528              -8.5921
       209                         -0.3104327              -8.4473
       210                         -0.2867941              -7.8041
       211                         -0.2857623              -7.7760
       212                         -0.2855553              -7.7704
       213                         -0.2777853              -7.5589
       214                         -0.2557948              -6.9605
       ...                                ...                  ...
       446                          1.3481113              36.6840
      -------------------------------------------------------------
                  HL-Gap            0.0031422 Eh            0.0855 eV

Wiberg/Mayer (AO) data.
largest (>0.10) Wiberg bond orders for each atom

     #   Z sym  total        # sym  WBO       # sym  WBO       # sym  WBO
 ---------------------------------------------------------------------------
     1  26 Fe   3.172 --     7 N    0.671    27 N    0.663    41 N    0.662
                            20 N    0.655
     2   6 C    3.923 --     3 C    1.362    40 C    1.361    42 H    0.970
     3   6 C    3.927 --     2 C    1.362     7 N    1.208     4 C    1.176
     4   6 C    3.958 --     5 C    1.644     3 C    1.176    43 H    0.975
     5   6 C    3.962 --     4 C    1.644     6 C    1.178    44 H    0.973
     6   6 C    3.920 --     8 C    1.307     7 N    1.227     5 C    1.178
     7   7 N    3.377 --     6 C    1.227     3 C    1.208     1 Fe   0.671
     8   6 C    3.924 --    17 C    1.323     6 C    1.307     9 C    1.044
     9   6 C    3.984 --    16 C    1.378    10 C    1.369     8 C    1.044
    10   6 C    3.985 --    11 C    1.480     9 C    1.369    45 H    0.972
    11   6 C    3.987 --    10 C    1.480    12 C    1.342    46 H    0.971
    12   6 C    3.948 --    15 C    1.350    11 C    1.342    13 N    1.113
    13   7 N    3.179 --    12 C    1.113    14 C    0.971    47 H    0.930
    14   6 C    3.967 --    50 H    0.990    48 H    0.986    49 H    0.983
                            13 N    0.971
    15   6 C    3.987 --    16 C    1.468    12 C    1.350    51 H    0.970
    16   6 C    3.984 --    15 C    1.468     9 C    1.378    52 H    0.972
    17   6 C    3.917 --     8 C    1.323    20 N    1.205    18 C    1.184
    18   6 C    3.958 --    19 C    1.631    17 C    1.184    53 H    0.973
    19   6 C    3.961 --    18 C    1.631    21 C    1.193    54 H    0.971
    20   7 N    3.374 --    21 C    1.242    17 C    1.205     1 Fe   0.655
    21   6 C    3.911 --    22 C    1.253    20 N    1.242    19 C    1.193
    22   6 C    3.921 --    21 C    1.253    23 C    1.251   133 C    1.195
    23   6 C    3.910 --    22 C    1.251    27 N    1.244    24 C    1.192
    24   6 C    3.959 --    25 C    1.631    23 C    1.192    55 H    0.971
    25   6 C    3.958 --    24 C    1.631    26 C    1.183    56 H    0.973
    26   6 C    3.917 --    28 C    1.325    27 N    1.202    25 C    1.183
    27   7 N    3.378 --    23 C    1.244    26 C    1.202     1 Fe   0.663
    28   6 C    3.924 --    26 C    1.325    37 C    1.304    29 C    1.045
    29   6 C    3.984 --    30 C    1.378    36 C    1.368    28 C    1.045
    30   6 C    3.984 --    31 C    1.468    29 C    1.378    57 H    0.972
    31   6 C    3.987 --    30 C    1.468    32 C    1.350    58 H    0.970
    32   6 C    3.948 --    31 C    1.350    35 C    1.341    33 N    1.113
    33   7 N    3.180 --    32 C    1.113    34 C    0.971    59 H    0.930
    34   6 C    3.967 --    61 H    0.990    62 H    0.986    60 H    0.983
                            33 N    0.971
    35   6 C    3.987 --    36 C    1.480    32 C    1.341    63 H    0.971
    36   6 C    3.984 --    35 C    1.480    29 C    1.368    64 H    0.972
    37   6 C    3.920 --    28 C    1.304    41 N    1.229    38 C    1.179
    38   6 C    3.963 --    39 C    1.643    37 C    1.179    65 H    0.973
    39   6 C    3.958 --    38 C    1.643    40 C    1.177    66 H    0.975
    40   6 C    3.927 --     2 C    1.361    41 N    1.207    39 C    1.177
    41   7 N    3.372 --    37 C    1.229    40 C    1.207     1 Fe   0.662
    42   1 H    1.001 --     2 C    0.970
    43   1 H    0.998 --     4 C    0.975
    44   1 H    1.005 --     5 C    0.973
    45   1 H    1.005 --    10 C    0.972
    46   1 H    0.999 --    11 C    0.971
    47   1 H    0.965 --    13 N    0.930
    48   1 H    1.012 --    14 C    0.986
    49   1 H    1.003 --    14 C    0.983
    50   1 H    1.007 --    14 C    0.990
    51   1 H    1.001 --    15 C    0.970
    52   1 H    1.006 --    16 C    0.972
    53   1 H    1.005 --    18 C    0.973
    54   1 H    1.005 --    19 C    0.971
    55   1 H    1.005 --    24 C    0.971
    56   1 H    1.005 --    25 C    0.973
    57   1 H    1.006 --    30 C    0.972
    58   1 H    1.001 --    31 C    0.970
    59   1 H    0.965 --    33 N    0.930
    60   1 H    1.003 --    34 C    0.983
    61   1 H    1.007 --    34 C    0.990
    62   1 H    1.011 --    34 C    0.986
    63   1 H    0.999 --    35 C    0.971
    64   1 H    1.005 --    36 C    0.972
    65   1 H    1.005 --    38 C    0.973
    66   1 H    0.998 --    39 C    0.975
    67  26 Fe   3.174 --    73 N    0.671    93 N    0.664   107 N    0.662
                            86 N    0.655
    68   6 C    3.923 --    69 C    1.362   106 C    1.361   108 H    0.970
    69   6 C    3.927 --    68 C    1.362    73 N    1.208    70 C    1.176
    70   6 C    3.958 --    71 C    1.644    69 C    1.176   109 H    0.975
    71   6 C    3.962 --    70 C    1.644    72 C    1.178   110 H    0.973
    72   6 C    3.920 --    74 C    1.307    73 N    1.227    71 C    1.178
    73   7 N    3.377 --    72 C    1.227    69 C    1.208    67 Fe   0.671
    74   6 C    3.924 --    83 C    1.323    72 C    1.307    75 C    1.044
    75   6 C    3.984 --    82 C    1.378    76 C    1.369    74 C    1.044
    76   6 C    3.985 --    77 C    1.480    75 C    1.369   111 H    0.972
    77   6 C    3.987 --    76 C    1.480    78 C    1.342   112 H    0.971
    78   6 C    3.948 --    81 C    1.350    77 C    1.342    79 N    1.113
    79   7 N    3.179 --    78 C    1.113    80 C    0.971   113 H    0.930
    80   6 C    3.967 --   116 H    0.990   114 H    0.986   115 H    0.983
                            79 N    0.971
    81   6 C    3.987 --    82 C    1.468    78 C    1.350   117 H    0.970
    82   6 C    3.984 --    81 C    1.468    75 C    1.378   118 H    0.972
    83   6 C    3.917 --    74 C    1.323    86 N    1.205    84 C    1.184
    84   6 C    3.958 --    85 C    1.631    83 C    1.184   119 H    0.973
    85   6 C    3.961 --    84 C    1.631    87 C    1.193   120 H    0.971
    86   7 N    3.374 --    87 C    1.242    83 C    1.205    67 Fe   0.655
    87   6 C    3.911 --    88 C    1.253    86 N    1.242    85 C    1.193
    88   6 C    3.922 --    87 C    1.253    89 C    1.251   134 C    1.195
    89   6 C    3.910 --    88 C    1.251    93 N    1.244    90 C    1.192
    90   6 C    3.959 --    91 C    1.631    89 C    1.192   121 H    0.971
    91   6 C    3.958 --    90 C    1.631    92 C    1.183   122 H    0.973
    92   6 C    3.917 --    94 C    1.325    93 N    1.202    91 C    1.183
    93   7 N    3.378 --    89 C    1.244    92 C    1.202    67 Fe   0.664
    94   6 C    3.924 --    92 C    1.325   103 C    1.303    95 C    1.045
    95   6 C    3.984 --    96 C    1.378   102 C    1.368    94 C    1.045
    96   6 C    3.984 --    97 C    1.468    95 C    1.378   123 H    0.972
    97   6 C    3.987 --    96 C    1.468    98 C    1.350   124 H    0.970
    98   6 C    3.948 --    97 C    1.350   101 C    1.341    99 N    1.113
    99   7 N    3.180 --    98 C    1.113   100 C    0.971   125 H    0.930
   100   6 C    3.967 --   127 H    0.990   128 H    0.986   126 H    0.983
                            99 N    0.971
   101   6 C    3.987 --   102 C    1.480    98 C    1.341   129 H    0.971
   102   6 C    3.984 --   101 C    1.480    95 C    1.368   130 H    0.972
   103   6 C    3.920 --    94 C    1.303   107 N    1.229   104 C    1.179
   104   6 C    3.963 --   105 C    1.643   103 C    1.179   131 H    0.973
   105   6 C    3.958 --   104 C    1.643   106 C    1.177   132 H    0.975
   106   6 C    3.927 --    68 C    1.361   107 N    1.207   105 C    1.177
   107   7 N    3.372 --   103 C    1.229   106 C    1.207    67 Fe   0.662
   108   1 H    1.001 --    68 C    0.970
   109   1 H    0.998 --    70 C    0.975
   110   1 H    1.005 --    71 C    0.973
   111   1 H    1.005 --    76 C    0.972
   112   1 H    0.999 --    77 C    0.971
   113   1 H    0.965 --    79 N    0.930
   114   1 H    1.012 --    80 C    0.986
   115   1 H    1.003 --    80 C    0.983
   116   1 H    1.007 --    80 C    0.990
   117   1 H    1.001 --    81 C    0.970
   118   1 H    1.006 --    82 C    0.972
   119   1 H    1.005 --    84 C    0.973
   120   1 H    1.005 --    85 C    0.971
   121   1 H    1.005 --    90 C    0.971
   122   1 H    1.005 --    91 C    0.973
   123   1 H    1.006 --    96 C    0.972
   124   1 H    1.001 --    97 C    0.970
   125   1 H    0.965 --    99 N    0.930
   126   1 H    1.003 --   100 C    0.983
   127   1 H    1.007 --   100 C    0.990
   128   1 H    1.011 --   100 C    0.986
   129   1 H    0.999 --   101 C    0.971
   130   1 H    1.005 --   102 C    0.972
   131   1 H    1.005 --   104 C    0.973
   132   1 H    0.998 --   105 C    0.975
   133   6 C    3.923 --   134 C    2.549    22 C    1.195
   134   6 C    3.923 --   133 C    2.549    88 C    1.195
 ---------------------------------------------------------------------------

           -------------------------------------------------
          | TOTAL ENERGY             -219.241251337986 Eh   |
          | GRADIENT NORM               0.000424926775 Eh/α |
          | HOMO-LUMO GAP               0.085504777716 eV   |
           -------------------------------------------------

 * finished run on 2022/07/29 at 15:35:57.710
