   * xtb version 6.5.1 (b24c23e) compiled by 'conda@728c89f4b128' on 2022-07-12
          program call               : xtb m-CP_C2_3.xyz --gfn 1 --opt -T 48

   ID    Z sym.   atoms
    1    6 C      1-5, 7-11, 14-19, 21-26, 28-34, 37-41, 64-68, 70-74, 77-82,
                  84-89, 91-97, 100-104, 127-135, 137-141, 144-149, 151-156,
                  158-164, 167-171
    2    7 N      6, 20, 27, 42, 69, 83, 90, 105, 136, 150, 157, 172
    3    8 O      12, 13, 35, 36, 75, 76, 98, 99, 142, 143, 165, 166
    4    1 H      43-63, 106-126, 173-192
########################################################################
[WARNING] Please study the warnings concerning your input carefully
-1- prog_main_parseArguments: Unknown option '-T' provided
########################################################################

          :  Hamiltonian                  GFN1-xTB          :
 * total energy  :  -351.1839258 Eh     change       -0.8582902E-08 Eh
 * total energy  :  -351.7636728 Eh     change       -0.5797470E+00 Eh
 * total energy  :  -351.9274452 Eh     change       -0.1637725E+00 Eh
 * total energy  :  -352.0091408 Eh     change       -0.8169552E-01 Eh
 * total energy  :  -352.0373042 Eh     change       -0.2816342E-01 Eh
 * total energy  :  -352.0563927 Eh     change       -0.1908849E-01 Eh
 * total energy  :  -352.0697860 Eh     change       -0.1339332E-01 Eh
 * total energy  :  -352.0798050 Eh     change       -0.1001900E-01 Eh
 * total energy  :  -352.0871624 Eh     change       -0.7357362E-02 Eh
 * total energy  :  -352.0923307 Eh     change       -0.5168326E-02 Eh
 * total energy  :  -352.1110606 Eh     change       -0.1783154E-04 Eh
 * total energy  :  -352.1110708 Eh     change       -0.1022200E-04 Eh
 * total energy  :  -352.1110805 Eh     change       -0.9671471E-05 Eh
 * total energy  :  -352.1110870 Eh     change       -0.6468088E-05 Eh
 * total energy  :  -352.1110989 Eh     change       -0.1187867E-04 Eh
 * total energy  :  -352.1111102 Eh     change       -0.1135932E-04 Eh
 * total energy  :  -352.1111214 Eh     change       -0.1114425E-04 Eh
 * total energy  :  -352.1111290 Eh     change       -0.7681934E-05 Eh
 * total energy  :  -352.1111335 Eh     change       -0.4485452E-05 Eh
   *** GEOMETRY OPTIMIZATION CONVERGED AFTER 75 ITERATIONS ***

 final structure:
================
192
 xtb: 6.5.1 (b24c23e)
C           31.32415285024287       -0.04731473359005       -0.22507407579450
C           31.92211564132792        1.17060531696862       -0.52112835137381
C           31.26079423774893        2.39975208339524       -0.79939825510097
C           32.21556080642383        3.34336494390426       -1.05403983954159
C           33.49143385612626        2.71843822020401       -0.94928260172148
N           33.26350960105368        1.41383378505691       -0.61526597482929
C           34.74880930304512        3.30274325885688       -1.13589031314461
C           34.76408389504802        4.73281325921295       -1.53188377700336
C           35.37524454356731        5.68332000716861       -0.71875107345082
C           35.38381997173192        7.02822281484347       -1.08603196088558
C           36.04595481427203        7.99438782732057       -0.17394901638450
O           35.98596859159233        9.26353669131766       -0.60282006311919
O           36.59087874510494        7.69311255387989        0.85701824044767
C           34.78146721906528        7.43156518282007       -2.27780346516994
C           34.17559938051850        6.48681758248828       -3.09099159814528
C           34.16362208923905        5.14878508486501       -2.72262083600714
C           35.97344461765031        2.64873352077235       -0.97895457726980
C           37.25972663559244        3.26441837134827       -1.25214194317240
C           38.19453148065146        2.33037588943518       -0.98165835526204
N           36.14821160357316        1.36152839198893       -0.57314291291863
C           37.47979877418044        1.14520008690153       -0.54942243412311
C           38.13278921167154       -0.04265103547216       -0.16543114823788
C           37.50707551201043       -1.24734868798717        0.20625404735884
C           38.15506440959352       -2.43180075612439        0.64552589136525
C           37.19514772553504       -3.37399235820778        0.89060630635859
C           35.92865496722366       -2.79284431503676        0.60587792126027
N           36.16785156594696       -1.50464364133017        0.20737663816685
C           34.67335797582643       -3.39828503344537        0.72852794774059
C           34.66305316529018       -4.82583959579363        1.13338509126235
C           35.27411140513062       -5.79304818992300        0.33207912826773
C           35.26938328151177       -7.12911927623124        0.70805943787873
C           34.66072031662745       -7.51539018369543        1.89048146792602
C           34.04908166193746       -6.55787968493815        2.70128939786279
C           33.41470581069292       -7.01146240881292        3.96462427067009
O           32.85995426857183       -6.01804132095717        4.67383230995667
O           33.38907418673256       -8.15594491596316        4.33865626666117
C           34.04842664118305       -5.21747769673453        2.32093408173345
C           33.44849584279650       -2.76210215056724        0.50687140635365
C           32.15466930079232       -3.42138237638061        0.59847431212915
C           31.22692264972901       -2.47953654247590        0.33508763312877
C           31.95309955595844       -1.24930617144151        0.07189328058062
N           33.28822732899754       -1.45981601404079        0.17237025568023
H           30.23889694604361       -0.05079390510116       -0.22850931030711
H           30.19073208838957        2.53277652943857       -0.79593834129541
H           32.05628471027251        4.38415742339337       -1.28509262340916
H           33.99301623364902        0.72752748278769       -0.45431812681474
H           35.83751496510590        5.38935170325602        0.21720879231985
H           36.43701266548639        9.82929611561612        0.04465085662264
H           34.79070721104197        8.47664518839889       -2.56261076986738
H           33.70947453802887        6.79240073989877       -4.02092322129024
H           33.69950564828771        4.41377949463700       -3.37091102752324
H           37.40523740536705        4.26832773422210       -1.61657148610503
H           39.26586636626805        2.40744973025197       -1.07310463295248
H           39.22005773455184       -2.53850134529045        0.76964650159964
H           37.34703439325611       -4.37845303347946        1.25058474928146
H           35.44354991744959       -0.83805258860645       -0.03858173028071
H           35.74180777259130       -5.49417088204525       -0.59950137674347
H           35.74313263386362       -7.86908976231477        0.07310458049722
H           34.65056760574530       -8.55404430033089        2.20101348963610
H           32.47182516584397       -6.39426524448547        5.48021295408370
H           33.58423954796099       -4.47431108164107        2.95837551351833
H           32.00351077863491       -4.46496308598717        0.82317228223803
H           30.15308169634214       -2.57785864376412        0.30665499888789
C           59.90218660631990        0.08781167928725       -0.29257796486123
C           59.33395289633709       -1.15766227502677       -0.05936089342496
C           60.02447337956541       -2.38099557901819        0.16847733754552
C           59.09197972850050       -3.36372915515592        0.34635883933778
C           57.80135596186695       -2.77337877706579        0.22421042035599
N           57.99839073009311       -1.44293484488899       -0.01236054675811
C           56.55821473671936       -3.40306475440369        0.34877166811043
C           56.57966886349134       -4.86805568500035        0.58793583474710
C           56.04344407111888       -5.40374295484115        1.75541953030218
C           56.06475206925911       -6.78022689531683        1.97656372754226
C           55.47828803247690       -7.29092767972092        3.24123512291148
O           55.55911040694274       -8.62331958774034        3.36937505113128
O           54.97256127673066       -6.59688955626000        4.08558420496263
C           56.62386136374082       -7.63310054633799        1.02485136465127
C           57.15841461604357       -7.10214327835257       -0.13841550889848
C           57.13942841531718       -5.73169056695653       -0.35660939774435
C           55.31807611399947       -2.76596246462556        0.26652526266926
C           54.04584597502491       -3.45761884949644        0.37254827980022
C           53.08874934348899       -2.51600157929748        0.24633945672186
N           55.11115375770898       -1.43612266117431        0.05998934360609
C           53.77452551300566       -1.25417172440161        0.04708586234931
C           53.09124538312377       -0.03341043799259       -0.12392703969031
C           53.68685593778969        1.22444511767312       -0.33557808840491
C           53.00710003652436        2.45926432585768       -0.50718871170372
C           53.94432892953771        3.43703153254141       -0.69141509169797
C           55.22840097636038        2.82605391517933       -0.65251594145852
N           55.02103951181569        1.49051698923815       -0.42900571562173
C           56.46997125686124        3.45538643506263       -0.79059099176761
C           56.45187661969057        4.91932970209660       -1.03337193531846
C           55.84060339158479        5.44410841866350       -2.17425046162845
C           55.82403421237739        6.81338821623781       -2.40125635389030
C           56.41467517527063        7.67535340438489       -1.49249292017524
C           57.02909357258839        7.16317859976751       -0.34859854564520
C           57.65148308262863        8.11937190788303        0.60120898737005
O           58.22860436327829        7.52850732223183        1.65746857680848
O           57.65264064138861        9.31530230204628        0.45813064013114
C           57.04752886142553        5.78864580733361       -0.12163946220241
C           57.71103709546743        2.81509273795194       -0.71653597543219
C           58.98868636826285        3.48289692353390       -0.91427418914873
C           59.93954797502661        2.53816145157042       -0.77162612634580
C           59.24383515164034        1.29286566663757       -0.49849035847672
N           57.90358626140530        1.49605335891726       -0.48024690170334
H           60.98688612682757        0.11231720048990       -0.31704127614211
H           61.09777503297949       -2.48111821437855        0.19669948372999
H           59.27565367989673       -4.40540053484128        0.55423751622235
H           57.25316789593910       -0.76431547264083       -0.12769582940826
H           55.61620277529548       -4.75479205536146        2.51202776120901
H           55.15592676671912       -8.87664858995676        4.21558545979959
H           56.63708223032190       -8.70244919419954        1.19717491241791
H           57.59167897172028       -7.75923915723376       -0.88407319730242
H           57.54696256122197       -5.32473179107067       -1.27541126405593
H           53.92258316431115       -4.51883521421749        0.51525691301700
H           52.01873944082144       -2.63979978985507        0.28116331876011
H           51.93639134383328        2.57795267414520       -0.49187990883014
H           53.76459143896687        4.48996398391119       -0.83442403728434
H           55.76222302043821        0.80338773493442       -0.33927330084315
H           55.39048718915745        4.77047626002036       -2.89495447594892
H           55.34902148642450        7.20557636689658       -3.29326289492462
H           56.41012249872319        8.74737954649320       -1.65390849415997
H           58.60989512205798        8.21716775401478        2.22590178348176
H           57.51242045882881        5.39445456282466        0.77428961130075
H           59.11508672334840        4.52884472227189       -1.14301653325902
H           61.01073582801140        2.64060183623216       -0.84690907580408
C           39.54269553798071       -0.04028600399901       -0.14684007223834
C           40.75971048171208       -0.04525463441430       -0.12965066214151
C           50.46508486562940       -0.07022250680738       -0.05117158282980
C           51.68206628494065       -0.05757672963817       -0.08331585869469
C           42.16874480967306       -0.04987571073336       -0.10608433747787
C           42.79938725884439        1.19208278451787        0.09581833875282
C           42.16012229903515        2.44753233809479        0.26439035096489
C           43.12920858449039        3.38993560192626        0.47293148271391
C           44.39044441524232        2.73385730140978        0.45130194474079
N           44.14096077034323        1.41020049803525        0.20620360789393
C           45.64995663534204        3.31443389398183        0.64255831366569
C           45.66793883455433        4.76775865130885        0.94417412270682
C           46.32783846562981        5.65424587137632        0.09741067093326
C           46.34903472892351        7.01942685844543        0.37945469216005
C           47.07278207479056        7.91251270987582       -0.55993243230148
O           47.02498986184547        9.20678255537901       -0.21285956102091
O           47.65628856704227        7.53552177016681       -1.54386962720859
C           45.70695839328255        7.50826963823072        1.51717248995594
C           45.05029115162395        6.62784973328629        2.36249544670254
C           45.02875539643693        5.26913255104553        2.08064801896246
C           46.87525670395410        2.64861833363186        0.57392697751564
C           48.15253187677440        3.27986679176405        0.85493383576730
C           49.09528448967517        2.33447530307426        0.66364400508823
N           47.06211327876554        1.34015547997749        0.24904365970889
C           48.39433790716966        1.12719711388781        0.27508982133349
C           49.05620422008313       -0.07895009769365       -0.02918793170280
C           48.42556475378700       -1.30488102355135       -0.31382398002610
C           49.06273857793455       -2.52757026978195       -0.64762404369069
C           48.09289321900605       -3.47730953558741       -0.81541593393257
C           46.83227511192339       -2.86030757054967       -0.58880382596141
N           47.08323580030832       -1.54597246927010       -0.30050135910105
C           45.57177026814558       -3.46423536131961       -0.67109856527209
C           45.56353850167946       -4.92513085271255       -0.93688022371533
C           44.96759305179035       -5.43625488154537       -2.09187190423070
C           44.96229780428486       -6.80207006647526       -2.33925329845707
C           45.54956409834397       -7.67399413642610       -1.43777760852935
C           46.14896186555590       -7.17539856787902       -0.28017433596565
C           46.76912646283492       -8.14141853913988        0.66155061411846
O           47.32184679459477       -7.56256345295714        1.73692827792901
O           46.78839437691157       -9.33420366171515        0.49534451693364
C           46.15633961373044       -5.80423464327584       -0.03291208408728
C           44.34431473286858       -2.81528485533374       -0.53045809341166
C           43.06112363610939       -3.49157260919583       -0.59552406275212
C           42.11930043766994       -2.53734308610974       -0.44687883589206
C           42.82657823120562       -1.28432662436867       -0.27402533482617
N           44.16019191945996       -1.48311447721916       -0.31991168659673
H           41.09447103125456        2.60385664845006        0.23068381008030
H           42.98430361234682        4.44747208343724        0.62154538973273
H           44.85561048533639        0.69512276071873        0.12125551831130
H           46.82122922633459        5.29342996488164       -0.79841920147126
H           47.52012359892083        9.72123074093760       -0.87085851452416
H           45.72575443565910        8.56901747534657        1.73586890271169
H           44.55286975304368        7.00022347832185        3.25083705129149
H           44.52707427730458        4.58497315205818        2.75592114520167
H           48.28764792631546        4.30135712124005        1.17109271798858
H           50.16264424030644        2.41697212539034        0.78835235035395
H           50.12706796136369       -2.65657380462491       -0.75443712088401
H           48.23568924456686       -4.51090908662357       -1.08531894957699
H           46.36925424737714       -0.85040875370587       -0.11164987970718
H           44.51958199563450       -4.75423198577570       -2.80578492312031
H           44.49894136878948       -7.18406901382096       -3.24175248456410
H           45.55387587339300       -8.74347134589848       -1.61541866296012
H           47.70297933510201       -8.25558075936981        2.30028133852205
H           46.61072231001772       -5.42083631774887        0.87305980283706
H           42.92018327531675       -4.55207435176553       -0.72720480232813
H           41.04709376828101       -2.64790818597349       -0.45019212699971

          :  Hamiltonian                  GFN1-xTB          :
         :: total energy            -352.111133525782 Eh    ::
         :: gradient norm              0.000698276576 Eh/a0 ::
         :: HOMO-LUMO gap              0.844386770899 eV    ::
         :: SCC energy              -357.259075047542 Eh    ::
         :: repulsion energy           5.316485758759 Eh    ::

    * Orbital Energies and Occupations

         #    Occupation            Energy/Eh            Energy/eV
      -------------------------------------------------------------
         1        2.0000           -0.8348225             -22.7167
       ...           ...                  ...                  ...
       297        2.0000           -0.4245384             -11.5523
       298        2.0000           -0.4233931             -11.5211
       299        2.0000           -0.4231691             -11.5150
       300        2.0000           -0.4220539             -11.4847
       301        2.0000           -0.4212128             -11.4618
       302        2.0000           -0.4208793             -11.4527
       303        2.0000           -0.4207366             -11.4488
       304        2.0000           -0.4055098             -11.0345
       305        2.0000           -0.4051847             -11.0256
       306        2.0000           -0.4044417             -11.0054
       307        2.0000           -0.3983754             -10.8403
       308        2.0000           -0.3908964             -10.6368
       309        2.0000           -0.3815853             -10.3835 (HOMO)
       310        0.0000           -0.3505547              -9.5391 (LUMO)
       311                         -0.3398332              -9.2473
       312                         -0.3380460              -9.1987
       313                         -0.3378867              -9.1944
       314                         -0.3371149              -9.1734
       315                         -0.3292069              -8.9582
       316                         -0.3132736              -8.5246
       317                         -0.3122939              -8.4979
       318                         -0.3118923              -8.4870
       319                         -0.3112409              -8.4693
       320                         -0.3111753              -8.4675
       ...                                ...                  ...
       644                          1.3309827              36.2179
      -------------------------------------------------------------
                  HL-Gap            0.0310306 Eh            0.8444 eV

Wiberg/Mayer (AO) data.
largest (>0.10) Wiberg bond orders for each atom

     #   Z sym  total        # sym  WBO       # sym  WBO       # sym  WBO
 ---------------------------------------------------------------------------
     1   6 C    3.926 --    41 C    1.365     2 C    1.347    43 H    0.971
     2   6 C    3.902 --     1 C    1.347     3 C    1.229     6 N    1.169
     3   6 C    3.953 --     4 C    1.596     2 C    1.229    44 H    0.976
     4   6 C    3.959 --     3 C    1.596     5 C    1.233    45 H    0.974
     5   6 C    3.898 --     7 C    1.304     4 C    1.233     6 N    1.177
     6   7 N    3.469 --     5 C    1.177     2 C    1.169    46 H    0.873
     7   6 C    3.938 --    17 C    1.334     5 C    1.304     8 C    1.028
     8   6 C    3.988 --     9 C    1.407    16 C    1.388     7 C    1.028
                            14 C    0.102
     9   6 C    3.984 --     8 C    1.407    10 C    1.397    47 H    0.968
                            15 C    0.104
    10   6 C    3.988 --     9 C    1.397    14 C    1.391    11 C    1.005
    11   6 C    3.836 --    13 O    1.692    12 O    1.090    10 C    1.005
    12   8 O    2.098 --    11 C    1.090    48 H    0.838    13 O    0.129
    13   8 O    1.961 --    11 C    1.692    12 O    0.129
    14   6 C    3.986 --    15 C    1.448    10 C    1.391    49 H    0.970
                             8 C    0.102
    15   6 C    3.994 --    14 C    1.448    16 C    1.441    50 H    0.972
                             9 C    0.104
    16   6 C    3.986 --    15 C    1.441     8 C    1.388    51 H    0.973
    17   6 C    3.916 --     7 C    1.334    20 N    1.288    18 C    1.124
    18   6 C    3.966 --    19 C    1.710    17 C    1.124    52 H    0.973
    19   6 C    3.964 --    18 C    1.710    21 C    1.128    53 H    0.970
    20   7 N    3.021 --    21 C    1.341    17 C    1.288
    21   6 C    3.913 --    20 N    1.341    22 C    1.261    19 C    1.128
    22   6 C    3.938 --    21 C    1.261    23 C    1.256   127 C    1.178
    23   6 C    3.889 --    22 C    1.256    24 C    1.249    27 N    1.187
    24   6 C    3.959 --    25 C    1.582    23 C    1.249    54 H    0.971
    25   6 C    3.954 --    24 C    1.582    26 C    1.241    55 H    0.974
    26   6 C    3.899 --    28 C    1.307    25 C    1.241    27 N    1.167
    27   7 N    3.474 --    23 C    1.187    26 C    1.167    56 H    0.873
    28   6 C    3.924 --    38 C    1.324    26 C    1.307    29 C    1.028
    29   6 C    3.988 --    37 C    1.405    30 C    1.389    28 C    1.028
                            32 C    0.102
    30   6 C    3.986 --    31 C    1.440    29 C    1.389    57 H    0.973
    31   6 C    3.994 --    32 C    1.450    30 C    1.440    58 H    0.972
                            37 C    0.104
    32   6 C    3.985 --    31 C    1.450    33 C    1.388    59 H    0.969
                            29 C    0.102
    33   6 C    3.988 --    37 C    1.400    32 C    1.388    34 C    1.005
    34   6 C    3.836 --    36 O    1.693    35 O    1.090    33 C    1.005
    35   8 O    2.099 --    34 C    1.090    60 H    0.838    36 O    0.129
    36   8 O    1.961 --    34 C    1.693    35 O    0.129
    37   6 C    3.985 --    29 C    1.405    33 C    1.400    61 H    0.969
                            31 C    0.104
    38   6 C    3.930 --    28 C    1.324    42 N    1.315    39 C    1.116
    39   6 C    3.967 --    40 C    1.724    38 C    1.116    62 H    0.974
    40   6 C    3.966 --    39 C    1.724    41 C    1.116    63 H    0.976
    41   6 C    3.929 --     1 C    1.365    42 N    1.301    40 C    1.116
    42   7 N    3.011 --    38 C    1.315    41 C    1.301
    43   1 H    1.002 --     1 C    0.971
    44   1 H    0.997 --     3 C    0.976
    45   1 H    1.004 --     4 C    0.974
    46   1 H    0.986 --     6 N    0.873
    47   1 H    1.007 --     9 C    0.968
    48   1 H    0.873 --    12 O    0.838
    49   1 H    1.005 --    14 C    0.970
    50   1 H    1.002 --    15 C    0.972
    51   1 H    1.004 --    16 C    0.973
    52   1 H    1.004 --    18 C    0.973
    53   1 H    1.005 --    19 C    0.970
    54   1 H    1.005 --    24 C    0.971
    55   1 H    1.004 --    25 C    0.974
    56   1 H    0.987 --    27 N    0.873
    57   1 H    1.004 --    30 C    0.973
    58   1 H    1.002 --    31 C    0.972
    59   1 H    1.005 --    32 C    0.969
    60   1 H    0.873 --    35 O    0.838
    61   1 H    1.007 --    37 C    0.969
    62   1 H    1.004 --    39 C    0.974
    63   1 H    0.998 --    40 C    0.976
    64   6 C    3.925 --   104 C    1.366    65 C    1.347   106 H    0.971
    65   6 C    3.902 --    64 C    1.347    66 C    1.229    69 N    1.169
    66   6 C    3.953 --    67 C    1.596    65 C    1.229   107 H    0.976
    67   6 C    3.959 --    66 C    1.596    68 C    1.233   108 H    0.974
    68   6 C    3.897 --    70 C    1.303    67 C    1.233    69 N    1.178
    69   7 N    3.470 --    68 C    1.178    65 C    1.169   109 H    0.873
    70   6 C    3.938 --    80 C    1.337    68 C    1.303    71 C    1.026
    71   6 C    3.988 --    72 C    1.408    79 C    1.389    70 C    1.026
                            77 C    0.103
    72   6 C    3.984 --    71 C    1.408    73 C    1.397   110 H    0.968
                            78 C    0.104
    73   6 C    3.988 --    72 C    1.397    77 C    1.391    74 C    1.005
    74   6 C    3.836 --    76 O    1.693    75 O    1.090    73 C    1.005
    75   8 O    2.098 --    74 C    1.090   111 H    0.838    76 O    0.129
    76   8 O    1.962 --    74 C    1.693    75 O    0.129
    77   6 C    3.987 --    78 C    1.448    73 C    1.391   112 H    0.970
                            71 C    0.103
    78   6 C    3.994 --    77 C    1.448    79 C    1.441   113 H    0.972
                            72 C    0.104
    79   6 C    3.987 --    78 C    1.441    71 C    1.389   114 H    0.973
    80   6 C    3.916 --    70 C    1.337    83 N    1.286    81 C    1.124
    81   6 C    3.966 --    82 C    1.711    80 C    1.124   115 H    0.973
    82   6 C    3.964 --    81 C    1.711    84 C    1.127   116 H    0.969
    83   7 N    3.021 --    84 C    1.343    80 C    1.286
    84   6 C    3.913 --    83 N    1.343    85 C    1.259    82 C    1.127
    85   6 C    3.938 --    84 C    1.259    86 C    1.256   130 C    1.179
    86   6 C    3.889 --    85 C    1.256    87 C    1.248    90 N    1.188
    87   6 C    3.959 --    88 C    1.584    86 C    1.248   117 H    0.970
    88   6 C    3.954 --    87 C    1.584    89 C    1.239   118 H    0.974
    89   6 C    3.899 --    91 C    1.310    88 C    1.239    90 N    1.166
    90   7 N    3.474 --    86 C    1.188    89 C    1.166   119 H    0.873
    91   6 C    3.924 --   101 C    1.322    89 C    1.310    92 C    1.028
    92   6 C    3.988 --   100 C    1.405    93 C    1.389    91 C    1.028
                            95 C    0.102
    93   6 C    3.986 --    94 C    1.439    92 C    1.389   120 H    0.973
    94   6 C    3.994 --    95 C    1.451    93 C    1.439   121 H    0.972
                           100 C    0.104
    95   6 C    3.985 --    94 C    1.451    96 C    1.387   122 H    0.969
                            92 C    0.102
    96   6 C    3.988 --   100 C    1.400    95 C    1.387    97 C    1.005
    97   6 C    3.836 --    99 O    1.692    98 O    1.090    96 C    1.005
    98   8 O    2.099 --    97 C    1.090   123 H    0.838    99 O    0.129
    99   8 O    1.961 --    97 C    1.692    98 O    0.129
   100   6 C    3.985 --    92 C    1.405    96 C    1.400   124 H    0.969
                            94 C    0.104
   101   6 C    3.929 --    91 C    1.322   105 N    1.317   102 C    1.116
   102   6 C    3.967 --   103 C    1.724   101 C    1.116   125 H    0.973
   103   6 C    3.966 --   102 C    1.724   104 C    1.116   126 H    0.976
   104   6 C    3.929 --    64 C    1.366   105 N    1.300   103 C    1.116
   105   7 N    3.011 --   101 C    1.317   104 C    1.300
   106   1 H    1.002 --    64 C    0.971
   107   1 H    0.997 --    66 C    0.976
   108   1 H    1.004 --    67 C    0.974
   109   1 H    0.986 --    69 N    0.873
   110   1 H    1.007 --    72 C    0.968
   111   1 H    0.873 --    75 O    0.838
   112   1 H    1.005 --    77 C    0.970
   113   1 H    1.002 --    78 C    0.972
   114   1 H    1.004 --    79 C    0.973
   115   1 H    1.004 --    81 C    0.973
   116   1 H    1.006 --    82 C    0.969
   117   1 H    1.006 --    87 C    0.970
   118   1 H    1.004 --    88 C    0.974
   119   1 H    0.987 --    90 N    0.873
   120   1 H    1.004 --    93 C    0.973
   121   1 H    1.001 --    94 C    0.972
   122   1 H    1.005 --    95 C    0.969
   123   1 H    0.873 --    98 O    0.838
   124   1 H    1.007 --   100 C    0.969
   125   1 H    1.004 --   102 C    0.973
   126   1 H    0.998 --   103 C    0.976
   127   6 C    3.929 --   128 C    2.574    22 C    1.178
   128   6 C    3.932 --   127 C    2.574   131 C    1.179
   129   6 C    3.933 --   130 C    2.573   152 C    1.182
   130   6 C    3.929 --   129 C    2.573    85 C    1.179
   131   6 C    3.925 --   171 C    1.259   132 C    1.253   128 C    1.179
   132   6 C    3.890 --   131 C    1.253   133 C    1.252   136 N    1.188
   133   6 C    3.956 --   134 C    1.578   132 C    1.252   173 H    0.971
   134   6 C    3.956 --   133 C    1.578   135 C    1.244   174 H    0.974
   135   6 C    3.894 --   137 C    1.300   134 C    1.244   136 N    1.168
   136   7 N    3.471 --   132 C    1.188   135 C    1.168   175 H    0.874
   137   6 C    3.926 --   147 C    1.337   135 C    1.300   138 C    1.028
   138   6 C    3.988 --   139 C    1.407   146 C    1.388   137 C    1.028
                           144 C    0.102
   139   6 C    3.984 --   138 C    1.407   140 C    1.397   176 H    0.968
                           145 C    0.104
   140   6 C    3.988 --   139 C    1.397   144 C    1.391   141 C    1.005
   141   6 C    3.836 --   143 O    1.692   142 O    1.090   140 C    1.005
   142   8 O    2.099 --   141 C    1.090   177 H    0.838   143 O    0.129
   143   8 O    1.961 --   141 C    1.692   142 O    0.129
   144   6 C    3.986 --   145 C    1.448   140 C    1.391   178 H    0.970
                           138 C    0.102
   145   6 C    3.994 --   144 C    1.448   146 C    1.441   179 H    0.972
                           139 C    0.104
   146   6 C    3.986 --   145 C    1.441   138 C    1.388   180 H    0.973
   147   6 C    3.917 --   137 C    1.337   150 N    1.286   148 C    1.124
   148   6 C    3.966 --   149 C    1.709   147 C    1.124   181 H    0.973
   149   6 C    3.964 --   148 C    1.709   151 C    1.129   182 H    0.970
   150   7 N    3.009 --   151 C    1.342   147 C    1.286
   151   6 C    3.913 --   150 N    1.342   152 C    1.258   149 C    1.129
   152   6 C    3.925 --   151 C    1.258   153 C    1.252   129 C    1.182
   153   6 C    3.890 --   154 C    1.253   152 C    1.252   157 N    1.187
   154   6 C    3.956 --   155 C    1.577   153 C    1.253   183 H    0.970
   155   6 C    3.955 --   154 C    1.577   156 C    1.245   184 H    0.974
   156   6 C    3.895 --   158 C    1.299   155 C    1.245   157 N    1.168
   157   7 N    3.471 --   153 C    1.187   156 C    1.168   185 H    0.874
   158   6 C    3.926 --   168 C    1.338   156 C    1.299   159 C    1.026
   159   6 C    3.988 --   167 C    1.406   160 C    1.389   158 C    1.026
                           162 C    0.102
   160   6 C    3.987 --   161 C    1.439   159 C    1.389   186 H    0.972
                           163 C    0.100
   161   6 C    3.994 --   162 C    1.450   160 C    1.439   187 H    0.972
                           167 C    0.104
   162   6 C    3.985 --   161 C    1.450   163 C    1.388   188 H    0.969
                           159 C    0.102
   163   6 C    3.988 --   167 C    1.400   162 C    1.388   164 C    1.004
                           160 C    0.100
   164   6 C    3.836 --   166 O    1.692   165 O    1.091   163 C    1.004
   165   8 O    2.100 --   164 C    1.091   189 H    0.837   166 O    0.129
   166   8 O    1.961 --   164 C    1.692   165 O    0.129
   167   6 C    3.984 --   159 C    1.406   163 C    1.400   190 H    0.969
                           161 C    0.104
   168   6 C    3.918 --   158 C    1.338   172 N    1.285   169 C    1.125
   169   6 C    3.966 --   170 C    1.708   168 C    1.125   191 H    0.973
   170   6 C    3.964 --   169 C    1.708   171 C    1.130   192 H    0.970
   171   6 C    3.914 --   172 N    1.343   131 C    1.259   170 C    1.130
   172   7 N    3.008 --   171 C    1.343   168 C    1.285
   173   1 H    1.005 --   133 C    0.971
   174   1 H    1.004 --   134 C    0.974
   175   1 H    0.987 --   136 N    0.874
   176   1 H    1.007 --   139 C    0.968
   177   1 H    0.873 --   142 O    0.838
   178   1 H    1.005 --   144 C    0.970
   179   1 H    1.001 --   145 C    0.972
   180   1 H    1.004 --   146 C    0.973
   181   1 H    1.004 --   148 C    0.973
   182   1 H    1.006 --   149 C    0.970
   183   1 H    1.006 --   154 C    0.970
   184   1 H    1.004 --   155 C    0.974
   185   1 H    0.987 --   157 N    0.874
   186   1 H    1.005 --   160 C    0.972
   187   1 H    1.002 --   161 C    0.972
   188   1 H    1.005 --   162 C    0.969
   189   1 H    0.872 --   165 O    0.837
   190   1 H    1.007 --   167 C    0.969
   191   1 H    1.004 --   169 C    0.973
   192   1 H    1.006 --   170 C    0.970
 ---------------------------------------------------------------------------

           -------------------------------------------------
          | TOTAL ENERGY             -352.111133525782 Eh   |
          | GRADIENT NORM               0.000698276576 Eh/α |
          | HOMO-LUMO GAP               0.844386770899 eV   |
           -------------------------------------------------

 * finished run on 2022/07/27 at 13:56:00.527
