   * xtb version 6.5.1 (b24c23e) compiled by 'conda@728c89f4b128' on 2022-07-12
          program call               : xtb Ni_PhOH_C6_3.xyz --gfn 1 --opt -T 48

   ID    Z sym.   atoms
    1   28 Ni     1, 59, 129
    2    6 C      2-6, 8-12, 14-18, 20-25, 27-31, 33-38, 60-64, 66-70, 72-76,
                  78-83, 85-89, 91-96, 117-128, 130-134, 136-140, 142-146,
                  148-153, 155-159, 161-166
    3    7 N      7, 19, 26, 39, 65, 77, 84, 97, 135, 147, 154, 167
    4    8 O      13, 32, 71, 90, 141, 160
    5    1 H      40-58, 98-116, 168-185

          :  Hamiltonian                  GFN1-xTB          :
 * total energy  :  -336.2923304 Eh     change       -0.1339629E-08 Eh
 * total energy  :  -336.6816699 Eh     change       -0.3893395E+00 Eh
 * total energy  :  -336.8174318 Eh     change       -0.1357619E+00 Eh
 * total energy  :  -336.9176395 Eh     change       -0.1002078E+00 Eh
 * total energy  :  -336.9920206 Eh     change       -0.7438110E-01 Eh
 * total energy  :  -337.0368611 Eh     change       -0.4484044E-01 Eh
 * total energy  :  -337.0642372 Eh     change       -0.2737609E-01 Eh
 * total energy  :  -337.0832311 Eh     change       -0.1899399E-01 Eh
 * total energy  :  -337.0940838 Eh     change       -0.1085265E-01 Eh
 * total energy  :  -337.1032400 Eh     change       -0.9156237E-02 Eh
 * total energy  :  -337.1534371 Eh     change        0.3468130E-05 Eh
 * total energy  :  -337.1534453 Eh     change       -0.8145257E-05 Eh
 * total energy  :  -337.1533997 Eh     change        0.4555260E-04 Eh
 * total energy  :  -337.1534491 Eh     change       -0.4939518E-04 Eh
 * total energy  :  -337.1533392 Eh     change        0.1098921E-03 Eh
 * total energy  :  -337.1534460 Eh     change       -0.1068128E-03 Eh
 * total energy  :  -337.1534569 Eh     change       -0.1086092E-04 Eh
 * total energy  :  -337.1534627 Eh     change       -0.5799393E-05 Eh
 * total energy  :  -337.1534645 Eh     change       -0.1810623E-05 Eh
   *** GEOMETRY OPTIMIZATION CONVERGED AFTER 77 ITERATIONS ***

 final structure:
================
185
 xtb: 6.5.1 (b24c23e)
Ni          28.58694515252969       -0.02123881556182       -0.07548046234234
C           25.19846972974745       -0.07130520617094       -0.28636826954935
C           25.86077941942144       -1.27995489403537       -0.24008574348511
C           25.18915143929118       -2.54337180325938       -0.24248806810814
C           26.14410942065596       -3.49013662040694       -0.09015436503731
C           27.40131233419502       -2.80496594268849       -0.01751463354823
N           27.21690632296225       -1.44780202382642       -0.11131664800990
C           28.62029137062231       -3.44563376920006        0.16193849696161
C           28.63894235091260       -4.92406654081177        0.29057395047780
C           28.24252745748770       -5.73475595144219       -0.77272366075226
C           28.26616362165264       -7.11620758073301       -0.65617396899214
C           28.68409133218165       -7.70209649826308        0.53632335155778
O           28.72047959404230       -9.05039571895968        0.69431569365271
C           29.08028626319526       -6.90260663057326        1.60693448292682
C           29.05979143414660       -5.52500310300780        1.47894774748057
C           29.82789450767438       -2.76251145004461        0.20560681724759
C           31.09885114204382       -3.41399971391288        0.30441354207302
C           32.04247904676376       -2.44587685365307        0.22554142677976
N           29.99313613483054       -1.40162656884702        0.07458258769835
C           31.34693240842967       -1.20683828471887        0.08222052059904
C           32.00124868829802        0.02087750491633       -0.04639763006260
C           31.31806399583139        1.23576548861271       -0.14027488490920
C           31.98360898600312        2.49459725015152       -0.24842894052207
C           31.01828502611305        3.44456400672764       -0.25664463058024
C           29.76443005424913        2.76165103708706       -0.15306941134620
N           29.96049230354726        1.39973072924684       -0.10272176505758
C           28.53765014100216        3.41146378927175       -0.12674422065970
C           28.52181301591380        4.89455915759009       -0.13364501888464
C           29.08989189007655        5.61450486614750        0.92001225257651
C           29.07914106740024        6.99805467833774        0.91939525833980
C           28.50234760586943        7.68438565805607       -0.14773364561237
O           28.51284457704901        9.04191753211288       -0.11857493768530
C           27.93609016864886        6.97962814634367       -1.20736535698075
C           27.94533920360112        5.59333826268868       -1.19449340077567
C           27.32805077444131        2.72896850021033       -0.11826224036670
C           26.04836633715053        3.37505648187791       -0.09908504741851
C           25.11447746524759        2.39815426938589       -0.17245289961344
C           25.82317912028395        1.15594026806117       -0.21171593436626
N           27.17855727780783        1.36484402399744       -0.15975396235631
H           24.11702804213135       -0.08724673571942       -0.35664759163393
H           24.12167894693379       -2.66772986618108       -0.33227753271221
H           26.02003186118202       -4.55871477826116       -0.02296182213574
H           27.92929293784539       -5.27986990665554       -1.70585694239328
H           27.96330711919392       -7.74249097064147       -1.48847332286090
H           28.42686392827819       -9.50702331373399       -0.10544045535107
H           29.40031886007815       -7.37197714727581        2.52895443149267
H           29.35971224161989       -4.90227200537632        2.31432272647728
H           31.24080502003115       -4.47777782008459        0.40238986413967
H           33.11539583291376       -2.54592909628404        0.25628161393433
H           33.05275764271609        2.61878550665034       -0.30877762362424
H           31.13416400181469        4.51287135522651       -0.33844256283074
H           29.53007384927373        5.08027084674473        1.75454651438491
H           29.51314188600407        7.55911625546581        1.73774950001742
H           28.08920396184908        9.41465527456058       -0.90340314474194
H           27.49276357815574        7.51787915805169       -2.03828658262466
H           27.51639201359453        5.04603556204818       -2.02652588687581
H           25.89670717445948        4.44016334901723       -0.03325506784566
H           24.04001716592779        2.48942801575565       -0.18768692500132
Ni          60.58418134282832       -0.00688027305772       -0.03524779281351
C           63.97161690497981        0.02530574236589       -0.25531375272405
C           63.30363319170556        1.22406106049810       -0.39193417069372
C           63.96809645919210        2.47509715136930       -0.59370700690841
C           63.00930667422077        3.43017049748247       -0.57792363699132
C           61.75711634326518        2.75945143822478       -0.38471758062097
N           61.94772451530888        1.40416938435627       -0.27779616236200
C           60.53943333944017        3.41693658606168       -0.26725460678663
C           60.51594470871932        4.89830137915044       -0.35611935540893
C           60.87224603993962        5.54184074759351       -1.54099111164084
C           60.84153282743441        6.92504460120137       -1.63174529258217
C           60.45701487484132        7.68156294897255       -0.52729654928133
O           60.41431516836280        9.03817790844370       -0.57190387161823
C           60.10237670744306        7.05021114819869        0.66348413803892
C           60.12957959267545        5.66897574023492        0.74249805317132
C           59.33765696864909        2.74511603105984       -0.09087141199690
C           58.06673206593562        3.40175077228248       -0.03646941042070
C           57.12616874419444        2.42978472692424        0.03212573528196
N           59.17559211389799        1.37814311080319       -0.04342640077776
C           57.82348633161813        1.18360879323818        0.02026599531455
C           57.17112669451262       -0.05236992946525        0.02852236699681
C           57.85751194787823       -1.26909629095803        0.05598036155977
C           57.19603886623916       -2.53426569355898        0.08650311069688
C           58.16406302894296       -3.47592126187321        0.19117790220348
C           59.41530976660670       -2.78142563481593        0.22440333337670
N           59.21523518749935       -1.42345885141751        0.11552659008084
C           60.64338878183316       -3.41773786153600        0.34605694673626
C           60.66360851790844       -4.88999260798415        0.52413876128352
C           60.08298026818967       -5.47576145812809        1.65152776841712
C           60.09779149270857       -6.84854612525239        1.82337216193870
C           60.69084777119779       -7.65973224754826        0.85756158000418
O           60.68349447435619       -9.00312623778794        1.05516300498531
C           61.26979701281559       -7.08975664592670       -0.27386412560580
C           61.25693671703961       -5.71266617629182       -0.43354011809739
C           61.85075081525827       -2.73374715351321        0.28572652597789
C           63.13210905491794       -3.36527435879254        0.40616769581817
C           64.06372361018762       -2.40260604824832        0.21251383565420
C           63.35160018863396       -1.18067697035794       -0.00353164202863
N           61.99648738375629       -1.38660079229139        0.06490689922813
H           65.05305953896004        0.03544477108957       -0.32661826967709
H           65.03389950530408        2.58866247190615       -0.71285223955204
H           63.12783069828810        4.49701180327092       -0.67594532609110
H           61.15935904692513        4.95311628779231       -2.40514192556678
H           61.11264099431929        7.42049807116262       -2.55786465162005
H           60.67611978827073        9.37059323535656       -1.44098034649784
H           59.80852440497470        7.65144634606510        1.51496418161304
H           59.86194342198000        5.17761885121592        1.67121639980136
H           57.92180179156954        4.46918689756582       -0.06663617883248
H           56.05404418434009        2.53138386984684        0.08014152243200
H           56.12749639703743       -2.66787702318940        0.03619659141844
H           58.05170104165403       -4.54698865889252        0.23143251952949
H           59.62979486924354       -4.84380126118956        2.40708057251578
H           59.65438792842895       -7.30537559425186        2.69946833911404
H           61.11765527422045       -9.46882731154489        0.32785326176771
H           61.72578283074358       -7.72526494158832       -1.02545713493811
H           61.69622779604229       -5.27108084886899       -1.32114213927036
H           63.28612473885023       -4.41131159961592        0.61572139118886
H           65.13856761351914       -2.49023638666685        0.22071366123663
C           37.20325344307023        0.04859912700692       -0.07081712989545
C           35.97557787929201        0.04811685645146       -0.07140277189657
C           34.63010744949143        0.04217586907323       -0.06678837010118
C           33.40700063880664        0.03504069421693       -0.05996798974415
C           38.54854475917149        0.04573937329800       -0.07087522145370
C           39.77186457769810        0.04046496521164       -0.06899979079355
C           53.19807639992227       -0.07310639578383        0.00191385378176
C           51.97020205441189       -0.06551583007786       -0.00899787921154
C           50.62567688883330       -0.05337158415047       -0.02320695201799
C           49.40225502580592       -0.03878477244513       -0.03528169191435
C           54.54286646187250       -0.07307702607574        0.01256790029735
C           55.76622484783727       -0.06923907277192        0.02201374225710
Ni          44.58764159905397        0.00949146999999       -0.06785620923703
C           41.17650592593581        0.03250970043679       -0.06918813155823
C           41.85603655172663        0.96600170547023        0.71920018280388
C           41.19822095203052        1.90382285926128        1.57112714121559
C           42.15950539856512        2.72408817166957        2.06172568192366
C           43.40077308305347        2.29052206957187        1.49715844254639
N           43.20730458308788        1.17732740249013        0.71090509107811
C           44.60708482748689        2.95986160332827        1.66218174217938
C           44.61605573767701        4.23666136886908        2.41352454289903
C           45.38979184546726        4.37548005087326        3.56871066486082
C           45.39801756617749        5.56348648987456        4.27736902311671
C           44.63296844814862        6.63988065730844        3.83139859640260
O           44.66757193225952        7.79217158857144        4.54814514716313
C           43.85998739554255        6.51755827200438        2.67893919927187
C           43.85128415920842        5.32040099607147        1.98032502404839
C           45.80584041358801        2.47642096607786        1.15277365351611
C           47.05547696923719        3.16630353389790        1.25199522238889
C           48.00611123374426        2.32511084029993        0.77624831449332
N           45.98367766155276        1.24383911662276        0.56598797315102
C           47.33332898356499        1.13122199361139        0.37647262643205
C           47.99850367199500       -0.02331438158169       -0.04823488468472
C           47.31598544436127       -1.16162872028840       -0.48847786757901
C           47.97090998527174       -2.36370887187685       -0.89358577725338
C           47.01077507807481       -3.18025680441067       -1.39248298299476
C           45.77297304370936       -2.46872034726454       -1.29822655818700
N           45.96687194517563       -1.24609130272902       -0.69625121534606
C           44.56950519115339       -2.92886862154298       -1.81788524888595
C           44.56377807569535       -4.19897661910484       -2.58077516837497
C           43.78897846956259       -5.27885170335468       -2.15598715449120
C           43.78513116764687       -6.46984789431876       -2.86512155876570
C           44.55533153900351       -6.58948521723133       -4.01970443887111
O           44.57756806960099       -7.73583774232944       -4.74661817878769
C           45.33044854496902       -5.51685250493482       -4.45718040769681
C           45.33498799439295       -4.33520014311570       -3.73786407059784
C           43.37186686645119       -2.24553734702066       -1.64832578880884
C           42.12479755462633       -2.66130632784872       -2.21346877072383
C           41.17377956941462       -1.83351119242901       -1.71562553079639
C           41.84386765332991       -0.90783795305065       -0.85994532206543
N           43.19248072963453       -1.13518866117281       -0.85459855489143
H           40.13675683095622        1.92112215063812        1.75887012758321
H           42.04749985244818        3.54765499049533        2.74785904624775
H           45.97514272833879        3.53426431714632        3.92272670026032
H           45.99044637297471        5.67131532070044        5.17749905814476
H           44.10126687878464        8.46963537835934        4.15477309759864
H           43.26979917488649        7.35933307728654        2.33294764325817
H           43.25883740687576        5.23053381441278        1.07660252833957
H           47.17998706486667        4.16626347242884        1.63425733345554
H           49.06953442509692        2.48422359078994        0.69854912856724
H           49.03015871710507       -2.54372470386384       -0.80524787324133
H           47.12116072195888       -4.17719561121969       -1.78680314079132
H           43.19867815336588       -5.19114203068676       -1.25065755670614
H           43.18739456532452       -7.30895425466020       -2.52564374377256
H           44.00576610904587       -8.41120976901663       -4.35762115154588
H           45.92079707407790       -5.62256637647271       -5.35892920941291
H           45.92886526886596       -3.49690526703545       -4.08456286401640
H           42.00217223483581       -3.47960627622263       -2.90407994562634
H           40.11181852780668       -1.83779202080633       -1.90128489374240

          :  Hamiltonian                  GFN1-xTB          :
         :: total energy            -337.153464499480 Eh    ::
         :: gradient norm              0.000261428593 Eh/a0 ::
         :: HOMO-LUMO gap              1.064226458161 eV    ::
         :: SCC energy              -342.428475818949 Eh    ::
         :: repulsion energy           5.440694277058 Eh    ::

    * Orbital Energies and Occupations

         #    Occupation            Energy/Eh            Energy/eV
      -------------------------------------------------------------
         1        2.0000           -0.8063461             -21.9418
       ...           ...                  ...                  ...
       295        2.0000           -0.3971481             -10.8070
       296        2.0000           -0.3971013             -10.8057
       297        2.0000           -0.3969226             -10.8008
       298        2.0000           -0.3963207             -10.7844
       299        2.0000           -0.3959347             -10.7739
       300        2.0000           -0.3958970             -10.7729
       301        2.0000           -0.3958557             -10.7718
       302        2.0000           -0.3957945             -10.7701
       303        2.0000           -0.3952787             -10.7561
       304        2.0000           -0.3952408             -10.7550
       305        2.0000           -0.3918563             -10.6630
       306        2.0000           -0.3875150             -10.5448
       307        2.0000           -0.3809970             -10.3675 (HOMO)
       308                         -0.3418873              -9.3032 (LUMO)
       309                         -0.3342186              -9.0946
       310                         -0.3293095              -8.9610
       311                         -0.3289112              -8.9501
       312                         -0.3286928              -8.9442
       313                         -0.3285951              -8.9415
       314                         -0.3279785              -8.9247
       315                         -0.3273273              -8.9070
       316                         -0.3272338              -8.9045
       317                         -0.3053109              -8.3079
       318                         -0.2968433              -8.0775
       ...                                ...                  ...
       643                          1.5809872              43.0209
      -------------------------------------------------------------
                  HL-Gap            0.0391096 Eh            1.0642 eV

Wiberg/Mayer (AO) data.
largest (>0.10) Wiberg bond orders for each atom

     #   Z sym  total        # sym  WBO       # sym  WBO       # sym  WBO
 ---------------------------------------------------------------------------
     1  28 Ni   3.008 --     7 N    0.664    39 N    0.664    19 N    0.662
                            26 N    0.662
     2   6 C    3.934 --     3 C    1.364    38 C    1.363    40 H    0.970
     3   6 C    3.924 --     2 C    1.364     7 N    1.214     4 C    1.175
     4   6 C    3.959 --     5 C    1.648     3 C    1.175    41 H    0.975
     5   6 C    3.963 --     4 C    1.648     6 C    1.178    42 H    0.972
     6   6 C    3.919 --     8 C    1.323     7 N    1.222     5 C    1.178
     7   7 N    3.402 --     6 C    1.222     3 C    1.214     1 Ni   0.664
     8   6 C    3.939 --    16 C    1.330     6 C    1.323     9 C    1.023
     9   6 C    3.989 --    10 C    1.396    15 C    1.385     8 C    1.023
    10   6 C    3.988 --    11 C    1.451     9 C    1.396    43 H    0.973
                            14 C    0.105
    11   6 C    3.988 --    10 C    1.451    12 C    1.373    44 H    0.970
                            15 C    0.103
    12   6 C    3.902 --    11 C    1.373    14 C    1.365    13 O    1.040
    13   8 O    2.044 --    12 C    1.040    45 H    0.865
    14   6 C    3.990 --    15 C    1.466    12 C    1.365    46 H    0.971
                            10 C    0.105
    15   6 C    3.989 --    14 C    1.466     9 C    1.385    47 H    0.973
                            11 C    0.103
    16   6 C    3.914 --     8 C    1.330    19 N    1.205    17 C    1.184
    17   6 C    3.959 --    18 C    1.636    16 C    1.184    48 H    0.973
    18   6 C    3.961 --    17 C    1.636    20 C    1.191    49 H    0.973
    19   7 N    3.407 --    20 C    1.239    16 C    1.205     1 Ni   0.662
    20   6 C    3.905 --    21 C    1.264    19 N    1.239    18 C    1.191
    21   6 C    3.944 --    22 C    1.265    20 C    1.264   120 C    1.181
    22   6 C    3.905 --    21 C    1.265    26 N    1.238    23 C    1.191
    23   6 C    3.961 --    24 C    1.636    22 C    1.191    50 H    0.973
    24   6 C    3.960 --    23 C    1.636    25 C    1.184    51 H    0.973
    25   6 C    3.915 --    27 C    1.328    26 N    1.207    24 C    1.184
    26   7 N    3.407 --    22 C    1.238    25 C    1.207     1 Ni   0.662
    27   6 C    3.940 --    25 C    1.328    35 C    1.323    28 C    1.026
    28   6 C    3.989 --    34 C    1.394    29 C    1.384    27 C    1.026
    29   6 C    3.988 --    30 C    1.466    28 C    1.384    52 H    0.973
                            33 C    0.102
    30   6 C    3.990 --    29 C    1.466    31 C    1.364    53 H    0.971
                            34 C    0.105
    31   6 C    3.902 --    33 C    1.372    30 C    1.364    32 O    1.041
    32   8 O    2.044 --    31 C    1.041    54 H    0.865
    33   6 C    3.988 --    34 C    1.452    31 C    1.372    55 H    0.970
                            29 C    0.102
    34   6 C    3.988 --    33 C    1.452    28 C    1.394    56 H    0.973
                            30 C    0.105
    35   6 C    3.919 --    27 C    1.323    39 N    1.221    36 C    1.178
    36   6 C    3.963 --    37 C    1.648    35 C    1.178    57 H    0.973
    37   6 C    3.959 --    36 C    1.648    38 C    1.176    58 H    0.975
    38   6 C    3.924 --     2 C    1.363    39 N    1.214    37 C    1.176
    39   7 N    3.402 --    35 C    1.221    38 C    1.214     1 Ni   0.664
    40   1 H    1.000 --     2 C    0.970
    41   1 H    0.998 --     4 C    0.975
    42   1 H    1.005 --     5 C    0.972
    43   1 H    1.004 --    10 C    0.973
    44   1 H    0.999 --    11 C    0.970
    45   1 H    0.887 --    13 O    0.865
    46   1 H    0.999 --    14 C    0.971
    47   1 H    1.004 --    15 C    0.973
    48   1 H    1.005 --    17 C    0.973
    49   1 H    1.002 --    18 C    0.973
    50   1 H    1.002 --    23 C    0.973
    51   1 H    1.005 --    24 C    0.973
    52   1 H    1.004 --    29 C    0.973
    53   1 H    0.999 --    30 C    0.971
    54   1 H    0.887 --    32 O    0.865
    55   1 H    0.999 --    33 C    0.970
    56   1 H    1.005 --    34 C    0.973
    57   1 H    1.005 --    36 C    0.973
    58   1 H    0.998 --    37 C    0.975
    59  28 Ni   3.009 --    65 N    0.664    97 N    0.664    77 N    0.662
                            84 N    0.662
    60   6 C    3.933 --    61 C    1.364    96 C    1.363    98 H    0.970
    61   6 C    3.924 --    60 C    1.364    65 N    1.214    62 C    1.175
    62   6 C    3.959 --    63 C    1.648    61 C    1.175    99 H    0.975
    63   6 C    3.963 --    62 C    1.648    64 C    1.178   100 H    0.973
    64   6 C    3.919 --    66 C    1.323    65 N    1.221    63 C    1.178
    65   7 N    3.402 --    64 C    1.221    61 C    1.214    59 Ni   0.664
    66   6 C    3.939 --    74 C    1.331    64 C    1.323    67 C    1.022
    67   6 C    3.989 --    68 C    1.396    73 C    1.386    66 C    1.022
    68   6 C    3.988 --    69 C    1.451    67 C    1.396   101 H    0.973
                            72 C    0.106
    69   6 C    3.988 --    68 C    1.451    70 C    1.373   102 H    0.970
                            73 C    0.103
    70   6 C    3.902 --    69 C    1.373    72 C    1.365    71 O    1.040
    71   8 O    2.044 --    70 C    1.040   103 H    0.865
    72   6 C    3.990 --    73 C    1.466    70 C    1.365   104 H    0.971
                            68 C    0.106
    73   6 C    3.989 --    72 C    1.466    67 C    1.386   105 H    0.973
                            69 C    0.103
    74   6 C    3.914 --    66 C    1.331    77 N    1.204    75 C    1.184
    75   6 C    3.959 --    76 C    1.636    74 C    1.184   106 H    0.973
    76   6 C    3.961 --    75 C    1.636    78 C    1.191   107 H    0.973
    77   7 N    3.407 --    78 C    1.240    74 C    1.204    59 Ni   0.662
    78   6 C    3.904 --    79 C    1.262    77 N    1.240    76 C    1.191
    79   6 C    3.943 --    80 C    1.263    78 C    1.262   128 C    1.184
    80   6 C    3.904 --    79 C    1.263    84 N    1.239    81 C    1.192
    81   6 C    3.961 --    82 C    1.635    80 C    1.192   108 H    0.973
    82   6 C    3.959 --    81 C    1.635    83 C    1.185   109 H    0.973
    83   6 C    3.914 --    85 C    1.328    84 N    1.206    82 C    1.185
    84   7 N    3.406 --    80 C    1.239    83 C    1.206    59 Ni   0.662
    85   6 C    3.939 --    83 C    1.328    93 C    1.323    86 C    1.026
    86   6 C    3.989 --    92 C    1.394    87 C    1.384    85 C    1.026
    87   6 C    3.988 --    88 C    1.467    86 C    1.384   110 H    0.973
                            91 C    0.102
    88   6 C    3.990 --    87 C    1.467    89 C    1.364   111 H    0.971
                            92 C    0.105
    89   6 C    3.902 --    91 C    1.372    88 C    1.364    90 O    1.041
    90   8 O    2.044 --    89 C    1.041   112 H    0.865
    91   6 C    3.988 --    92 C    1.452    89 C    1.372   113 H    0.970
                            87 C    0.102
    92   6 C    3.988 --    91 C    1.452    86 C    1.394   114 H    0.973
                            88 C    0.105
    93   6 C    3.919 --    85 C    1.323    97 N    1.221    94 C    1.178
    94   6 C    3.963 --    95 C    1.647    93 C    1.178   115 H    0.973
    95   6 C    3.959 --    94 C    1.647    96 C    1.176   116 H    0.975
    96   6 C    3.924 --    60 C    1.363    97 N    1.214    95 C    1.176
    97   7 N    3.402 --    93 C    1.221    96 C    1.214    59 Ni   0.664
    98   1 H    1.000 --    60 C    0.970
    99   1 H    0.998 --    62 C    0.975
   100   1 H    1.005 --    63 C    0.973
   101   1 H    1.004 --    68 C    0.973
   102   1 H    0.999 --    69 C    0.970
   103   1 H    0.887 --    71 O    0.865
   104   1 H    0.999 --    72 C    0.971
   105   1 H    1.004 --    73 C    0.973
   106   1 H    1.005 --    75 C    0.973
   107   1 H    1.002 --    76 C    0.973
   108   1 H    1.002 --    81 C    0.973
   109   1 H    1.005 --    82 C    0.973
   110   1 H    1.004 --    87 C    0.973
   111   1 H    0.999 --    88 C    0.971
   112   1 H    0.887 --    90 O    0.865
   113   1 H    0.999 --    91 C    0.970
   114   1 H    1.005 --    92 C    0.973
   115   1 H    1.005 --    94 C    0.973
   116   1 H    0.998 --    95 C    0.975
   117   6 C    3.927 --   118 C    2.377   121 C    1.329   120 C    0.191
   118   6 C    3.925 --   117 C    2.377   119 C    1.328   122 C    0.191
   119   6 C    3.937 --   120 C    2.459   118 C    1.328
   120   6 C    3.890 --   119 C    2.459    21 C    1.181   117 C    0.191
   121   6 C    3.934 --   122 C    2.456   117 C    1.329
   122   6 C    3.891 --   121 C    2.456   130 C    1.185   118 C    0.191
   123   6 C    3.926 --   124 C    2.373   127 C    1.331   126 C    0.191
   124   6 C    3.928 --   123 C    2.373   125 C    1.332   128 C    0.191
   125   6 C    3.935 --   126 C    2.453   124 C    1.332
   126   6 C    3.891 --   125 C    2.453   149 C    1.188   123 C    0.191
   127   6 C    3.937 --   128 C    2.455   123 C    1.331
   128   6 C    3.891 --   127 C    2.455    79 C    1.184   124 C    0.191
   129  28 Ni   3.010 --   154 N    0.661   147 N    0.661   135 N    0.661
                           167 N    0.661
   130   6 C    3.933 --   131 C    1.261   166 C    1.261   122 C    1.185
   131   6 C    3.905 --   130 C    1.261   135 N    1.238   132 C    1.194
   132   6 C    3.959 --   133 C    1.631   131 C    1.194   168 H    0.973
   133   6 C    3.960 --   132 C    1.631   134 C    1.187   169 H    0.973
   134   6 C    3.912 --   136 C    1.323   135 N    1.205   133 C    1.187
   135   7 N    3.399 --   131 C    1.238   134 C    1.205   129 Ni   0.661
   136   6 C    3.935 --   144 C    1.324   134 C    1.323   137 C    1.031
   137   6 C    3.988 --   143 C    1.392   138 C    1.382   136 C    1.031
   138   6 C    3.988 --   139 C    1.468   137 C    1.382   170 H    0.973
                           142 C    0.102
   139   6 C    3.990 --   138 C    1.468   140 C    1.363   171 H    0.971
                           143 C    0.105
   140   6 C    3.901 --   142 C    1.371   139 C    1.363   141 O    1.042
   141   8 O    2.045 --   140 C    1.042   172 H    0.864
   142   6 C    3.988 --   143 C    1.453   140 C    1.371   173 H    0.970
                           138 C    0.102
   143   6 C    3.988 --   142 C    1.453   137 C    1.392   174 H    0.972
                           139 C    0.105
   144   6 C    3.912 --   136 C    1.324   147 N    1.204   145 C    1.187
   145   6 C    3.960 --   146 C    1.631   144 C    1.187   175 H    0.973
   146   6 C    3.959 --   145 C    1.631   148 C    1.194   176 H    0.973
   147   7 N    3.399 --   148 C    1.239   144 C    1.204   129 Ni   0.661
   148   6 C    3.904 --   149 C    1.259   147 N    1.239   146 C    1.194
   149   6 C    3.934 --   150 C    1.260   148 C    1.259   126 C    1.188
   150   6 C    3.904 --   149 C    1.260   154 N    1.238   151 C    1.194
   151   6 C    3.959 --   152 C    1.632   150 C    1.194   177 H    0.973
   152   6 C    3.960 --   151 C    1.632   153 C    1.187   178 H    0.973
   153   6 C    3.912 --   155 C    1.324   154 N    1.205   152 C    1.187
   154   7 N    3.399 --   150 C    1.238   153 C    1.205   129 Ni   0.661
   155   6 C    3.935 --   163 C    1.324   153 C    1.324   156 C    1.030
   156   6 C    3.988 --   157 C    1.392   162 C    1.382   155 C    1.030
   157   6 C    3.988 --   158 C    1.453   156 C    1.392   179 H    0.972
                           161 C    0.105
   158   6 C    3.988 --   157 C    1.453   159 C    1.371   180 H    0.970
                           162 C    0.102
   159   6 C    3.901 --   158 C    1.371   161 C    1.363   160 O    1.041
   160   8 O    2.044 --   159 C    1.041   181 H    0.865
   161   6 C    3.990 --   162 C    1.467   159 C    1.363   182 H    0.971
                           157 C    0.105
   162   6 C    3.988 --   161 C    1.467   156 C    1.382   183 H    0.973
                           158 C    0.102
   163   6 C    3.912 --   155 C    1.324   167 N    1.205   164 C    1.187
   164   6 C    3.960 --   165 C    1.631   163 C    1.187   184 H    0.973
   165   6 C    3.959 --   164 C    1.631   166 C    1.194   185 H    0.973
   166   6 C    3.905 --   130 C    1.261   167 N    1.238   165 C    1.194
   167   7 N    3.399 --   166 C    1.238   163 C    1.205   129 Ni   0.661
   168   1 H    1.002 --   132 C    0.973
   169   1 H    1.005 --   133 C    0.973
   170   1 H    1.005 --   138 C    0.973
   171   1 H    0.999 --   139 C    0.971
   172   1 H    0.886 --   141 O    0.864
   173   1 H    0.999 --   142 C    0.970
   174   1 H    1.005 --   143 C    0.972
   175   1 H    1.004 --   145 C    0.973
   176   1 H    1.001 --   146 C    0.973
   177   1 H    1.002 --   151 C    0.973
   178   1 H    1.004 --   152 C    0.973
   179   1 H    1.005 --   157 C    0.972
   180   1 H    0.999 --   158 C    0.970
   181   1 H    0.886 --   160 O    0.865
   182   1 H    0.999 --   161 C    0.971
   183   1 H    1.005 --   162 C    0.973
   184   1 H    1.005 --   164 C    0.973
   185   1 H    1.002 --   165 C    0.973
 ---------------------------------------------------------------------------

           -------------------------------------------------
          | TOTAL ENERGY             -337.153464499480 Eh   |
          | GRADIENT NORM               0.000261428593 Eh/α |
          | HOMO-LUMO GAP               1.064226458161 eV   |
           -------------------------------------------------

 * finished run on 2022/07/30 at 06:08:51.056
