   * xtb version 6.5.1 (b24c23e) compiled by 'conda@728c89f4b128' on 2022-07-12
          program call               : xtb Zn_PhCN_C8_3.xyz --gfn 1 --opt -T 48

   ID    Z sym.   atoms
    1   30 Zn     1, 59, 133
    2    6 C      2-6, 8-13, 15-19, 21-26, 28-33, 35-40, 60-64, 66-71, 73-77,
                  79-84, 86-91, 93-98, 117-132, 134-138, 140-145, 147-151,
                  153-158, 160-165, 167-172
    3    7 N      7, 14, 20, 27, 34, 41, 65, 72, 78, 85, 92, 99, 139, 146,
                  152, 159, 166, 173
    4    1 H      42-58, 100-116, 174-189

          :  Hamiltonian                  GFN1-xTB          :
 * total energy  :  -334.6471874 Eh     change       -0.9376890E-09 Eh
 * total energy  :  -335.0199879 Eh     change       -0.3728005E+00 Eh
 * total energy  :  -335.1470714 Eh     change       -0.1270836E+00 Eh
 * total energy  :  -335.2110065 Eh     change       -0.6393504E-01 Eh
 * total energy  :  -335.2698484 Eh     change       -0.5884190E-01 Eh
 * total energy  :  -335.3340713 Eh     change       -0.6422297E-01 Eh
 * total energy  :  -335.3903577 Eh     change       -0.5628632E-01 Eh
 * total energy  :  -335.4221480 Eh     change       -0.3179034E-01 Eh
 * total energy  :  -335.4489834 Eh     change       -0.2683539E-01 Eh
 * total energy  :  -335.4689039 Eh     change       -0.1992052E-01 Eh
 * total energy  :  -335.5835352 Eh     change       -0.9289104E-05 Eh
 * total energy  :  -335.5835270 Eh     change        0.8216649E-05 Eh
 * total energy  :  -335.5835375 Eh     change       -0.1053237E-04 Eh
 * total energy  :  -335.5835195 Eh     change        0.1804222E-04 Eh
 * total energy  :  -335.5835398 Eh     change       -0.2037729E-04 Eh
 * total energy  :  -335.5835384 Eh     change        0.1384935E-05 Eh
 * total energy  :  -335.5835394 Eh     change       -0.9580354E-06 Eh
 * total energy  :  -335.5835445 Eh     change       -0.5052121E-05 Eh
 * total energy  :  -335.5835467 Eh     change       -0.2220264E-05 Eh
   *** GEOMETRY OPTIMIZATION CONVERGED AFTER 80 ITERATIONS ***

 final structure:
================
189
 xtb: 6.5.1 (b24c23e)
Zn          28.61217767297643        0.02663567485421        0.01416179567992
C           25.20273574869452        0.04946526176264        0.08976825393168
C           25.83447948933156        1.26815725144387        0.30542863558026
C           25.16234214917201        2.51854642915750        0.52310517078930
C           26.12272551364229        3.46170481087062        0.68929917389305
C           27.39467431206985        2.79582809575710        0.58663145906296
N           27.18442758485318        1.47032306579613        0.34445255049797
C           28.64756695774881        3.41309528480660        0.69157183894984
C           28.66033605094901        4.86863057839455        0.97756380830640
C           28.11011038311181        5.36330529541572        2.16247116657612
C           28.11581825333325        6.72041445823150        2.43031531601952
C           28.67041029724394        7.61418004712995        1.50928150545594
C           28.67227737887998        9.01192661472540        1.77832085459759
N           28.67284063911224       10.14207203778580        1.99550854762099
C           29.22189367546218        7.12469791500821        0.32142503697584
C           29.21777590007669        5.76569184651157        0.06331518834120
C           29.88612654161529        2.77761494558360        0.54970741916913
C           31.16668895023292        3.40839388516114        0.71505723404220
C           32.11138950655730        2.45538114472002        0.51067436466938
N           30.07752393339574        1.45255216079133        0.26223354065250
C           31.41904420452605        1.23263860962717        0.22692742911485
C           32.04847355165833        0.00144251896686       -0.04861292004303
C           31.39153147140836       -1.21923146155574       -0.30567880895725
C           32.05494384009742       -2.45062529715780       -0.61935525225897
C           31.08936211138276       -3.38853463740329       -0.79419264171099
C           29.82514808320909       -2.74016404485131       -0.57854790704856
N           30.04648016925143       -1.41923902730069       -0.29336357754292
C           28.57286871157540       -3.35742289542515       -0.67257058592875
C           28.55204379271662       -4.81121525088132       -0.96675849376038
C           27.94311988395985       -5.28984276583453       -2.12940027802818
C           27.91600099991231       -6.64509021114973       -2.40509626866346
C           28.49620736943907       -7.55316210921427       -1.51430550401833
C           28.46356259149547       -8.94901052687728       -1.79101602115782
N           28.43519836812903      -10.07755094825501       -2.01418677878386
C           29.10652714498844       -7.07980346409543       -0.34891008433134
C           29.13475080354805       -5.72257052677406       -0.08294137430351
C           27.33423322609963       -2.72367584085936       -0.51090679781360
C           26.05034361055638       -3.37272727225747       -0.55759845447433
C           25.11086307523825       -2.41794910686203       -0.34480154676161
C           25.80833097643953       -1.17693203252782       -0.15517188714702
N           27.15242749974992       -1.39639365636586       -0.25586130190282
H           24.11744149162054        0.05638537825503        0.11458445545294
H           24.09148708564429        2.64784542406575        0.53636960764574
H           25.98626846588041        4.51830080643757        0.85537804382467
H           27.68921326764198        4.67253612379273        2.88442397603015
H           27.69157930613027        7.09570970073831        3.35427743550275
H           29.64978475330250        7.81481691287359       -0.39631699941604
H           29.63488520983593        5.39125764022556       -0.86476566882768
H           31.32149972757420        4.44471716579827        0.96875782188770
H           33.18359948650723        2.56201085025721        0.55330699754194
H           33.12323520401795       -2.57251682838450       -0.70156961969793
H           31.21953659801610       -4.42561628740963       -1.05843232727137
H           27.50172886603812       -4.58806978281301       -2.82813531731904
H           27.44589723207483       -7.00792487348322       -3.31167222339817
H           29.55436164143112       -7.78100376993567        0.34554388826054
H           29.59734693987509       -5.36066299574128        0.82839420138878
H           25.89274884851260       -4.42694507549053       -0.72003053833153
H           24.03894870464050       -2.53353923743831       -0.30921061404596
Zn          65.85936111167709       -0.00190679015883        0.02897857971692
C           69.26924581551968       -0.02825495334604        0.07905862525654
C           68.63701360594354       -1.23243025781998        0.36373388971254
C           69.30859658335784       -2.47096581400951        0.64236635643283
C           68.34785224254382       -3.40218470970255        0.86433923113283
C           67.07627985648250       -2.74019402346110        0.73501534635074
N           67.28703557307624       -1.42956902561848        0.42252624741063
C           65.82318716716401       -3.34917375935857        0.87860730561016
C           65.81045850487234       -4.78788630710541        1.23993839398449
C           66.36606562398622       -5.22063710875324        2.44638726184593
C           66.36086819501543       -6.56194310467147        2.78456704347973
C           65.80132267228296       -7.50199635088662        1.91397178593981
C           65.80007105649672       -8.88380830476244        2.25552861253453
N           65.79984490730760      -10.00099049335499        2.53170577818834
C           65.24441746564013       -7.07457987530415        0.70489130911530
C           65.24811666284542       -5.73085532763446        0.37632146272183
C           64.58466162374872       -2.72005814171444        0.71034225223105
C           63.30412040811183       -3.34005531084783        0.91282035020175
C           62.35957061434839       -2.39719490538981        0.66536905801003
N           64.39346345040907       -1.41080848681378        0.35788263427790
C           63.05196672287909       -1.19088607679843        0.31823636297264
C           62.42282935840550        0.02710179008993       -0.01058716473941
C           63.07965659412507        1.23314848110396       -0.32859968352322
C           62.41584755152540        2.44933264649717       -0.69638323272379
C           63.38166166463913        3.37476345029606       -0.92707788458860
C           64.64658095142319        2.73448668442537       -0.69193705274448
N           64.42525335015941        1.43021207260136       -0.33860831213402
C           65.89927467746475        3.34233735117310       -0.83097264396520
C           65.92073656712697        4.77812050560165       -1.20326937399240
C           66.51790974560987        5.19052349510204       -2.39699121986865
C           66.54525071749038        6.52852376595573       -2.74689214349149
C           65.97712311145689        7.48574867872096       -1.90088517944609
C           66.00973636177825        8.86431139465186       -2.25376184976724
N           66.03721729463363        9.97815517704411       -2.54170007115261
C           65.37891946420925        7.07878582231275       -0.70455606863467
C           65.35036485038644        5.73825991897937       -0.36424595121967
C           67.13797727059855        2.71441839658211       -0.64870081023353
C           68.42273146156916        3.35680876919163       -0.74160431642836
C           69.36216209032563        2.41229799305457       -0.48699292425727
C           68.66392983034096        1.18480195026774       -0.22559552462289
N           67.31941309375178        1.40199064051631       -0.32568149932320
H           70.35468985279893       -0.03630248645811        0.09556289853341
H           70.37930533989606       -2.60152079002324        0.65523813495948
H           68.48373361077206       -4.44885360155856        1.08483251661337
H           66.79091800421908       -4.49355157402297        3.12930981273388
H           66.78939390284719       -6.88901128199346        3.72474052428544
H           64.81272292854965       -7.80078364052683        0.02608922140951
H           64.82685537713360       -5.40491102253676       -0.56803264952549
H           63.14929974875050       -4.36221340179065        1.21864134122492
H           61.28745057039976       -2.50006971030929        0.71830259940709
H           61.34706443336859        2.56977855104361       -0.77423228701152
H           63.25112696806919        4.39778384881942       -1.24123146920938
H           66.94981293094149        4.45013178456196       -3.06094558801562
H           67.00611912306456        6.83966611912821       -3.67712050728139
H           64.94071022036800        7.81838508020797       -0.04465773198091
H           64.89720965090734        5.42831516724453        0.57067493967425
H           68.58091889552742        4.40054965229329       -0.96110844179876
H           70.43459612091539        2.52686535815322       -0.46730917913687
C           33.45342536520314       -0.00893761632071       -0.06646825776529
C           34.67834964414557       -0.01462276211765       -0.07435648774802
C           36.02089962105560       -0.01785918424184       -0.08014052544645
C           37.25192805567067       -0.01617126787858       -0.08164532972796
C           38.58968563167083       -0.01283999059245       -0.08027403588030
C           39.82076428483695       -0.01147105688145       -0.07519215282798
C           41.16310001604524       -0.00335855194042       -0.06817825089991
C           42.38821008190663        0.00196266971324       -0.06047062339817
C           52.08221288168605        0.04628349304173       -0.03228780836818
C           53.30720285400694        0.05120619326087       -0.03253239676054
C           54.64989394147904        0.05420962390027       -0.03223063168670
C           55.88079821938089        0.05515394467497       -0.03304765315731
C           57.21887935926572        0.05380057513301       -0.03281302173185
C           58.44974534364390        0.05339291729424       -0.02954666815096
C           59.79262347620263        0.04735406628919       -0.02560932689293
C           61.01740701368146        0.03919764286211       -0.02207412758191
Zn          47.23504397106664        0.02195099400706       -0.04007893174140
C           43.79264313257237        0.00747594092198       -0.05301222199200
C           44.44429520405684       -1.16043704101941       -0.49969524353929
C           43.77414657080686       -2.35310366628549       -0.92583319513494
C           44.73580258834993       -3.24300970979548       -1.28164836214354
C           46.00335295576359       -2.59697390787855       -1.08443150278635
N           45.78929237484604       -1.33482742689001       -0.59907869665824
C           47.25351011947244       -3.17768821529578       -1.32560861042706
C           47.26083648663741       -4.55294160728427       -1.88289378574854
C           46.69930670966887       -4.81166471784383       -3.13544422563347
C           46.70715715692634       -6.09116528066092       -3.66112813880236
C           47.27492157661376       -7.14312024588619       -2.93608403385551
C           47.28244210647946       -8.46161385197640       -3.47254144143588
N           47.28937444649824       -9.52694777226074       -3.90763421450080
C           47.83519426767494       -6.89032347472877       -1.68038796255067
C           47.82915033217397       -5.60698518569078       -1.16392060663167
C           48.49700820981227       -2.57985745381948       -1.09198530999049
C           49.77170802923958       -3.16990584643922       -1.39202569660133
C           50.72300041022103       -2.27125284074791       -1.03052119155034
N           48.69655223618194       -1.33070973889181       -0.56839022385803
C           50.03935665393656       -1.12187971426203       -0.51582756552080
C           50.67737544404692        0.03892958573324       -0.03284969238116
C           50.02598732105576        1.19265942484107        0.44903840437195
C           50.69611293218471        2.34793405081132        0.96825442437057
C           49.73446311500327        3.23644931793990        1.32745274532338
C           48.46692511841155        2.63443715258869        1.02087822087644
N           48.68096476434905        1.38797651888047        0.49659374553746
C           47.21669989570979        3.22068063495838        1.24783964436831
C           47.20850157828328        4.59631000713024        1.80431863540329
C           46.63872855511304        4.85137687433371        3.05384385576657
C           46.63193842311917        6.13170388057538        3.57762156905871
C           47.19273769477304        7.18804618122418        2.85354904538081
C           47.18529340726509        8.50725722451413        3.38826508440551
N           47.17571763875978        9.57401778398915        3.81987772766101
C           47.76150086782410        6.93879248542512        1.60095916800294
C           47.77028423046108        5.65468091155582        1.08652960468307
C           45.97329609044117        2.62927509817327        0.99803531012620
C           44.69889977539076        3.26450671404872        1.18611404625677
C           43.74750113535563        2.36717142696522        0.82147632740134
C           44.43086103418836        1.18041599747894        0.39978025893935
N           45.77353468358513        1.36576791414599        0.51012931861646
H           42.70442839800706       -2.48814573223052       -0.94117734893297
H           44.59987913681507       -4.25252083757238       -1.63465097308363
H           46.26832823025106       -3.99635334343865       -3.70554931455350
H           46.27505482093411       -6.28266948723126       -4.63637093706158
H           48.27255060835754       -7.70405715117666       -1.11378327429083
H           48.25447105922603       -5.41704377696319       -0.18488777427066
H           49.91908070378700       -4.14185595139428       -1.83450671369540
H           51.79403288020647       -2.36835087911053       -1.10948374002558
H           51.76581383012149        2.45542386365090        1.05176630135435
H           49.87030513366665        4.20896436139696        1.77239934060692
H           46.21286640076192        4.03283681195229        3.62317300020626
H           46.19374107934085        6.32050294857431        4.55067005771873
H           48.19381511709040        7.75581771127075        1.03521748083200
H           48.20224563750681        5.46722633411712        0.10992830426614
H           44.55197011390092        4.27241304041859        1.53931794898796
H           42.67660001393850        2.49332405147910        0.82828061740613

          :  Hamiltonian                  GFN1-xTB          :
         :: total energy            -335.583546676865 Eh    ::
         :: gradient norm              0.000645301724 Eh/a0 ::
         :: HOMO-LUMO gap              0.970975558269 eV    ::
         :: SCC energy              -341.596183448561 Eh    ::
         :: repulsion energy           6.183215110389 Eh    ::

    * Orbital Energies and Occupations

         #    Occupation            Energy/Eh            Energy/eV
      -------------------------------------------------------------
         1        2.0000           -0.7727602             -21.0279
       ...           ...                  ...                  ...
       297        2.0000           -0.4320735             -11.7573
       298        2.0000           -0.4320469             -11.7566
       299        2.0000           -0.4319228             -11.7532
       300        2.0000           -0.4256713             -11.5831
       301        2.0000           -0.4185814             -11.3902
       302        2.0000           -0.4148569             -11.2888
       303        2.0000           -0.4138990             -11.2628
       304        2.0000           -0.4061421             -11.0517
       305        2.0000           -0.4047394             -11.0135
       306        2.0000           -0.4047085             -11.0127
       307        2.0000           -0.3971366             -10.8066
       308        2.0000           -0.3923702             -10.6769
       309        2.0000           -0.3865956             -10.5198 (HOMO)
       310                         -0.3509129              -9.5488 (LUMO)
       311                         -0.3429787              -9.3329
       312                         -0.3400128              -9.2522
       313                         -0.3390301              -9.2255
       314                         -0.3389963              -9.2246
       315                         -0.3385065              -9.2112
       316                         -0.3188268              -8.6757
       317                         -0.3121914              -8.4952
       318                         -0.3107921              -8.4571
       319                         -0.3067618              -8.3474
       320                         -0.3039987              -8.2722
       ...                                ...                  ...
       656                          1.5979487              43.4824
      -------------------------------------------------------------
                  HL-Gap            0.0356827 Eh            0.9710 eV

Wiberg/Mayer (AO) data.
largest (>0.10) Wiberg bond orders for each atom

     #   Z sym  total        # sym  WBO       # sym  WBO       # sym  WBO
 ---------------------------------------------------------------------------
     1  30 Zn   1.994 --    41 N    0.459     7 N    0.459    20 N    0.455
                            27 N    0.455
     2   6 C    3.928 --    40 C    1.358     3 C    1.358    42 H    0.971
     3   6 C    3.921 --     2 C    1.358     7 N    1.232     4 C    1.170
     4   6 C    3.960 --     5 C    1.660     3 C    1.170    43 H    0.975
     5   6 C    3.963 --     4 C    1.660     6 C    1.171    44 H    0.973
     6   6 C    3.918 --     8 C    1.312     7 N    1.246     5 C    1.171
     7   7 N    3.294 --     6 C    1.246     3 C    1.232     1 Zn   0.459
     8   6 C    3.932 --    17 C    1.323     6 C    1.312     9 C    1.031
     9   6 C    3.963 --    16 C    1.385    10 C    1.385     8 C    1.031
    10   6 C    3.987 --    11 C    1.464     9 C    1.385    45 H    0.971
                            15 C    0.102
    11   6 C    3.993 --    10 C    1.464    12 C    1.364    46 H    0.972
                            16 C    0.102
    12   6 C    3.984 --    15 C    1.364    11 C    1.364    13 C    1.098
    13   6 C    3.957 --    14 N    2.819    12 C    1.098
    14   7 N    2.972 --    13 C    2.819
    15   6 C    3.993 --    16 C    1.464    12 C    1.364    47 H    0.972
                            10 C    0.102
    16   6 C    3.987 --    15 C    1.464     9 C    1.385    48 H    0.971
                            11 C    0.102
    17   6 C    3.912 --     8 C    1.323    20 N    1.226    18 C    1.178
    18   6 C    3.959 --    19 C    1.647    17 C    1.178    49 H    0.973
    19   6 C    3.962 --    18 C    1.647    21 C    1.186    50 H    0.974
    20   7 N    3.296 --    21 C    1.263    17 C    1.226     1 Zn   0.455
    21   6 C    3.900 --    20 N    1.263    22 C    1.253    19 C    1.186
    22   6 C    3.939 --    23 C    1.253    21 C    1.253   117 C    1.194
    23   6 C    3.900 --    27 N    1.263    22 C    1.253    24 C    1.186
    24   6 C    3.962 --    25 C    1.647    23 C    1.186    51 H    0.974
    25   6 C    3.959 --    24 C    1.647    26 C    1.178    52 H    0.973
    26   6 C    3.912 --    28 C    1.323    27 N    1.226    25 C    1.178
    27   7 N    3.296 --    23 C    1.263    26 C    1.226     1 Zn   0.455
    28   6 C    3.932 --    26 C    1.323    37 C    1.312    29 C    1.031
    29   6 C    3.963 --    36 C    1.385    30 C    1.385    28 C    1.031
    30   6 C    3.987 --    31 C    1.464    29 C    1.385    53 H    0.971
                            35 C    0.102
    31   6 C    3.993 --    30 C    1.464    32 C    1.364    54 H    0.972
                            36 C    0.102
    32   6 C    3.984 --    35 C    1.364    31 C    1.364    33 C    1.098
    33   6 C    3.957 --    34 N    2.819    32 C    1.098
    34   7 N    2.972 --    33 C    2.819
    35   6 C    3.993 --    36 C    1.464    32 C    1.364    55 H    0.972
                            30 C    0.102
    36   6 C    3.987 --    35 C    1.464    29 C    1.385    56 H    0.971
                            31 C    0.102
    37   6 C    3.918 --    28 C    1.312    41 N    1.246    38 C    1.171
    38   6 C    3.963 --    39 C    1.660    37 C    1.171    57 H    0.973
    39   6 C    3.960 --    38 C    1.660    40 C    1.170    58 H    0.975
    40   6 C    3.921 --     2 C    1.358    41 N    1.232    39 C    1.170
    41   7 N    3.294 --    37 C    1.246    40 C    1.232     1 Zn   0.459
    42   1 H    1.001 --     2 C    0.971
    43   1 H    0.998 --     4 C    0.975
    44   1 H    1.004 --     5 C    0.973
    45   1 H    1.004 --    10 C    0.971
    46   1 H    1.000 --    11 C    0.972
    47   1 H    1.000 --    15 C    0.972
    48   1 H    1.004 --    16 C    0.971
    49   1 H    1.004 --    18 C    0.973
    50   1 H    1.002 --    19 C    0.974
    51   1 H    1.002 --    24 C    0.974
    52   1 H    1.004 --    25 C    0.973
    53   1 H    1.004 --    30 C    0.971
    54   1 H    1.000 --    31 C    0.972
    55   1 H    1.000 --    35 C    0.972
    56   1 H    1.004 --    36 C    0.971
    57   1 H    1.004 --    38 C    0.973
    58   1 H    0.998 --    39 C    0.975
    59  30 Zn   1.994 --    99 N    0.459    65 N    0.459    78 N    0.455
                            85 N    0.455
    60   6 C    3.928 --    98 C    1.358    61 C    1.358   100 H    0.971
    61   6 C    3.921 --    60 C    1.358    65 N    1.232    62 C    1.170
    62   6 C    3.960 --    63 C    1.660    61 C    1.170   101 H    0.975
    63   6 C    3.963 --    62 C    1.660    64 C    1.171   102 H    0.973
    64   6 C    3.918 --    66 C    1.312    65 N    1.246    63 C    1.171
    65   7 N    3.294 --    64 C    1.246    61 C    1.232    59 Zn   0.459
    66   6 C    3.932 --    75 C    1.323    64 C    1.312    67 C    1.030
    67   6 C    3.963 --    74 C    1.385    68 C    1.385    66 C    1.030
    68   6 C    3.987 --    69 C    1.464    67 C    1.385   103 H    0.971
                            73 C    0.102
    69   6 C    3.993 --    68 C    1.464    70 C    1.364   104 H    0.972
                            74 C    0.102
    70   6 C    3.984 --    73 C    1.364    69 C    1.364    71 C    1.098
    71   6 C    3.957 --    72 N    2.819    70 C    1.098
    72   7 N    2.972 --    71 C    2.819
    73   6 C    3.993 --    74 C    1.464    70 C    1.364   105 H    0.972
                            68 C    0.102
    74   6 C    3.987 --    73 C    1.464    67 C    1.385   106 H    0.971
                            69 C    0.102
    75   6 C    3.912 --    66 C    1.323    78 N    1.226    76 C    1.178
    76   6 C    3.960 --    77 C    1.647    75 C    1.178   107 H    0.973
    77   6 C    3.962 --    76 C    1.647    79 C    1.185   108 H    0.974
    78   7 N    3.297 --    79 C    1.263    75 C    1.226    59 Zn   0.455
    79   6 C    3.900 --    78 N    1.263    80 C    1.254    77 C    1.185
    80   6 C    3.940 --    81 C    1.254    79 C    1.254   132 C    1.192
    81   6 C    3.900 --    85 N    1.263    80 C    1.254    82 C    1.185
    82   6 C    3.962 --    83 C    1.647    81 C    1.185   109 H    0.974
    83   6 C    3.960 --    82 C    1.647    84 C    1.178   110 H    0.973
    84   6 C    3.912 --    86 C    1.323    85 N    1.226    83 C    1.178
    85   7 N    3.296 --    81 C    1.263    84 C    1.226    59 Zn   0.455
    86   6 C    3.932 --    84 C    1.323    95 C    1.312    87 C    1.031
    87   6 C    3.963 --    94 C    1.385    88 C    1.385    86 C    1.031
    88   6 C    3.987 --    89 C    1.464    87 C    1.385   111 H    0.971
                            93 C    0.102
    89   6 C    3.993 --    88 C    1.464    90 C    1.364   112 H    0.972
                            94 C    0.102
    90   6 C    3.984 --    93 C    1.364    89 C    1.364    91 C    1.098
    91   6 C    3.957 --    92 N    2.819    90 C    1.098
    92   7 N    2.972 --    91 C    2.819
    93   6 C    3.993 --    94 C    1.464    90 C    1.364   113 H    0.972
                            88 C    0.102
    94   6 C    3.987 --    93 C    1.464    87 C    1.385   114 H    0.971
                            89 C    0.102
    95   6 C    3.918 --    86 C    1.312    99 N    1.246    96 C    1.171
    96   6 C    3.963 --    97 C    1.660    95 C    1.171   115 H    0.973
    97   6 C    3.960 --    96 C    1.660    98 C    1.170   116 H    0.975
    98   6 C    3.921 --    60 C    1.358    99 N    1.232    97 C    1.170
    99   7 N    3.294 --    95 C    1.246    98 C    1.232    59 Zn   0.459
   100   1 H    1.001 --    60 C    0.971
   101   1 H    0.998 --    62 C    0.975
   102   1 H    1.004 --    63 C    0.973
   103   1 H    1.004 --    68 C    0.971
   104   1 H    1.000 --    69 C    0.972
   105   1 H    1.000 --    73 C    0.972
   106   1 H    1.004 --    74 C    0.971
   107   1 H    1.004 --    76 C    0.973
   108   1 H    1.002 --    77 C    0.974
   109   1 H    1.002 --    82 C    0.974
   110   1 H    1.004 --    83 C    0.973
   111   1 H    1.004 --    88 C    0.971
   112   1 H    1.000 --    89 C    0.972
   113   1 H    1.000 --    93 C    0.972
   114   1 H    1.004 --    94 C    0.971
   115   1 H    1.004 --    96 C    0.973
   116   1 H    0.998 --    97 C    0.975
   117   6 C    3.877 --   118 C    2.437    22 C    1.194   120 C    0.186
   118   6 C    3.934 --   117 C    2.437   119 C    1.346
   119   6 C    3.892 --   120 C    2.334   118 C    1.346   122 C    0.182
   120   6 C    3.925 --   119 C    2.334   121 C    1.371   117 C    0.186
   121   6 C    3.923 --   122 C    2.333   120 C    1.371   124 C    0.186
   122   6 C    3.893 --   121 C    2.333   123 C    1.347   119 C    0.182
   123   6 C    3.931 --   124 C    2.434   122 C    1.347
   124   6 C    3.877 --   123 C    2.434   134 C    1.196   121 C    0.186
   125   6 C    3.877 --   126 C    2.436   154 C    1.195   128 C    0.186
   126   6 C    3.931 --   125 C    2.436   127 C    1.345
   127   6 C    3.892 --   128 C    2.335   126 C    1.345   130 C    0.182
   128   6 C    3.923 --   127 C    2.335   129 C    1.369   125 C    0.186
   129   6 C    3.925 --   130 C    2.336   128 C    1.369   132 C    0.186
   130   6 C    3.892 --   129 C    2.336   131 C    1.344   127 C    0.182
   131   6 C    3.934 --   132 C    2.439   130 C    1.344
   132   6 C    3.876 --   131 C    2.439    80 C    1.192   129 C    0.186
   133  30 Zn   1.991 --   139 N    0.456   159 N    0.456   173 N    0.456
                           152 N    0.456
   134   6 C    3.928 --   172 C    1.250   135 C    1.250   124 C    1.196
   135   6 C    3.900 --   139 N    1.263   134 C    1.250   136 C    1.188
   136   6 C    3.960 --   137 C    1.644   135 C    1.188   174 H    0.974
   137   6 C    3.960 --   136 C    1.644   138 C    1.181   175 H    0.973
   138   6 C    3.910 --   140 C    1.318   139 N    1.225   137 C    1.181
   139   7 N    3.291 --   135 C    1.263   138 C    1.225   133 Zn   0.456
   140   6 C    3.928 --   138 C    1.318   149 C    1.318   141 C    1.029
   141   6 C    3.963 --   148 C    1.386   142 C    1.385   140 C    1.029
   142   6 C    3.987 --   143 C    1.464   141 C    1.385   176 H    0.971
                           147 C    0.102
   143   6 C    3.993 --   142 C    1.464   144 C    1.364   177 H    0.972
                           148 C    0.102
   144   6 C    3.984 --   147 C    1.364   143 C    1.364   145 C    1.098
   145   6 C    3.957 --   146 N    2.819   144 C    1.098
   146   7 N    2.973 --   145 C    2.819
   147   6 C    3.993 --   148 C    1.463   144 C    1.364   178 H    0.972
                           142 C    0.102
   148   6 C    3.987 --   147 C    1.463   141 C    1.386   179 H    0.971
                           143 C    0.102
   149   6 C    3.910 --   140 C    1.318   152 N    1.226   150 C    1.181
   150   6 C    3.960 --   151 C    1.644   149 C    1.181   180 H    0.973
   151   6 C    3.960 --   150 C    1.644   153 C    1.188   181 H    0.974
   152   7 N    3.291 --   153 C    1.263   149 C    1.226   133 Zn   0.456
   153   6 C    3.901 --   152 N    1.263   154 C    1.251   151 C    1.188
   154   6 C    3.928 --   155 C    1.251   153 C    1.251   125 C    1.195
   155   6 C    3.901 --   159 N    1.263   154 C    1.251   156 C    1.188
   156   6 C    3.960 --   157 C    1.644   155 C    1.188   182 H    0.974
   157   6 C    3.960 --   156 C    1.644   158 C    1.181   183 H    0.973
   158   6 C    3.910 --   160 C    1.318   159 N    1.226   157 C    1.181
   159   7 N    3.291 --   155 C    1.263   158 C    1.226   133 Zn   0.456
   160   6 C    3.928 --   169 C    1.319   158 C    1.318   161 C    1.029
   161   6 C    3.963 --   168 C    1.386   162 C    1.386   160 C    1.029
   162   6 C    3.987 --   163 C    1.464   161 C    1.386   184 H    0.971
                           167 C    0.102
   163   6 C    3.993 --   162 C    1.464   164 C    1.364   185 H    0.972
                           168 C    0.102
   164   6 C    3.984 --   167 C    1.364   163 C    1.364   165 C    1.098
   165   6 C    3.957 --   166 N    2.819   164 C    1.098
   166   7 N    2.973 --   165 C    2.819
   167   6 C    3.993 --   168 C    1.463   164 C    1.364   186 H    0.972
                           162 C    0.102
   168   6 C    3.987 --   167 C    1.463   161 C    1.386   187 H    0.971
                           163 C    0.102
   169   6 C    3.910 --   160 C    1.319   173 N    1.225   170 C    1.181
   170   6 C    3.960 --   171 C    1.644   169 C    1.181   188 H    0.973
   171   6 C    3.960 --   170 C    1.644   172 C    1.188   189 H    0.974
   172   6 C    3.900 --   173 N    1.263   134 C    1.250   171 C    1.188
   173   7 N    3.291 --   172 C    1.263   169 C    1.225   133 Zn   0.456
   174   1 H    1.002 --   136 C    0.974
   175   1 H    1.004 --   137 C    0.973
   176   1 H    1.004 --   142 C    0.971
   177   1 H    1.000 --   143 C    0.972
   178   1 H    1.000 --   147 C    0.972
   179   1 H    1.003 --   148 C    0.971
   180   1 H    1.004 --   150 C    0.973
   181   1 H    1.002 --   151 C    0.974
   182   1 H    1.002 --   156 C    0.974
   183   1 H    1.004 --   157 C    0.973
   184   1 H    1.003 --   162 C    0.971
   185   1 H    1.000 --   163 C    0.972
   186   1 H    1.000 --   167 C    0.972
   187   1 H    1.003 --   168 C    0.971
   188   1 H    1.004 --   170 C    0.973
   189   1 H    1.002 --   171 C    0.974
 ---------------------------------------------------------------------------

           -------------------------------------------------
          | TOTAL ENERGY             -335.583546676865 Eh   |
          | GRADIENT NORM               0.000645301724 Eh/α |
          | HOMO-LUMO GAP               0.970975558269 eV   |
           -------------------------------------------------

 * finished run on 2022/07/30 at 16:37:29.892
