   * xtb version 6.5.1 (b24c23e) compiled by 'conda@728c89f4b128' on 2022-07-12
          program call               : xtb Fe_Ph3Me_C6_2.xyz --gfn 1 --opt -T 48

   ID    Z sym.   atoms
    1   26 Fe     1, 75
    2    6 C      2-6, 8-20, 22-27, 29-42, 76-80, 82-94, 96-101, 103-116,
                  149-154
    3    7 N      7, 21, 28, 43, 81, 95, 102, 117
    4    1 H      44-74, 118-148
########################################################################
[WARNING] Please study the warnings concerning your input carefully
-1- prog_main_parseArguments: Unknown option '-T' provided
########################################################################

          :  Hamiltonian                  GFN1-xTB          :
 * total energy  :  -238.1515274 Eh     change       -0.5805390E-08 Eh
 * total energy  :  -238.2288699 Eh     change       -0.7734253E-01 Eh
 * total energy  :  -238.2688558 Eh     change       -0.3998588E-01 Eh
 * total energy  :  -238.2795198 Eh     change       -0.1066394E-01 Eh
 * total energy  :  -238.2854260 Eh     change       -0.5906226E-02 Eh
 * total energy  :  -238.2885793 Eh     change       -0.3153355E-02 Eh
 * total energy  :  -238.2907274 Eh     change       -0.2148034E-02 Eh
 * total energy  :  -238.2919789 Eh     change       -0.1251528E-02 Eh
 * total energy  :  -238.2928410 Eh     change       -0.8621147E-03 Eh
 * total energy  :  -238.2932051 Eh     change       -0.3640693E-03 Eh
 * total energy  :  -238.2945122 Eh     change       -0.1006582E-04 Eh
 * total energy  :  -238.2945198 Eh     change       -0.7581080E-05 Eh
 * total energy  :  -238.2945254 Eh     change       -0.5597001E-05 Eh
 * total energy  :  -238.2945305 Eh     change       -0.5076010E-05 Eh
 * total energy  :  -238.2945361 Eh     change       -0.5635403E-05 Eh
 * total energy  :  -238.2945430 Eh     change       -0.6935718E-05 Eh
 * total energy  :  -238.2945522 Eh     change       -0.9182696E-05 Eh
 * total energy  :  -238.2945638 Eh     change       -0.1162250E-04 Eh
 * total energy  :  -238.2945676 Eh     change       -0.3749506E-05 Eh
   *** GEOMETRY OPTIMIZATION CONVERGED AFTER 44 ITERATIONS ***

 final structure:
================
154
 xtb: 6.5.1 (b24c23e)
Fe          14.50813175815152        0.04528310999971        0.05204998710097
C           11.10986096486229        0.12061036190757       -0.03035879577299
C           11.76618528197324        1.20827722056973        0.50832548745461
C           11.09486485201058        2.34902821023028        1.05583450160842
C           12.05875962916837        3.21944405919193        1.43868400258536
C           13.31666093136510        2.60778347314045        1.12234567719801
N           13.12523635977881        1.37379465465099        0.56257634538555
C           14.54345491339831        3.22454067756041        1.32919185612316
C           14.56017130885570        4.60229063283686        1.89580724367926
C           14.46346681938678        5.70612082246703        1.04358719690518
C           14.33926123039201        5.49956912840722       -0.44239492680640
C           14.48444408046544        6.98751834732274        1.58151593189837
C           14.59883323579028        7.18501750946209        2.95374985483460
C           14.64208350859805        8.57771064634833        3.52218979772930
C           14.69476302236133        6.07886777203029        3.79187963124686
C           14.67667179561273        4.78824270568291        3.27631023968091
C           14.78331136117503        3.59563520972629        4.18876488880628
C           15.75406395581797        2.62004050084648        1.03395164523412
C           17.02338757552648        3.24826169802730        1.24890430266823
C           17.96923833102064        2.34379994576878        0.89904962018288
N           15.92502668823715        1.34934080238392        0.53721458622805
C           17.27418174804911        1.17027784010112        0.46928305912819
C           17.92870389001390        0.00171396440863        0.05988215540788
C           17.24566529017638       -1.14535831259868       -0.36346856377214
C           17.91037343778285       -2.34602630684980       -0.76506058475199
C           16.94350744957754       -3.21694532806186       -1.14205622116112
C           15.69194820974767       -2.54174717917129       -0.97007101997594
N           15.89421716501069       -1.27178527369516       -0.48376432507258
C           14.46849052578586       -3.10487085852427       -1.29350628609201
C           14.44898569778122       -4.48549769060151       -1.85305934634515
C           14.59377883650213       -4.68226798026475       -3.23000331358578
C           14.76993949126407       -3.49877278319657       -4.14351731400393
C           14.57565503690410       -5.97434079376615       -3.73985685883988
C           14.41709936358208       -7.07307758166222       -2.89980019703654
C           14.39169028091064       -8.46322666085889       -3.47560811881599
C           14.27442981749105       -6.86509170372152       -1.53285562647141
C           14.28882922000417       -5.58060617428057       -1.00007434594442
C           14.13619492441001       -5.36376388383708        0.48181080020921
C           13.25927337192207       -2.44539828619767       -1.11741274948822
C           11.98885166654962       -3.01783000610064       -1.45658052379331
C           11.04645623129771       -2.11198751472481       -1.10394173075779
C           11.74306502421680       -0.98956974433414       -0.55013329560236
N           13.09754312961189       -1.19618907108580       -0.58203109835716
H           10.02584194126509        0.13797299018943       -0.04332887789879
H           10.02364123025281        2.45099202674250        1.12829883839250
H           11.94835953165001        4.19030707048731        1.89445812660755
H           13.42268695854687        4.95321441972171       -0.67316554124087
H           15.18021950278014        4.91221536655993       -0.81550232520686
H           14.31792342315550        6.45391464858358       -0.96768125396298
H           14.40975059129687        7.84455695681309        0.92016863490855
H           14.22779707229846        8.59900117812064        4.53044725323541
H           15.67636309594846        8.92612671998411        3.57281947736447
H           14.08132625812330        9.27114802005594        2.89501675838431
H           14.78406648897388        6.22355464352731        4.86358343549804
H           15.69288517664140        3.03283901239780        3.96976481071314
H           14.80847751216355        3.90542692834401        5.23304718241641
H           13.93374705913264        2.92656143648261        4.04096915872502
H           17.15605234781327        4.25028487686417        1.62362953894176
H           19.04220911394835        2.44515469811085        0.92647286638118
H           18.97915213040906       -2.48736979691760       -0.75471908856393
H           17.05095549876159       -4.22644942922846       -1.50466062702464
H           13.94354092047050       -2.79665521469246       -4.01972923189414
H           14.80943892999314       -3.81404898023467       -5.18572131261356
H           15.69484966730698       -2.97069895751362       -3.90340438053901
H           14.68780254256870       -6.12856201395391       -4.80810358331489
H           15.24244760378708       -8.61705202353985       -4.14122008455574
H           14.42390580522273       -9.21418593457084       -2.68636733589119
H           13.47916732604114       -8.61196582448284       -4.05679252461622
H           14.15132860354346       -7.71488330535033       -0.86943747562848
H           13.23690377474094       -4.78025393761409        0.68833515944953
H           14.99061768593164       -4.80941462997065        0.87435025307146
H           14.06340452060554       -6.31462160529991        1.00881240673650
H           11.85599285746351       -3.98950406027276       -1.90452791652472
H            9.97415220151606       -2.17985413337943       -1.19724847667765
Fe          30.51076436471342       -0.06889073181131        0.00578898415672
C           33.90896875214987       -0.06686903893954       -0.10354428196789
C           33.25266322917711       -1.22549471220223       -0.46527202353785
C           33.92390181018035       -2.42902442852104       -0.85603649029310
C           32.96002870112728       -3.32196005540406       -1.18303975656078
C           31.70222150612224       -2.66008587055699       -0.99233980712420
N           31.89366452381761       -1.38164240030556       -0.54330476738573
C           30.47563693746600       -3.24692759114194       -1.27404543363901
C           30.45918683915998       -4.63342568245039       -1.81889424446407
C           30.56316646573888       -4.84040920759359       -3.19745330435367
C           30.69450022580384       -3.66303018990340       -4.12630606560800
C           30.54276378276681       -6.13755023318181       -3.69625571060919
C           30.42186031962986       -7.22970576320167       -2.84320801916297
C           30.37952723424587       -8.62827640530461       -3.39710021228433
C           30.31860983528538       -7.01129530189794       -1.47321887810456
C           30.33594726111509       -5.72296925885679       -0.95190794829078
C           30.22137959793478       -5.49365413694325        0.53151887098782
C           29.26512541778462       -2.60490827481219       -1.07236330985789
C           27.99593409318563       -3.20537095790165       -1.35635444419621
C           27.04997200151998       -2.31058551894099       -0.98266914564363
N           29.09401376214187       -1.34476950551287       -0.54947507901659
C           27.74482815062038       -1.16783627178304       -0.47645681633146
C           27.09033381807032       -0.04254333962190        0.04022214778624
C           27.77346371029986        1.07685947551668        0.53198248109367
C           27.10884029072259        2.21976622929734        1.07674199968410
C           28.07562638298986        3.10928348341184        1.40774048879576
C           29.32705101503218        2.50447867370108        1.06132714616063
N           29.12481079696505        1.25201729090884        0.53155114322074
C           30.55026176286912        3.13585557954099        1.21525138237066
C           30.56986710624641        4.51940644611316        1.76750447499677
C           30.41925164883520        5.61464917211797        0.91110581968216
C           30.23646155724859        5.39322231740105       -0.56665178617351
C           30.43789374100640        6.89989004123812        1.43794062615544
C           30.60263741610147        7.11108259439035        2.80406935601652
C           30.62869521666181        8.51275376102929        3.35119883179224
C           30.75095799973911        6.01466546964454        3.64551453928435
C           30.73620572858790        4.71903545194969        3.14045897735552
C           30.89509728421205        3.53669045725106        4.05867744981494
C           31.75930468680517        2.53899188215307        0.88340507870624
C           33.02955843187618        3.18779349080610        1.03240130832880
C           33.97203120801566        2.28970731683790        0.66063167408663
C           33.27564230300894        1.09526302697226        0.28628593746907
N           31.92115806055050        1.26631462143491        0.40654176157176
H           34.99300120287369       -0.07066350304575       -0.12412486419485
H           34.99506006047623       -2.55371939401719       -0.87151738616377
H           33.07040699807616       -4.33881766823945       -1.52408329424728
H           31.61165727285857       -3.11146612568086       -3.91072479461122
H           29.85480699105360       -2.97861420280278       -3.99257076867387
H           30.71944695971144       -3.98819512140230       -5.16592299406035
H           30.62314079806059       -6.29848071658554       -4.76635670355128
H           30.78927139550726       -9.34204483208547       -2.68203575923695
H           29.34591430360973       -8.91342838063883       -3.60691324904037
H           30.94489446490075       -8.69542915802917       -4.32688428734398
H           30.22414223177534       -7.85735907913375       -0.80038025591100
H           29.31055631136311       -4.93587990244753        0.75806766640666
H           30.19327711840252       -6.44001722172465        1.07072059521092
H           31.06899942165417       -4.90841902811390        0.89247923093391
H           27.86341929102925       -4.18683770125689       -1.78207272387220
H           25.97704222258459       -2.40180506796147       -1.03550334699943
H           26.04015262783696        2.31372628826926        1.18376747060635
H           27.96819867446420        4.08789373668610        1.84695466243775
H           31.06060870181058        4.80020441249562       -0.96706010132142
H           30.19533044660104        6.34229700440713       -1.10024154448779
H           29.31025085571813        4.84670489542803       -0.75490658873170
H           30.32134364972768        7.75071855684298        0.77459995864291
H           29.77600927014957        9.08384109269550        2.98070266848052
H           30.60058229196470        8.50796607125755        4.44072497500301
H           31.53955421708905        9.02337565564874        3.03150187220747
H           30.87884117088986        6.16851543777056        4.71200450004743
H           31.79539353228503        2.97555735839469        3.80085931776335
H           30.04247820764192        2.86231103744963        3.96034829062070
H           30.96999224024961        3.85774488138275        5.09717403783571
H           33.16227385686180        4.19980952091538        1.37977627988537
H           35.04426888181089        2.40369971042255        0.63920740519703
C           23.12469403868568       -0.03737229941543        0.08622690616101
C           21.89435531986028       -0.03588646882104        0.08668206366824
C           20.55392528320424       -0.02752879206108        0.08371350723976
C           19.32820135082532       -0.01887295759901        0.07412672441121
C           24.46513036195062       -0.03918417931221        0.07845859143159
C           25.69085021421177       -0.03739407016240        0.06525154974486

          :  Hamiltonian                  GFN1-xTB          :
         :: total energy            -238.294567588651 Eh    ::
         :: gradient norm              0.000468749557 Eh/a0 ::
         :: HOMO-LUMO gap              0.093324225959 eV    ::
         :: SCC energy              -242.169477825433 Eh    ::
         :: repulsion energy           4.013241449970 Eh    ::

    * Orbital Energies and Occupations

         #    Occupation            Energy/Eh            Energy/eV
      -------------------------------------------------------------
         1        2.0000           -0.7684741             -20.9112
       ...           ...                  ...                  ...
       211        2.0000           -0.4208214             -11.4511
       212        2.0000           -0.4206518             -11.4465
       213        2.0000           -0.4162740             -11.3274
       214        2.0000           -0.3962980             -10.7838
       215        2.0000           -0.3962943             -10.7837
       216        2.0000           -0.3955070             -10.7623
       217        1.9908           -0.3880470             -10.5593
       218        1.9907           -0.3880432             -10.5592
       219        1.9473           -0.3863729             -10.5137
       220        1.9471           -0.3863694             -10.5136
       221        1.9448           -0.3863272             -10.5125
       222        1.9436           -0.3863056             -10.5119
       223        1.7278           -0.3846989             -10.4682 (HOMO)
       224        0.2931           -0.3812693             -10.3749 (LUMO)
       225        0.2147           -0.3809307             -10.3657
       226                         -0.3392659              -9.2319
       227                         -0.3265155              -8.8849
       228                         -0.3251961              -8.8490
       229                         -0.3251868              -8.8488
       230                         -0.3011059              -8.1935
       231                         -0.3010790              -8.1928
       232                         -0.2985276              -8.1233
       233                         -0.2907067              -7.9105
       234                         -0.2891851              -7.8691
       ...                                ...                  ...
       502                          1.5744729              42.8436
      -------------------------------------------------------------
                  HL-Gap            0.0034296 Eh            0.0933 eV

Wiberg/Mayer (AO) data.
largest (>0.10) Wiberg bond orders for each atom

     #   Z sym  total        # sym  WBO       # sym  WBO       # sym  WBO
 ---------------------------------------------------------------------------
     1  26 Fe   3.157 --    43 N    0.671     7 N    0.667    21 N    0.663
                            28 N    0.660
     2   6 C    3.923 --    42 C    1.363     3 C    1.362    44 H    0.970
     3   6 C    3.926 --     2 C    1.362     7 N    1.211     4 C    1.174
     4   6 C    3.959 --     5 C    1.649     3 C    1.174    45 H    0.975
     5   6 C    3.962 --     4 C    1.649     6 C    1.175    46 H    0.974
     6   6 C    3.920 --     8 C    1.316     7 N    1.223     5 C    1.175
     7   7 N    3.380 --     6 C    1.223     3 C    1.211     1 Fe   0.667
     8   6 C    3.925 --    18 C    1.340     6 C    1.316     9 C    1.005
     9   6 C    3.987 --    16 C    1.380    10 C    1.380     8 C    1.005
                            13 C    0.104
    10   6 C    3.984 --    12 C    1.421     9 C    1.380    11 C    1.021
                            15 C    0.103
    11   6 C    3.995 --    10 C    1.021    49 H    0.986    48 H    0.974
                            47 H    0.973
    12   6 C    3.993 --    10 C    1.421    13 C    1.414    50 H    0.970
                            16 C    0.103
    13   6 C    3.988 --    12 C    1.414    15 C    1.414    14 C    1.020
                             9 C    0.104
    14   6 C    3.996 --    13 C    1.020    53 H    0.983    51 H    0.983
                            52 H    0.971
    15   6 C    3.993 --    16 C    1.421    13 C    1.414    54 H    0.970
                            10 C    0.103
    16   6 C    3.984 --    15 C    1.421     9 C    1.380    17 C    1.021
                            12 C    0.103
    17   6 C    3.995 --    16 C    1.021    56 H    0.986    57 H    0.975
                            55 H    0.973
    18   6 C    3.917 --     8 C    1.340    21 N    1.196    19 C    1.178
    19   6 C    3.957 --    20 C    1.638    18 C    1.178    58 H    0.974
    20   6 C    3.960 --    19 C    1.638    22 C    1.188    59 H    0.973
    21   7 N    3.380 --    22 C    1.249    18 C    1.196     1 Fe   0.663
    22   6 C    3.905 --    21 N    1.249    23 C    1.248    20 C    1.188
    23   6 C    3.923 --    24 C    1.248    22 C    1.248   152 C    1.207
    24   6 C    3.905 --    28 N    1.249    23 C    1.248    25 C    1.188
    25   6 C    3.960 --    26 C    1.638    24 C    1.188    60 H    0.973
    26   6 C    3.957 --    25 C    1.638    27 C    1.179    61 H    0.974
    27   6 C    3.917 --    29 C    1.339    28 N    1.197    26 C    1.179
    28   7 N    3.380 --    24 C    1.249    27 C    1.197     1 Fe   0.660
    29   6 C    3.925 --    27 C    1.339    39 C    1.317    30 C    1.005
    30   6 C    3.987 --    37 C    1.383    31 C    1.376    29 C    1.005
                            34 C    0.104
    31   6 C    3.984 --    33 C    1.425    30 C    1.376    32 C    1.021
                            36 C    0.102
    32   6 C    3.995 --    31 C    1.021    63 H    0.986    62 H    0.975
                            64 H    0.973
    33   6 C    3.993 --    31 C    1.425    34 C    1.409    65 H    0.971
                            37 C    0.103
    34   6 C    3.988 --    36 C    1.419    33 C    1.409    35 C    1.020
                            30 C    0.104
    35   6 C    3.996 --    34 C    1.020    67 H    0.986    66 H    0.978
                            68 H    0.973
    36   6 C    3.992 --    34 C    1.419    37 C    1.416    69 H    0.970
                            31 C    0.102
    37   6 C    3.984 --    36 C    1.416    30 C    1.383    38 C    1.021
                            33 C    0.103
    38   6 C    3.995 --    37 C    1.021    72 H    0.986    71 H    0.974
                            70 H    0.973
    39   6 C    3.920 --    29 C    1.317    43 N    1.222    40 C    1.174
    40   6 C    3.962 --    41 C    1.649    39 C    1.174    73 H    0.974
    41   6 C    3.959 --    40 C    1.649    42 C    1.173    74 H    0.975
    42   6 C    3.926 --     2 C    1.363    43 N    1.210    41 C    1.173
    43   7 N    3.381 --    39 C    1.222    42 C    1.210     1 Fe   0.671
    44   1 H    1.001 --     2 C    0.970
    45   1 H    0.998 --     4 C    0.975
    46   1 H    1.002 --     5 C    0.974
    47   1 H    1.008 --    11 C    0.973
    48   1 H    1.007 --    11 C    0.974
    49   1 H    1.004 --    11 C    0.986
    50   1 H    1.000 --    12 C    0.970
    51   1 H    1.004 --    14 C    0.983
    52   1 H    1.006 --    14 C    0.971
    53   1 H    1.004 --    14 C    0.983
    54   1 H    1.000 --    15 C    0.970
    55   1 H    1.008 --    17 C    0.973
    56   1 H    1.004 --    17 C    0.986
    57   1 H    1.007 --    17 C    0.975
    58   1 H    1.002 --    19 C    0.974
    59   1 H    1.002 --    20 C    0.973
    60   1 H    1.002 --    25 C    0.973
    61   1 H    1.002 --    26 C    0.974
    62   1 H    1.007 --    32 C    0.975
    63   1 H    1.004 --    32 C    0.986
    64   1 H    1.008 --    32 C    0.973
    65   1 H    0.999 --    33 C    0.971
    66   1 H    1.005 --    35 C    0.978
    67   1 H    1.004 --    35 C    0.986
    68   1 H    1.006 --    35 C    0.973
    69   1 H    1.000 --    36 C    0.970
    70   1 H    1.008 --    38 C    0.973
    71   1 H    1.007 --    38 C    0.974
    72   1 H    1.004 --    38 C    0.986
    73   1 H    1.002 --    40 C    0.974
    74   1 H    0.998 --    41 C    0.975
    75  26 Fe   3.158 --   117 N    0.671    81 N    0.667    95 N    0.663
                           102 N    0.660
    76   6 C    3.923 --   116 C    1.363    77 C    1.362   118 H    0.970
    77   6 C    3.926 --    76 C    1.362    81 N    1.211    78 C    1.174
    78   6 C    3.959 --    79 C    1.649    77 C    1.174   119 H    0.975
    79   6 C    3.962 --    78 C    1.649    80 C    1.175   120 H    0.974
    80   6 C    3.920 --    82 C    1.316    81 N    1.223    79 C    1.175
    81   7 N    3.380 --    80 C    1.223    77 C    1.211    75 Fe   0.667
    82   6 C    3.925 --    92 C    1.340    80 C    1.316    83 C    1.005
    83   6 C    3.987 --    90 C    1.380    84 C    1.380    82 C    1.005
                            87 C    0.104
    84   6 C    3.984 --    86 C    1.421    83 C    1.380    85 C    1.021
                            89 C    0.103
    85   6 C    3.995 --    84 C    1.021   123 H    0.986   122 H    0.974
                           121 H    0.973
    86   6 C    3.993 --    84 C    1.421    87 C    1.414   124 H    0.970
                            90 C    0.103
    87   6 C    3.988 --    86 C    1.414    89 C    1.414    88 C    1.020
                            83 C    0.104
    88   6 C    3.996 --    87 C    1.020   127 H    0.983   125 H    0.983
                           126 H    0.971
    89   6 C    3.993 --    90 C    1.421    87 C    1.414   128 H    0.970
                            84 C    0.103
    90   6 C    3.984 --    89 C    1.421    83 C    1.380    91 C    1.021
                            86 C    0.103
    91   6 C    3.995 --    90 C    1.021   130 H    0.986   131 H    0.975
                           129 H    0.973
    92   6 C    3.917 --    82 C    1.340    95 N    1.196    93 C    1.178
    93   6 C    3.957 --    94 C    1.638    92 C    1.178   132 H    0.974
    94   6 C    3.960 --    93 C    1.638    96 C    1.188   133 H    0.973
    95   7 N    3.380 --    96 C    1.249    92 C    1.196    75 Fe   0.663
    96   6 C    3.905 --    95 N    1.249    97 C    1.248    94 C    1.188
    97   6 C    3.923 --    98 C    1.248    96 C    1.248   154 C    1.207
    98   6 C    3.905 --   102 N    1.249    97 C    1.248    99 C    1.188
    99   6 C    3.960 --   100 C    1.638    98 C    1.188   134 H    0.973
   100   6 C    3.957 --    99 C    1.638   101 C    1.179   135 H    0.974
   101   6 C    3.917 --   103 C    1.339   102 N    1.197   100 C    1.179
   102   7 N    3.380 --    98 C    1.249   101 C    1.197    75 Fe   0.660
   103   6 C    3.926 --   101 C    1.339   113 C    1.317   104 C    1.005
   104   6 C    3.987 --   111 C    1.383   105 C    1.376   103 C    1.005
                           108 C    0.104
   105   6 C    3.984 --   107 C    1.425   104 C    1.376   106 C    1.021
                           110 C    0.102
   106   6 C    3.995 --   105 C    1.021   137 H    0.986   136 H    0.975
                           138 H    0.973
   107   6 C    3.993 --   105 C    1.425   108 C    1.409   139 H    0.971
                           111 C    0.103
   108   6 C    3.988 --   110 C    1.419   107 C    1.409   109 C    1.020
                           104 C    0.104
   109   6 C    3.996 --   108 C    1.020   141 H    0.986   140 H    0.978
                           142 H    0.973
   110   6 C    3.992 --   108 C    1.419   111 C    1.416   143 H    0.970
                           105 C    0.102
   111   6 C    3.984 --   110 C    1.416   104 C    1.383   112 C    1.021
                           107 C    0.103
   112   6 C    3.995 --   111 C    1.021   146 H    0.986   145 H    0.974
                           144 H    0.973
   113   6 C    3.920 --   103 C    1.317   117 N    1.222   114 C    1.174
   114   6 C    3.962 --   115 C    1.649   113 C    1.174   147 H    0.974
   115   6 C    3.959 --   114 C    1.649   116 C    1.173   148 H    0.975
   116   6 C    3.926 --    76 C    1.363   117 N    1.210   115 C    1.173
   117   7 N    3.381 --   113 C    1.222   116 C    1.210    75 Fe   0.671
   118   1 H    1.001 --    76 C    0.970
   119   1 H    0.998 --    78 C    0.975
   120   1 H    1.002 --    79 C    0.974
   121   1 H    1.008 --    85 C    0.973
   122   1 H    1.007 --    85 C    0.974
   123   1 H    1.004 --    85 C    0.986
   124   1 H    1.000 --    86 C    0.970
   125   1 H    1.004 --    88 C    0.983
   126   1 H    1.006 --    88 C    0.971
   127   1 H    1.004 --    88 C    0.983
   128   1 H    1.000 --    89 C    0.970
   129   1 H    1.008 --    91 C    0.973
   130   1 H    1.004 --    91 C    0.986
   131   1 H    1.007 --    91 C    0.975
   132   1 H    1.002 --    93 C    0.974
   133   1 H    1.002 --    94 C    0.973
   134   1 H    1.002 --    99 C    0.973
   135   1 H    1.002 --   100 C    0.974
   136   1 H    1.007 --   106 C    0.975
   137   1 H    1.004 --   106 C    0.986
   138   1 H    1.008 --   106 C    0.973
   139   1 H    0.999 --   107 C    0.971
   140   1 H    1.005 --   109 C    0.978
   141   1 H    1.004 --   109 C    0.986
   142   1 H    1.006 --   109 C    0.973
   143   1 H    1.000 --   110 C    0.970
   144   1 H    1.008 --   112 C    0.973
   145   1 H    1.007 --   112 C    0.974
   146   1 H    1.004 --   112 C    0.986
   147   1 H    1.002 --   114 C    0.974
   148   1 H    0.998 --   115 C    0.975
   149   6 C    3.914 --   150 C    2.337   153 C    1.355   152 C    0.186
   150   6 C    3.914 --   149 C    2.337   151 C    1.355   154 C    0.186
   151   6 C    3.921 --   152 C    2.419   150 C    1.355
   152   6 C    3.879 --   151 C    2.419    23 C    1.207   149 C    0.186
   153   6 C    3.921 --   154 C    2.419   149 C    1.355
   154   6 C    3.879 --   153 C    2.419    97 C    1.207   150 C    0.186
 ---------------------------------------------------------------------------

           -------------------------------------------------
          | TOTAL ENERGY             -238.294567588651 Eh   |
          | GRADIENT NORM               0.000468749557 Eh/α |
          | HOMO-LUMO GAP               0.093324225959 eV   |
           -------------------------------------------------

 * finished run on 2022/07/29 at 20:53:04.971
