   * xtb version 6.5.1 (b24c23e) compiled by 'conda@728c89f4b128' on 2022-07-12
          program call               : xtb Cu_PhNH2_C8_3.xyz --gfn 1 --opt -T 48

   ID    Z sym.   atoms
    1   29 Cu     1, 61, 137
    2    6 C      2-6, 8-12, 14-18, 20-25, 27-31, 33-38, 62-66, 68-72, 74-78,
                  80-85, 87-91, 93-98, 121-136, 138-142, 144-148, 150-154,
                  156-161, 163-167, 169-174
    3    7 N      7, 13, 19, 26, 32, 39, 67, 73, 79, 86, 92, 99, 143, 149,
                  155, 162, 168, 175
    4    1 H      40-60, 100-120, 176-195

          :  Hamiltonian                  GFN1-xTB          :
 * total energy  :  -338.2962930 Eh     change       -0.1583089E-09 Eh
 * total energy  :  -340.0426977 Eh     change       -0.1746405E+01 Eh
 * total energy  :  -340.3763014 Eh     change       -0.3336037E+00 Eh
 * total energy  :  -340.5467490 Eh     change       -0.1704476E+00 Eh
 * total energy  :  -340.6682673 Eh     change       -0.1215182E+00 Eh
 * total energy  :  -340.7561696 Eh     change       -0.8790238E-01 Eh
 * total energy  :  -340.8046586 Eh     change       -0.4848897E-01 Eh
 * total energy  :  -340.8375928 Eh     change       -0.3293422E-01 Eh
 * total energy  :  -340.8584620 Eh     change       -0.2086918E-01 Eh
 * total energy  :  -340.8696035 Eh     change       -0.1114146E-01 Eh
 * total energy  :  -340.8981789 Eh     change       -0.7047597E-05 Eh
 * total energy  :  -340.8981852 Eh     change       -0.6247874E-05 Eh
 * total energy  :  -340.8981908 Eh     change       -0.5628598E-05 Eh
 * total energy  :  -340.8981962 Eh     change       -0.5353209E-05 Eh
 * total energy  :  -340.8982020 Eh     change       -0.5858500E-05 Eh
 * total energy  :  -340.8982086 Eh     change       -0.6597580E-05 Eh
 * total energy  :  -340.8982152 Eh     change       -0.6548699E-05 Eh
 * total energy  :  -340.8982203 Eh     change       -0.5097247E-05 Eh
 * total energy  :  -340.8982207 Eh     change       -0.4420708E-06 Eh
   *** GEOMETRY OPTIMIZATION CONVERGED AFTER 68 ITERATIONS ***

 final structure:
================
195
 xtb: 6.5.1 (b24c23e)
Cu          26.51910832705227        0.02096886662328        0.02318575019649
C           23.11450520339481        0.08620584834500        0.06972636482304
C           23.75288949507187        1.19941687332534       -0.45615063544474
C           23.08149965710815        2.33164860257936       -1.02584582326523
C           24.04329782626362        3.19867762325132       -1.42982516571264
C           25.31145016690393        2.60974279256689       -1.09665516893442
N           25.10414477698832        1.39289624660214       -0.51339413493706
C           26.55787901255149        3.19036089140067       -1.34947591582143
C           26.57559447896272        4.54840668246180       -1.94355384057234
C           27.18766047319166        4.77704089573687       -3.17850682902181
C           27.20367094273738        6.04154751361525       -3.73962207279218
C           26.61754960428058        7.11553689443264       -3.06482471654171
N           26.59773701523268        8.37418158340862       -3.64040477400426
C           25.99974708672729        6.89476656598397       -1.83116481790926
C           25.97960462790732        5.62494404126222       -1.28199533567358
C           27.78804833333227        2.58414507499867       -1.08406502427050
C           29.06671295151026        3.20916812379686       -1.26868122463180
C           30.00982778734762        2.30712683514714       -0.89488835916370
N           27.97263375728026        1.31923829457987       -0.58996865773794
C           29.31499470032059        1.12942202246204       -0.47160094343468
C           29.94736848522680       -0.04038990212435       -0.01309360300907
C           29.28345279520805       -1.18925844740263        0.45371206015099
C           29.94446910097322       -2.39321970250058        0.85688476640767
C           28.97773773642770       -3.26291825756507        1.24677214974868
C           27.71883109961122       -2.59111083034141        1.09349247431631
N           27.93804779526793       -1.33154357956415        0.59982036190636
C           26.47382682933180       -3.15172377862990        1.38771660931559
C           26.45407136468605       -4.51318562554968        1.97410591183266
C           27.08366629411292       -4.77322592845669        3.19384216500081
C           27.06320570048698       -6.04124981476815        3.74695215439890
C           26.42201146491429       -7.08749572427170        3.07869428750648
N           26.36606440836488       -8.34833406467446        3.64709154633655
C           25.78676375128823       -6.83506467190614        1.86005355989411
C           25.80310141981682       -5.56162030600894        1.31928670305434
C           25.24432781197477       -2.52250067832807        1.17102197740499
C           23.96432031633741       -3.06324522224864        1.53868281593307
C           23.02572218691208       -2.15838899768300        1.16415755173902
C           23.72397404286654       -1.05137405597446        0.57741421757568
N           25.06785388083566       -1.29680844929098        0.59629509676628
H           22.02955140431852        0.10707945912716        0.08482794642538
H           22.01086236350551        2.43167190971851       -1.11218026022353
H           23.91188500552833        4.14806399505123       -1.92357353515861
H           27.63707835673224        3.94694601977046       -3.71261543517331
H           27.67206210905247        6.20387066710281       -4.70425579388847
H           27.31539920348065        8.53899489442635       -4.32808893066216
H           26.47148093253531        9.13628448433681       -2.99362072614261
H           25.54001933395952        7.72378018814783       -1.30419213700212
H           25.51443308467995        5.46569914343388       -0.31523887534973
H           29.21995224859472        4.21625421710423       -1.62139122936807
H           31.08184601564183        2.42357736322211       -0.89409998893930
H           31.01132954281579       -2.54807797831046        0.83158902028277
H           29.10195100836572       -4.27669106675889        1.59168446610319
H           27.57600892832900       -3.96453170484557        3.72291092208270
H           27.54548922898424       -6.22787026261832        4.70027890758352
H           27.09175547604874       -8.54558625350662        4.31758925036939
H           26.19606150081475       -9.10046922482375        2.99864942741269
H           25.28452127089475       -7.64238107355713        1.33822417582781
H           25.32308649791490       -5.37776511780510        0.36422116754227
H           23.81066057022106       -4.00839761453976        2.03414424793068
H           21.95490406534858       -2.21721506103146        1.28079631701176
Cu          63.73319671102562       -0.01438683688868        0.04161872344220
C           67.13740376400771       -0.00973755720001        0.12382631679982
C           66.49964846778789       -1.06502030644709        0.75873095656681
C           67.17159380792963       -2.16639544046810        1.38552921095615
C           66.21011978639915       -2.98539783866690        1.88031409087959
C           64.94161645836202       -2.38304834286793        1.57338920888343
N           65.14849245667006       -1.22204469262810        0.88561727609608
C           63.69532514345471       -2.91688877485228        1.91465416935367
C           63.67807925341873       -4.16450057778505        2.71526896813572
C           63.06928408470085       -5.32048629788257        2.22035276624554
C           63.05408948363439       -6.48810763707583        2.96244782142139
C           63.63750854791969       -6.51993587239339        4.23166620285609
N           63.65836786866348       -7.69620280206790        4.96099871704818
C           64.25173477271436       -5.36921012252052        4.73253804070413
C           64.27125585282676       -4.20871721201199        3.97937944313174
C           62.46503626785594       -2.35982117115311        1.55802544993664
C           61.18647318077038       -2.86072798974739        1.97535822297227
C           60.24331325157475       -2.04757682315293        1.43493514743749
N           62.28026442490775       -1.24539889057973        0.78210505650147
C           60.93805933241262       -1.04071606827521        0.69143637072561
C           60.30550189035763       -0.00744781465331       -0.02333242289627
C           60.96837152935738        1.02004289116938       -0.71851746290128
C           60.30618821491944        2.02549736441054       -1.49294303256162
C           61.27261278551235        2.82960727087410       -2.00517081847719
C           62.53254525634576        2.32613509174138       -1.53721466570813
N           62.31396127677609        1.21764058808329       -0.76153710989011
C           63.77780823090392        2.87781650192268       -1.84703801716207
C           63.79804108492718        4.11832286900504       -2.65863969891050
C           63.17282147904766        5.28051485644427       -2.20017862624738
C           63.19469664465464        6.44201179502315       -2.95165163130774
C           63.83324815683980        6.46132230488631       -4.19431104200106
N           63.89151301892699        7.63175508216902       -4.93088623996197
C           64.46375624684688        5.30413775342977       -4.65877487328184
C           64.44584688153196        4.14986359051204       -3.89604837197888
C           65.00755179156060        2.34761351270824       -1.44524165992626
C           66.28776961245114        2.95169107375752       -1.69480421389801
C           67.22622589562866        2.14074244820321       -1.14559691984580
C           66.52784657757591        1.04120405054662       -0.54500773196435
N           65.18402126428352        1.19246498305078       -0.73945204375589
H           68.22232100242135       -0.00723924977701        0.15124793693760
H           68.24235263765912       -2.29212323100642        1.42278674697917
H           66.34187042332589       -3.92320232333547        2.39564938640479
H           62.62174707353275       -5.30640608406654        1.23251255053922
H           62.58839585161935       -7.38216191312735        2.56235012976629
H           62.94229376995211       -8.36147274056528        4.71657065197906
H           63.78318390182315       -7.57935658525446        5.95389098596857
H           64.70916085670035       -5.38856726875370        5.71574410034349
H           64.73374413225123       -3.31459757246500        4.38311899104719
H           61.03345507394671       -3.71438121036775        2.61566136678730
H           59.17136890725116       -2.11093724870483        1.53347300605605
H           59.23879229613677        2.09338586427023       -1.63040193096079
H           61.14730369205556        3.67918768691426       -2.65682287444961
H           62.68295781997242        5.27630307048919       -1.23254633275729
H           62.71581031825121        7.34109038089450       -2.57936615635737
H           63.16913033811282        8.30246471262893       -4.72263202498560
H           64.05923727250469        7.50705401569800       -5.91646037718501
H           64.96376868512401        5.31375908163172       -5.62117929214599
H           64.92238262729347        3.25089627977739       -4.27174399396068
H           66.44168006986145        3.88550132884434       -2.21125703557521
H           68.29706135133725        2.27033916136829       -1.13049784132503
C           31.35223863411331       -0.06162177489414       -0.02007785583822
C           32.57697112317001       -0.07500192681119       -0.01854287842621
C           33.91957388979061       -0.08477758183761       -0.02011354244859
C           35.15054635014086       -0.09197442137203       -0.01826843013885
C           36.48836977369758       -0.09256950109276       -0.01332273248380
C           37.71933402226730       -0.08557908862638       -0.00690060787139
C           39.06175951242082       -0.07920990131997       -0.00372447270385
C           40.28670839127021       -0.06841748297501        0.00133773971573
C           49.96643167293070       -0.01065374487380       -0.02041353580794
C           51.19129400522920       -0.00695004136730       -0.03324367716379
C           52.53365963697258       -0.00482029277873       -0.04699191242772
C           53.76458447727396       -0.00074801653466       -0.05516998051823
C           55.10239224349466        0.00034421452863       -0.06058721571235
C           56.33327512411738        0.00302273705181       -0.06128615315816
C           57.67588140300332        0.00030792419188       -0.05459960004162
C           58.90060115610853       -0.00237772858065       -0.04353662050152
Cu          45.12643871123757       -0.03267452619350        0.01355843933168
C           41.69119672259706       -0.05975304560294       -0.00163711206437
C           42.33139991662954        1.14334474638340       -0.35193464585844
C           41.64406060320896        2.35918705980365       -0.66590147346334
C           42.59395923101776        3.29441858905242       -0.92350350071784
C           43.86857498815831        2.65113168235197       -0.77991145067729
N           43.67504522454244        1.34293417668195       -0.42215285234420
C           45.10471418780821        3.27805107814880       -0.95435471859451
C           45.09692081053070        4.70384821276566       -1.36425824101856
C           44.52631901029635        5.09385831758882       -2.57797043380344
C           44.52328462262840        6.42202229361682       -2.96609300815617
C           45.09114566806576        7.39519479250270       -2.13992901696524
N           45.04618418200810        8.73065855966722       -2.50149442136974
C           45.65197637029207        7.01474462760994       -0.91811775189271
C           45.66008330129297        5.68302514406120       -0.54261490508242
C           46.34896871731644        2.66843043612608       -0.77514260403402
C           47.61458616984658        3.30080765075364       -1.01446744691252
C           48.57692319930214        2.38155960260779       -0.74535743595313
N           46.55995547275498        1.37450367445047       -0.37830235458462
C           47.90601688757864        1.18101248768956       -0.34833464070291
C           48.56209974798782       -0.01347898138257        0.00163614905225
C           47.92189275593253       -1.21321510773076        0.36308032491643
C           48.60872313521327       -2.42839640909963        0.68028824986642
C           47.65860525846482       -3.35757882331982        0.95864821742972
C           46.38457872564783       -2.71190838885477        0.82119197499566
N           46.57841368304199       -1.40795193071550        0.44913436784507
C           45.14838172539604       -3.33517411902439        1.00941782490545
C           45.15847315341622       -4.75370181274084        1.44330110979487
C           44.58925951201865       -5.74795532984356        0.64425095771274
C           44.60122132677784       -7.07262467709333        1.04385596103129
C           45.18341187849898       -7.43227404003478        2.26199791631703
N           45.15337461094168       -8.74895446152957        2.68830445242580
C           45.74335053922677       -6.44185358190685        3.07295287664167
C           45.73608664600537       -5.12098059684910        2.66093039409828
C           43.90414186410847       -2.72869799952231        0.82037163771129
C           42.63795753262981       -3.35997779236637        1.05990772935181
C           41.67593637814750       -2.44715527339528        0.76910051877050
C           42.34738163201727       -1.25016439717215        0.36220098808078
N           43.69354338035109       -1.44027602690229        0.40511472540221
H           40.57214045524109        2.47603350672373       -0.67580152915414
H           42.44699831513864        4.33243312095859       -1.17429184668247
H           44.09900607609362        4.34205377144271       -3.23251423091749
H           44.08364473147486        6.71162723355332       -3.91430018601531
H           44.94109751095360        8.90098279465261       -3.48891446466444
H           45.73727946120836        9.31515528020861       -2.05902931498898
H           46.08189156265247        7.76742385604621       -0.26628337189868
H           46.09037120725220        5.39641759459288        0.41078244062087
H           47.74733659333984        4.31334149730579       -1.35978010036750
H           49.64701168885147        2.49549629300161       -0.81426449847504
H           49.68031122371902       -2.54880884229060        0.67951661947942
H           47.80497384130955       -4.39349657340437        1.21854671348669
H           44.15087123994341       -5.47901666455474       -0.31061389256537
H           44.16213444458879       -7.83656228901233        0.41149996706818
H           45.85217967813090       -8.99083701687058        3.37259536602000
H           45.04909227759892       -9.43148951912424        1.95461109209048
H           46.18437894940622       -6.71303147141599        4.02596115119715
H           46.16533827376929       -4.35676961954616        3.29968414313551
H           42.50432571298844       -4.36734264056163        1.41950555142986
H           40.60560414506443       -2.56249082681986        0.83117207853751

          :  Hamiltonian                  GFN1-xTB          :
         :: total energy            -340.898220701221 Eh    ::
         :: gradient norm              0.000494495564 Eh/a0 ::
         :: HOMO-LUMO gap              0.001002249741 eV    ::
         :: SCC energy              -346.535179888018 Eh    ::
         :: repulsion energy           5.807494884702 Eh    ::

    * Orbital Energies and Occupations

         #    Occupation            Energy/Eh            Energy/eV
      -------------------------------------------------------------
         1        2.0000           -0.7785578             -21.1856
       ...           ...                  ...                  ...
       305        2.0000           -0.3970926             -10.8054
       306        2.0000           -0.3963634             -10.7856
       307        2.0000           -0.3963080             -10.7841
       308        2.0000           -0.3962123             -10.7815
       309        2.0000           -0.3952270             -10.7547
       310        2.0000           -0.3893609             -10.5950
       311        2.0000           -0.3893157             -10.5938
       312        2.0000           -0.3888311             -10.5806
       313        2.0000           -0.3807563             -10.3609
       314        2.0000           -0.3768589             -10.2549
       315        2.0000           -0.3704693             -10.0810
       316        1.0280           -0.3498431              -9.5197
       317        0.9946           -0.3497719              -9.5178 (HOMO)
       318        0.9774           -0.3497350              -9.5168 (LUMO)
       319        0.0000           -0.3351974              -9.1212
       320                         -0.3276812              -8.9167
       321                         -0.3221189              -8.7653
       322                         -0.3206554              -8.7255
       323                         -0.3206059              -8.7241
       324                         -0.3196969              -8.6994
       325                         -0.3003439              -8.1728
       326                         -0.2930135              -7.9733
       327                         -0.2925477              -7.9606
       328                         -0.2901757              -7.8961
       ...                                ...                  ...
       671                          1.6124803              43.8778
      -------------------------------------------------------------
                  HL-Gap            0.0000368 Eh            0.0010 eV

Wiberg/Mayer (AO) data.
largest (>0.10) Wiberg bond orders for each atom

     #   Z sym  total        # sym  WBO       # sym  WBO       # sym  WBO
 ---------------------------------------------------------------------------
     1  29 Cu   2.194 --    39 N    0.506     7 N    0.506    19 N    0.504
                            26 N    0.504
     2   6 C    3.926 --    38 C    1.361     3 C    1.361    40 H    0.971
     3   6 C    3.918 --     2 C    1.361     7 N    1.228     4 C    1.173
     4   6 C    3.954 --     5 C    1.652     3 C    1.173    41 H    0.976
     5   6 C    3.958 --     4 C    1.652     6 C    1.175    42 H    0.973
     6   6 C    3.911 --     8 C    1.315     7 N    1.240     5 C    1.175
     7   7 N    3.243 --     6 C    1.240     3 C    1.228     1 Cu   0.506
     8   6 C    3.934 --    16 C    1.325     6 C    1.315     9 C    1.034
     9   6 C    3.988 --    15 C    1.381    10 C    1.380     8 C    1.034
    10   6 C    3.988 --    11 C    1.469     9 C    1.380    43 H    0.973
    11   6 C    3.990 --    10 C    1.469    12 C    1.354    44 H    0.972
    12   6 C    3.952 --    14 C    1.354    11 C    1.354    13 N    1.116
    13   7 N    3.134 --    12 C    1.116    46 H    0.933    45 H    0.933
    14   6 C    3.989 --    15 C    1.468    12 C    1.354    47 H    0.972
    15   6 C    3.988 --    14 C    1.468     9 C    1.381    48 H    0.973
    16   6 C    3.907 --     8 C    1.325    19 N    1.221    17 C    1.182
    17   6 C    3.954 --    18 C    1.639    16 C    1.182    49 H    0.973
    18   6 C    3.956 --    17 C    1.639    20 C    1.189    50 H    0.974
    19   7 N    3.247 --    20 C    1.257    16 C    1.221     1 Cu   0.504
    20   6 C    3.897 --    19 N    1.257    21 C    1.256    18 C    1.189
    21   6 C    3.936 --    20 C    1.256    22 C    1.256   121 C    1.192
    22   6 C    3.897 --    26 N    1.257    21 C    1.256    23 C    1.189
    23   6 C    3.956 --    24 C    1.639    22 C    1.189    51 H    0.974
    24   6 C    3.954 --    23 C    1.639    25 C    1.182    52 H    0.973
    25   6 C    3.907 --    27 C    1.325    26 N    1.221    24 C    1.182
    26   7 N    3.247 --    22 C    1.257    25 C    1.221     1 Cu   0.504
    27   6 C    3.934 --    25 C    1.325    35 C    1.315    28 C    1.033
    28   6 C    3.988 --    34 C    1.381    29 C    1.381    27 C    1.033
    29   6 C    3.988 --    30 C    1.469    28 C    1.381    53 H    0.973
    30   6 C    3.990 --    29 C    1.469    31 C    1.354    54 H    0.972
    31   6 C    3.952 --    33 C    1.354    30 C    1.354    32 N    1.116
    32   7 N    3.134 --    31 C    1.116    56 H    0.933    55 H    0.933
    33   6 C    3.989 --    34 C    1.468    31 C    1.354    57 H    0.972
    34   6 C    3.988 --    33 C    1.468    28 C    1.381    58 H    0.973
    35   6 C    3.911 --    27 C    1.315    39 N    1.240    36 C    1.175
    36   6 C    3.958 --    37 C    1.652    35 C    1.175    59 H    0.973
    37   6 C    3.954 --    36 C    1.652    38 C    1.173    60 H    0.976
    38   6 C    3.918 --     2 C    1.361    39 N    1.228    37 C    1.173
    39   7 N    3.243 --    35 C    1.240    38 C    1.228     1 Cu   0.506
    40   1 H    1.002 --     2 C    0.971
    41   1 H    0.998 --     4 C    0.976
    42   1 H    1.005 --     5 C    0.973
    43   1 H    1.005 --    10 C    0.973
    44   1 H    0.999 --    11 C    0.972
    45   1 H    0.961 --    13 N    0.933
    46   1 H    0.961 --    13 N    0.933
    47   1 H    0.999 --    14 C    0.972
    48   1 H    1.005 --    15 C    0.973
    49   1 H    1.006 --    17 C    0.973
    50   1 H    1.002 --    18 C    0.974
    51   1 H    1.002 --    23 C    0.974
    52   1 H    1.005 --    24 C    0.973
    53   1 H    1.005 --    29 C    0.973
    54   1 H    0.999 --    30 C    0.972
    55   1 H    0.960 --    32 N    0.933
    56   1 H    0.961 --    32 N    0.933
    57   1 H    0.999 --    33 C    0.972
    58   1 H    1.005 --    34 C    0.973
    59   1 H    1.005 --    36 C    0.973
    60   1 H    0.998 --    37 C    0.976
    61  29 Cu   2.191 --    99 N    0.506    67 N    0.506    79 N    0.503
                            86 N    0.503
    62   6 C    3.926 --    98 C    1.361    63 C    1.361   100 H    0.971
    63   6 C    3.918 --    62 C    1.361    67 N    1.228    64 C    1.173
    64   6 C    3.954 --    65 C    1.652    63 C    1.173   101 H    0.976
    65   6 C    3.958 --    64 C    1.652    66 C    1.175   102 H    0.973
    66   6 C    3.911 --    68 C    1.315    67 N    1.240    65 C    1.175
    67   7 N    3.243 --    66 C    1.240    63 C    1.228    61 Cu   0.506
    68   6 C    3.934 --    76 C    1.325    66 C    1.315    69 C    1.033
    69   6 C    3.988 --    75 C    1.381    70 C    1.381    68 C    1.033
    70   6 C    3.988 --    71 C    1.469    69 C    1.381   103 H    0.973
    71   6 C    3.990 --    70 C    1.469    72 C    1.354   104 H    0.972
    72   6 C    3.952 --    74 C    1.354    71 C    1.354    73 N    1.115
    73   7 N    3.134 --    72 C    1.115   106 H    0.933   105 H    0.933
    74   6 C    3.989 --    75 C    1.468    72 C    1.354   107 H    0.972
    75   6 C    3.988 --    74 C    1.468    69 C    1.381   108 H    0.973
    76   6 C    3.907 --    68 C    1.325    79 N    1.221    77 C    1.182
    77   6 C    3.955 --    78 C    1.639    76 C    1.182   109 H    0.973
    78   6 C    3.956 --    77 C    1.639    80 C    1.189   110 H    0.974
    79   7 N    3.247 --    80 C    1.258    76 C    1.221    61 Cu   0.503
    80   6 C    3.898 --    79 N    1.258    81 C    1.256    78 C    1.189
    81   6 C    3.936 --    82 C    1.256    80 C    1.256   136 C    1.192
    82   6 C    3.898 --    86 N    1.258    81 C    1.256    83 C    1.189
    83   6 C    3.956 --    84 C    1.639    82 C    1.189   111 H    0.974
    84   6 C    3.955 --    83 C    1.639    85 C    1.182   112 H    0.973
    85   6 C    3.907 --    87 C    1.325    86 N    1.221    84 C    1.182
    86   7 N    3.246 --    82 C    1.258    85 C    1.221    61 Cu   0.503
    87   6 C    3.934 --    85 C    1.325    95 C    1.315    88 C    1.033
    88   6 C    3.988 --    94 C    1.381    89 C    1.381    87 C    1.033
    89   6 C    3.988 --    90 C    1.469    88 C    1.381   113 H    0.973
    90   6 C    3.990 --    89 C    1.469    91 C    1.354   114 H    0.972
    91   6 C    3.952 --    90 C    1.354    93 C    1.354    92 N    1.116
    92   7 N    3.134 --    91 C    1.116   116 H    0.933   115 H    0.933
    93   6 C    3.989 --    94 C    1.468    91 C    1.354   117 H    0.972
    94   6 C    3.988 --    93 C    1.468    88 C    1.381   118 H    0.973
    95   6 C    3.911 --    87 C    1.315    99 N    1.240    96 C    1.175
    96   6 C    3.958 --    97 C    1.652    95 C    1.175   119 H    0.973
    97   6 C    3.954 --    96 C    1.652    98 C    1.173   120 H    0.976
    98   6 C    3.918 --    62 C    1.361    99 N    1.228    97 C    1.173
    99   7 N    3.243 --    95 C    1.240    98 C    1.228    61 Cu   0.506
   100   1 H    1.002 --    62 C    0.971
   101   1 H    0.998 --    64 C    0.976
   102   1 H    1.005 --    65 C    0.973
   103   1 H    1.005 --    70 C    0.973
   104   1 H    0.999 --    71 C    0.972
   105   1 H    0.961 --    73 N    0.933
   106   1 H    0.961 --    73 N    0.933
   107   1 H    0.999 --    74 C    0.972
   108   1 H    1.005 --    75 C    0.973
   109   1 H    1.006 --    77 C    0.973
   110   1 H    1.002 --    78 C    0.974
   111   1 H    1.002 --    83 C    0.974
   112   1 H    1.006 --    84 C    0.973
   113   1 H    1.005 --    89 C    0.973
   114   1 H    0.999 --    90 C    0.972
   115   1 H    0.961 --    92 N    0.933
   116   1 H    0.961 --    92 N    0.933
   117   1 H    0.999 --    93 C    0.972
   118   1 H    1.005 --    94 C    0.973
   119   1 H    1.005 --    96 C    0.973
   120   1 H    0.998 --    97 C    0.976
   121   6 C    3.877 --   122 C    2.438    21 C    1.192   124 C    0.186
   122   6 C    3.934 --   121 C    2.438   123 C    1.345
   123   6 C    3.892 --   124 C    2.334   122 C    1.345   126 C    0.182
   124   6 C    3.925 --   123 C    2.334   125 C    1.370   121 C    0.186
   125   6 C    3.924 --   126 C    2.334   124 C    1.370   128 C    0.186
   126   6 C    3.893 --   125 C    2.334   127 C    1.346   123 C    0.182
   127   6 C    3.932 --   128 C    2.435   126 C    1.346
   128   6 C    3.876 --   127 C    2.435   138 C    1.194   125 C    0.186
   129   6 C    3.876 --   130 C    2.436   157 C    1.194   132 C    0.186
   130   6 C    3.932 --   129 C    2.436   131 C    1.346
   131   6 C    3.893 --   132 C    2.334   130 C    1.346   134 C    0.182
   132   6 C    3.924 --   131 C    2.334   133 C    1.370   129 C    0.186
   133   6 C    3.925 --   134 C    2.335   132 C    1.370   136 C    0.186
   134   6 C    3.892 --   133 C    2.335   135 C    1.345   131 C    0.182
   135   6 C    3.934 --   136 C    2.438   134 C    1.345
   136   6 C    3.876 --   135 C    2.438    81 C    1.192   133 C    0.186
   137  29 Cu   2.159 --   175 N    0.498   143 N    0.498   155 N    0.498
                           162 N    0.498
   138   6 C    3.926 --   139 C    1.254   174 C    1.254   128 C    1.194
   139   6 C    3.898 --   143 N    1.260   138 C    1.254   140 C    1.189
   140   6 C    3.954 --   141 C    1.638   139 C    1.189   176 H    0.974
   141   6 C    3.955 --   140 C    1.638   142 C    1.183   177 H    0.973
   142   6 C    3.904 --   144 C    1.322   143 N    1.222   141 C    1.183
   143   7 N    3.240 --   139 C    1.260   142 C    1.222   137 Cu   0.498
   144   6 C    3.930 --   142 C    1.322   152 C    1.321   145 C    1.030
   145   6 C    3.988 --   146 C    1.382   151 C    1.382   144 C    1.030
   146   6 C    3.988 --   147 C    1.468   145 C    1.382   178 H    0.973
                           150 C    0.100
   147   6 C    3.990 --   146 C    1.468   148 C    1.354   179 H    0.972
                           151 C    0.100
   148   6 C    3.952 --   147 C    1.354   150 C    1.354   149 N    1.115
   149   7 N    3.134 --   148 C    1.115   180 H    0.934   181 H    0.933
   150   6 C    3.990 --   151 C    1.468   148 C    1.354   182 H    0.972
                           146 C    0.100
   151   6 C    3.988 --   150 C    1.468   145 C    1.382   183 H    0.973
                           147 C    0.100
   152   6 C    3.904 --   144 C    1.321   155 N    1.222   153 C    1.183
   153   6 C    3.955 --   154 C    1.638   152 C    1.183   184 H    0.973
   154   6 C    3.954 --   153 C    1.638   156 C    1.189   185 H    0.974
   155   7 N    3.240 --   156 C    1.260   152 C    1.222   137 Cu   0.498
   156   6 C    3.898 --   155 N    1.260   157 C    1.254   154 C    1.189
   157   6 C    3.926 --   156 C    1.254   158 C    1.254   129 C    1.194
   158   6 C    3.898 --   162 N    1.260   157 C    1.254   159 C    1.190
   159   6 C    3.954 --   160 C    1.638   158 C    1.190   186 H    0.974
   160   6 C    3.955 --   159 C    1.638   161 C    1.183   187 H    0.973
   161   6 C    3.904 --   163 C    1.321   162 N    1.222   160 C    1.183
   162   7 N    3.240 --   158 C    1.260   161 C    1.222   137 Cu   0.498
   163   6 C    3.930 --   171 C    1.322   161 C    1.321   164 C    1.031
   164   6 C    3.988 --   165 C    1.382   170 C    1.382   163 C    1.031
   165   6 C    3.988 --   166 C    1.468   164 C    1.382   188 H    0.973
   166   6 C    3.990 --   165 C    1.468   167 C    1.354   189 H    0.972
   167   6 C    3.952 --   169 C    1.354   166 C    1.354   168 N    1.115
   168   7 N    3.134 --   167 C    1.115   191 H    0.934   190 H    0.934
   169   6 C    3.990 --   170 C    1.468   167 C    1.354   192 H    0.972
   170   6 C    3.988 --   169 C    1.468   164 C    1.382   193 H    0.973
   171   6 C    3.904 --   163 C    1.322   175 N    1.222   172 C    1.183
   172   6 C    3.955 --   173 C    1.638   171 C    1.183   194 H    0.973
   173   6 C    3.954 --   172 C    1.638   174 C    1.189   195 H    0.974
   174   6 C    3.898 --   175 N    1.260   138 C    1.254   173 C    1.189
   175   7 N    3.240 --   174 C    1.260   171 C    1.222   137 Cu   0.498
   176   1 H    1.002 --   140 C    0.974
   177   1 H    1.005 --   141 C    0.973
   178   1 H    1.005 --   146 C    0.973
   179   1 H    0.999 --   147 C    0.972
   180   1 H    0.961 --   149 N    0.934
   181   1 H    0.961 --   149 N    0.933
   182   1 H    0.999 --   150 C    0.972
   183   1 H    1.005 --   151 C    0.973
   184   1 H    1.006 --   153 C    0.973
   185   1 H    1.002 --   154 C    0.974
   186   1 H    1.002 --   159 C    0.974
   187   1 H    1.006 --   160 C    0.973
   188   1 H    1.005 --   165 C    0.973
   189   1 H    0.999 --   166 C    0.972
   190   1 H    0.961 --   168 N    0.934
   191   1 H    0.961 --   168 N    0.934
   192   1 H    0.999 --   169 C    0.972
   193   1 H    1.005 --   170 C    0.973
   194   1 H    1.005 --   172 C    0.973
   195   1 H    1.002 --   173 C    0.974
 ---------------------------------------------------------------------------

           -------------------------------------------------
          | TOTAL ENERGY             -340.898220701221 Eh   |
          | GRADIENT NORM               0.000494495564 Eh/α |
          | HOMO-LUMO GAP               0.001002249741 eV   |
           -------------------------------------------------

 * finished run on 2022/07/30 at 07:48:04.837
