   * xtb version 6.5.1 (b24c23e) compiled by 'conda@728c89f4b128' on 2022-07-12
          program call               : xtb BSA_C4_3.xyz --gfn 1 --opt -T 48

   ID    Z sym.   atoms
    1    6 C      1-5, 7-11, 16-20, 22-27, 29-33, 38-43, 66-70, 72-76, 81-85,
                  87-92, 94-98, 103-108, 131-143, 145-149, 154-158, 160-165,
                  167-171, 176-181
    2    7 N      6, 21, 28, 44, 71, 86, 93, 109, 144, 159, 166, 182
    3   16 S      12, 34, 77, 99, 150, 172
    4    8 O      13-15, 35-37, 78-80, 100-102, 151-153, 173-175
    5    1 H      45-65, 110-130, 183-202
########################################################################
[WARNING] Please study the warnings concerning your input carefully
-1- prog_main_parseArguments: Unknown option '-T' provided
########################################################################

          :  Hamiltonian                  GFN1-xTB          :
 * total energy  :  -395.9538486 Eh     change        0.1146594E-07 Eh
 * total energy  :  -396.8794960 Eh     change       -0.9256474E+00 Eh
 * total energy  :  -397.1059971 Eh     change       -0.2265011E+00 Eh
 * total energy  :  -397.2255463 Eh     change       -0.1195492E+00 Eh
 * total energy  :  -397.2957423 Eh     change       -0.7019597E-01 Eh
 * total energy  :  -397.3391474 Eh     change       -0.4340512E-01 Eh
 * total energy  :  -397.3666105 Eh     change       -0.2746307E-01 Eh
 * total energy  :  -397.3861431 Eh     change       -0.1953264E-01 Eh
 * total energy  :  -397.4027221 Eh     change       -0.1657897E-01 Eh
 * total energy  :  -397.4143977 Eh     change       -0.1167561E-01 Eh
 * total energy  :  -397.4872685 Eh     change       -0.6594318E-05 Eh
 * total energy  :  -397.4872845 Eh     change       -0.1599606E-04 Eh
 * total energy  :  -397.4872992 Eh     change       -0.1466849E-04 Eh
 * total energy  :  -397.4873100 Eh     change       -0.1081961E-04 Eh
 * total energy  :  -397.4873189 Eh     change       -0.8910600E-05 Eh
 * total energy  :  -397.4873276 Eh     change       -0.8724593E-05 Eh
 * total energy  :  -397.4873339 Eh     change       -0.6305247E-05 Eh
 * total energy  :  -397.4873399 Eh     change       -0.5925647E-05 Eh
 * total energy  :  -397.4873426 Eh     change       -0.2697428E-05 Eh
   *** GEOMETRY OPTIMIZATION CONVERGED AFTER 94 ITERATIONS ***

 final structure:
================
202
 xtb: 6.5.1 (b24c23e)
C           29.51312052901632       -0.03004644788479        0.08648271155591
C           30.11052575929082       -1.24280877409008       -0.23031840648548
C           29.44733596868414       -2.47282064811187       -0.50168620844596
C           30.39933361627019       -3.41259969714902       -0.77777715225972
C           31.67556993251978       -2.78468702596605       -0.69176287383260
N           31.45056725808800       -1.48166676170481       -0.35108157852340
C           32.93255469504891       -3.36965058848995       -0.88067495021081
C           32.94428657741076       -4.79941388405456       -1.27411410203962
C           32.34231640595919       -5.20271380135243       -2.46899965730375
C           32.34753820149304       -6.53566460175436       -2.84513480998894
C           32.95616663670453       -7.45930683275245       -2.01098072943446
S           32.97137716996676       -9.14738940000325       -2.48386619251997
O           32.79516693273354       -9.28551052226521       -3.89999055530684
O           31.58973525891820       -9.60717488602215       -1.76319951277027
O           34.06043232420435       -9.83741391617976       -1.85900024548889
C           33.56315935682410       -7.09036080605884       -0.82145720866261
C           33.55501252006997       -5.75402737037378       -0.45692670694580
C           34.15714353928458       -2.71238641814952       -0.73237365385825
C           35.44742254418551       -3.33232151059738       -0.97911314244659
C           36.37796088968972       -2.38691565963330       -0.73565487530796
N           34.32460184892306       -1.41277871823141       -0.36810342182972
C           35.65529936326716       -1.18823098127238       -0.35463386000592
C           36.30244177865710        0.02032667199538       -0.03549026542068
C           35.68070041480299        1.23863734860555        0.29068438851886
C           36.33829861073332        2.45313149318366        0.62392061265926
C           35.38137489886853        3.39740654793011        0.87091856306656
C           34.10786782705963        2.78913345081402        0.68877809831365
N           34.34058056697488        1.48443150842780        0.34524544962650
C           32.85121572377057        3.37936310133763        0.86027308322939
C           32.83439094257184        4.81780691391941        1.21866631177646
C           33.38278411904617        5.76633698706821        0.35138707843394
C           33.36510014195366        7.11210368849512        0.67839251512013
C           32.79986029869884        7.49627000835470        1.88359373977482
S           32.76865945757418        9.19881261384201        2.29984659758641
O           32.84343148206737       10.01410644428850        1.12329247632292
O           34.20174333301036        9.28079588148729        3.06106339806413
O           31.73575585074528        9.46975492724350        3.25547467862141
C           32.24771602322031        6.57996649110408        2.76392542910548
C           32.26620933731707        5.23727886852019        2.42434259723082
C           31.62665672632922        2.71793644136937        0.71928803816274
C           30.32764365834577        3.35946518456088        0.85672083304831
C           29.40451084905807        2.40099142704368        0.64325143044021
C           30.13780947248064        1.17854215839098        0.36339222743563
N           31.47298052926836        1.40883544309494        0.41161177835925
H           28.42819528814760       -0.03550889139379        0.11317712944273
H           28.37788673320187       -2.60837977651266       -0.47991096636118
H           30.23841171172764       -4.45262660278574       -1.01085283946535
H           32.18188066278521       -0.79363963568145       -0.20624454503778
H           31.88402980586319       -4.46245167372094       -3.11448079113768
H           31.89361743048177       -6.85685246355549       -3.77421760959210
H           31.35885934108808      -10.50570235656956       -2.02868360568204
H           34.03440175296384       -7.83821953986407       -0.19617717393764
H           34.01308084431464       -5.44649878155446        0.47579917665724
H           35.59887216579876       -4.34794158420896       -1.30683044585026
H           37.45083026723047       -2.46363329953040       -0.80979413873747
H           37.40813105460482        2.57682887757043        0.67155400763306
H           35.54014468076526        4.42220205086949        1.16446210875126
H           33.61093439283967        0.80176437822109        0.16852909920358
H           33.80747282050890        5.44658763132428       -0.59308886734945
H           33.77571777278445        7.85656441705762        0.00790780277865
H           34.38234806688617       10.18884280142896        3.33310772875207
H           31.80979614632196        6.91569041497740        3.69551237168883
H           31.84996790108827        4.50304676418178        3.10409006309940
H           30.16884088851274        4.40352774410266        1.07323590206946
H           28.32919712117045        2.48379971016317        0.65722157345656
C           63.18013480809055        0.01286038215005        0.09441481539719
C           62.58376839096712        1.21142088225527        0.46300429440227
C           63.24813763470846        2.40190089445427        0.87258993062319
C           62.29678884487186        3.34682232340925        1.13299381093084
C           61.01987370839678        2.76683746702256        0.88090382619158
N           61.24374451331647        1.47761938771806        0.49061805413169
C           59.76324758288577        3.36649739553366        1.01967560876164
C           59.75072484312216        4.79119908749272        1.43041235409742
C           60.36301077307699        5.75944113308378        0.63019293906072
C           60.35847290167158        7.09159828839013        1.00922788832178
C           59.73998134453256        7.44240337219639        2.19826482762881
S           59.72787160953916        9.12731521795138        2.68254159223659
O           59.91977993646070        9.98850806522078        1.55244625908291
O           61.10162890619690        9.13418982906186        3.55019151541486
O           58.63117044331870        9.39058998691067        3.56594632544699
C           59.12135598932169        6.50646382233766        3.01120754724789
C           59.12882470664076        5.17761323849099        2.62050150616737
C           58.53874282969369        2.72958632521439        0.79918773653619
C           57.25000983234807        3.39345971448335        0.89028031207508
C           56.31849766366865        2.45828357883820        0.61320824422751
N           58.36975396961964        1.42550311553733        0.45214626388004
C           57.03910044584013        1.22861977537716        0.34317630279881
C           56.39021563654866        0.01974538860803        0.02775466579566
C           57.01093899589503       -1.20016922068366       -0.29447894925269
C           56.35276428991671       -2.41949911321537       -0.60813780897707
C           57.30877735853939       -3.35441040176785       -0.89186667498594
C           58.58209297341235       -2.73157505991814       -0.76623447360093
N           58.35051153674627       -1.43462446289314       -0.39391730739562
C           59.83814686045220       -3.31927766260920       -0.95137659413198
C           59.85312773609123       -4.73395997990544       -1.39411380466670
C           59.27458944137303       -5.09404610829859       -2.61419263345577
C           59.29371347002046       -6.41156173238624       -3.04070733782784
C           59.89085268731689       -7.36403319406148       -2.23089959548758
S           59.92788877195163       -9.03133362124863       -2.77109767046562
O           59.80964196874997       -9.10748746714812       -4.19762976925218
O           58.52193480817464       -9.52148229218755       -2.12062687702687
O           60.99125186948329       -9.75004732500535       -2.13327771230833
C           60.47207154063948       -7.03863597822151       -1.01608117584314
C           60.45163021372830       -5.71705065154954       -0.60178489112574
C           61.06379251878446       -2.67328087992055       -0.75730785015954
C           62.36171276287332       -3.28602915910434       -0.99789728191251
C           63.28587471106788       -2.35154904882883       -0.69938015146648
C           62.55409001948447       -1.16518370257812       -0.29022927368463
N           61.21884154437065       -1.39343131984142       -0.34483181663873
H           64.26530879250562        0.00650140289627        0.10760181660258
H           64.31787913515556        2.50635417786391        0.95813633314995
H           62.45870102209452        4.35489038161206        1.47860333451498
H           60.51183041844071        0.81518705066836        0.25683005116346
H           60.82890951593699        5.46644188678928       -0.30346622478933
H           60.82072412138934        7.85097598742795        0.39111095704302
H           61.34547138560390       10.03912161356881        3.77987159765994
H           58.64211197598496        6.81673530726610        3.93120773178859
H           58.66167905185230        4.42804320646167        3.24846836881118
H           57.10052759111179        4.43588531188904        1.12015867769471
H           55.24630520149587        2.56611978363606        0.57905977095656
H           55.28323315317201       -2.55454079848771       -0.61043323895001
H           57.14986479465980       -4.38736438524570       -1.15519991661943
H           59.08053284709429       -0.75230964686788       -0.21740139033361
H           58.82563543424802       -4.33148457071403       -3.23995835358105
H           58.86005323477636       -6.69888692840970       -3.99031069477679
H           58.35833418516442      -10.44671238027680       -2.34055444069223
H           60.93456189037320       -7.80782018922393       -0.41042750644434
H           60.89090042894018       -5.44348469465799        0.35037449665480
H           62.51936015541990       -4.28980102211799       -1.35808390001825
H           64.36080693995271       -2.42423341922671       -0.75037740164947
C           38.93361982449883        0.03946591219066       -0.04312625021708
C           37.71274567373652        0.02737274430391       -0.04338797916996
C           40.28607921713363        0.05044997205679       -0.03834889076074
C           41.50696598067989        0.06165637227677       -0.02578593278578
C           52.40683124603038        0.03130664636022        0.03084107190412
C           51.18578048784650        0.04250034297689        0.02907954517213
C           53.75913803090090        0.02252522309092        0.02577872003621
C           54.98016540314118        0.01986047806287        0.02415232544021
C           42.91635138992653        0.07249802873497       -0.01105950955860
C           43.54755944424628        0.78149374282557       -1.04846776900981
C           42.90566017449503        1.46248914099151       -2.11603750906795
C           43.87447304224207        2.03439991378309       -2.89337574051791
C           45.13792270644232        1.72524159155795       -2.31758816913178
N           44.88975602901810        0.95878016763134       -1.21134248188186
C           46.40054599446672        2.10289081721900       -2.78911701661556
C           46.42123147823968        2.96600772662254       -3.99576010458573
C           47.02744159062255        2.51649846031954       -5.17159432086202
C           47.04619548508474        3.31527495855736       -6.30296396922074
C           46.45560833504148        4.56711479676013       -6.24303051963684
S           46.48404666326274        5.58692343933150       -7.66888443392299
O           46.32793868098544        6.96736345680498       -7.31556560362507
O           45.09505719202910        5.08350835301592       -8.34489814304025
O           47.56658992177616        5.21920715753557       -8.53241835919075
C           45.85324133874317        5.04350722826260       -5.09003485084560
C           45.83605870193885        4.23431093772225       -3.96587808520689
C           47.62421284121868        1.73560204762807       -2.22489421568189
C           48.91211340590916        2.19860681286241       -2.71237968292967
C           49.84616050073406        1.62629809798207       -1.92578897132481
N           47.79585378464889        0.91919407905354       -1.15099138232643
C           49.12787840668721        0.82408418460376       -0.95452297117776
C           49.77654182934086        0.05442413380298        0.02901561692759
C           49.14476790488477       -0.70613069614526        1.02913666006648
C           49.78631537692398       -1.49112521884447        2.02295214121054
C           48.81748815401003       -2.03292216407605        2.82154978434144
C           47.55440500869905       -1.58872274437827        2.34124425494160
N           47.80249282276843       -0.80100163599419        1.25017686660316
C           46.29235820054937       -1.90285845412660        2.85889513149970
C           46.27305530813226       -2.73170419674012        4.08926688151905
C           45.66733103331008       -3.99059787613461        4.08549888554873
C           45.64543201728172       -4.76383713363212        5.23463069375515
C           46.23038139099571       -4.26146993768854        6.38559918938476
S           46.21182888942960       -5.23546208452729        7.84329678584733
O           46.02610467125659       -6.61979947159312        7.52398118419525
O           44.83479125536424       -4.66660478734365        8.48993002948313
O           47.29018475174634       -4.87264776093363        8.71580923449681
C           46.84166072636242       -3.01863277063756        6.41975757603446
C           46.86225324445573       -2.25623006721291        5.26366387356197
C           45.06816938145181       -1.49913577705036        2.32146253937271
C           43.77969727585840       -1.81020857261650        2.91628969068134
C           42.84568905559588       -1.26649232138048        2.10961305255945
C           43.56462920712033       -0.61237997177213        1.03346299319970
N           44.89671101874940       -0.76011354475480        1.19289156513243
H           41.83867016605925        1.50003593294935       -2.26500943263319
H           43.72951564411274        2.61123703529465       -3.79213094744539
H           45.60685994540205        0.57393858735340       -0.60565613814428
H           47.47409954040845        1.52954113903163       -5.19997783231433
H           47.51338868993788        2.97710802603429       -7.21931378622307
H           44.88654139327139        5.62232529311138       -9.11779205215704
H           45.41298030223503        6.03260942420500       -5.07438074222466
H           45.38141853078476        4.59343130171944       -3.04993165802958
H           49.05885212204219        2.87947432558494       -3.53496778197872
H           50.91863429769032        1.72672921907596       -1.97126901602700
H           50.85318396241898       -1.62094601117106        2.10650336204971
H           48.96173778904664       -2.69056651435210        3.66310372407807
H           47.08588248701628       -0.35212993146861        0.68965635596056
H           45.22549230864997       -4.36949607323557        3.17140377029028
H           45.18739429463430       -5.74490329777202        5.24054669361686
H           44.71419659142261       -5.01869149625653        9.38023811807166
H           47.29429662335594       -2.65919984457759        7.33534494855032
H           47.32472278599258       -1.27607608712227        5.27226364650392
H           43.63197079350071       -2.35863783146233        3.83235507665270
H           41.77285934766353       -1.28183687227418        2.21547231401520

          :  Hamiltonian                  GFN1-xTB          :
         :: total energy            -397.487342565517 Eh    ::
         :: gradient norm              0.000561205941 Eh/a0 ::
         :: HOMO-LUMO gap              1.083337528490 eV    ::
         :: SCC energy              -402.940658048146 Eh    ::
         :: repulsion energy           5.630233730228 Eh    ::

    * Orbital Energies and Occupations

         #    Occupation            Energy/Eh            Energy/eV
      -------------------------------------------------------------
         1        2.0000           -1.0376790             -28.2367
       ...           ...                  ...                  ...
       329        2.0000           -0.4364970             -11.8777
       330        2.0000           -0.4360205             -11.8647
       331        2.0000           -0.4351605             -11.8413
       332        2.0000           -0.4343138             -11.8183
       333        2.0000           -0.4340537             -11.8112
       334        2.0000           -0.4336140             -11.7992
       335        2.0000           -0.4325820             -11.7712
       336        2.0000           -0.4187264             -11.3941
       337        2.0000           -0.4174291             -11.3588
       338        2.0000           -0.4164907             -11.3333
       339        2.0000           -0.4041614             -10.9978
       340        2.0000           -0.4020631             -10.9407
       341        2.0000           -0.3987893             -10.8516 (HOMO)
       342                         -0.3589774              -9.7683 (LUMO)
       343                         -0.3537578              -9.6262
       344                         -0.3526064              -9.5949
       345                         -0.3517911              -9.5727
       346                         -0.3508059              -9.5459
       347                         -0.3498129              -9.5189
       348                         -0.3252746              -8.8512
       349                         -0.3211255              -8.7383
       350                         -0.3201095              -8.7106
       351                         -0.3113506              -8.4723
       352                         -0.3106439              -8.4531
       ...                                ...                  ...
       714                          1.4981400              40.7665
      -------------------------------------------------------------
                  HL-Gap            0.0398119 Eh            1.0833 eV

Wiberg/Mayer (AO) data.
largest (>0.10) Wiberg bond orders for each atom

     #   Z sym  total        # sym  WBO       # sym  WBO       # sym  WBO
 ---------------------------------------------------------------------------
     1   6 C    3.930 --    43 C    1.367     2 C    1.348    45 H    0.970
     2   6 C    3.900 --     1 C    1.348     3 C    1.227     6 N    1.169
     3   6 C    3.955 --     4 C    1.599     2 C    1.227    46 H    0.976
     4   6 C    3.959 --     3 C    1.599     5 C    1.231    47 H    0.974
     5   6 C    3.899 --     7 C    1.304     4 C    1.231     6 N    1.179
     6   7 N    3.472 --     5 C    1.179     2 C    1.169    48 H    0.873
     7   6 C    3.938 --    18 C    1.331     5 C    1.304     8 C    1.031
     8   6 C    3.986 --    17 C    1.390     9 C    1.390     7 C    1.031
     9   6 C    3.986 --    10 C    1.450     8 C    1.390    49 H    0.971
                            16 C    0.106
    10   6 C    3.989 --     9 C    1.450    11 C    1.407    50 H    0.967
                            17 C    0.106
    11   6 C    3.930 --    16 C    1.407    10 C    1.407    12 S    0.754
    12  16 S    5.265 --    15 O    1.723    13 O    1.716    14 O    1.012
                            11 C    0.754
    13   8 O    2.075 --    12 S    1.716    15 O    0.139
    14   8 O    2.087 --    12 S    1.012    51 H    0.828
    15   8 O    2.082 --    12 S    1.723    13 O    0.139
    16   6 C    3.989 --    17 C    1.450    11 C    1.407    52 H    0.967
                             9 C    0.106
    17   6 C    3.987 --    16 C    1.450     8 C    1.390    53 H    0.971
                            10 C    0.106
    18   6 C    3.916 --     7 C    1.331    21 N    1.292    19 C    1.123
    19   6 C    3.966 --    20 C    1.713    18 C    1.123    54 H    0.973
    20   6 C    3.965 --    19 C    1.713    22 C    1.126    55 H    0.974
    21   7 N    3.024 --    22 C    1.336    18 C    1.292
    22   6 C    3.911 --    21 N    1.336    23 C    1.265    20 C    1.126
    23   6 C    3.940 --    22 C    1.265    24 C    1.260   132 C    1.172
    24   6 C    3.887 --    23 C    1.260    25 C    1.245    28 N    1.186
    25   6 C    3.959 --    26 C    1.587    24 C    1.245    56 H    0.974
    26   6 C    3.956 --    25 C    1.587    27 C    1.238    57 H    0.974
    27   6 C    3.899 --    29 C    1.309    26 C    1.238    28 N    1.168
    28   7 N    3.475 --    24 C    1.186    27 C    1.168    58 H    0.872
    29   6 C    3.926 --    40 C    1.320    27 C    1.309    30 C    1.031
    30   6 C    3.986 --    31 C    1.390    39 C    1.390    29 C    1.031
    31   6 C    3.985 --    32 C    1.450    30 C    1.390    59 H    0.971
                            38 C    0.106
    32   6 C    3.989 --    31 C    1.450    33 C    1.407    60 H    0.967
                            39 C    0.106
    33   6 C    3.929 --    38 C    1.407    32 C    1.407    34 S    0.754
    34  16 S    5.264 --    37 O    1.721    35 O    1.718    36 O    1.012
                            33 C    0.754
    35   8 O    2.077 --    34 S    1.718    37 O    0.139
    36   8 O    2.086 --    34 S    1.012    61 H    0.828
    37   8 O    2.080 --    34 S    1.721    35 O    0.139
    38   6 C    3.989 --    39 C    1.450    33 C    1.407    62 H    0.967
                            31 C    0.106
    39   6 C    3.986 --    38 C    1.450    30 C    1.390    63 H    0.971
                            32 C    0.106
    40   6 C    3.929 --    29 C    1.320    44 N    1.318    41 C    1.115
    41   6 C    3.967 --    42 C    1.726    40 C    1.115    64 H    0.973
    42   6 C    3.967 --    41 C    1.726    43 C    1.115    65 H    0.975
    43   6 C    3.927 --     1 C    1.367    44 N    1.299    42 C    1.115
    44   7 N    3.016 --    40 C    1.318    43 C    1.299
    45   1 H    1.001 --     1 C    0.970
    46   1 H    0.997 --     3 C    0.976
    47   1 H    1.003 --     4 C    0.974
    48   1 H    0.986 --     6 N    0.873
    49   1 H    1.003 --     9 C    0.971
    50   1 H    1.000 --    10 C    0.967
    51   1 H    0.854 --    14 O    0.828
    52   1 H    0.999 --    16 C    0.967
    53   1 H    1.003 --    17 C    0.971
    54   1 H    1.004 --    19 C    0.973
    55   1 H    1.002 --    20 C    0.974
    56   1 H    1.002 --    25 C    0.974
    57   1 H    1.003 --    26 C    0.974
    58   1 H    0.987 --    28 N    0.872
    59   1 H    1.003 --    31 C    0.971
    60   1 H    0.999 --    32 C    0.967
    61   1 H    0.854 --    36 O    0.828
    62   1 H    0.999 --    38 C    0.967
    63   1 H    1.003 --    39 C    0.971
    64   1 H    1.004 --    41 C    0.973
    65   1 H    0.998 --    42 C    0.975
    66   6 C    3.930 --   108 C    1.367    67 C    1.348   110 H    0.970
    67   6 C    3.900 --    66 C    1.348    68 C    1.227    71 N    1.169
    68   6 C    3.955 --    69 C    1.599    67 C    1.227   111 H    0.976
    69   6 C    3.959 --    68 C    1.599    70 C    1.231   112 H    0.974
    70   6 C    3.899 --    72 C    1.304    69 C    1.231    71 N    1.179
    71   7 N    3.472 --    70 C    1.179    67 C    1.169   113 H    0.873
    72   6 C    3.938 --    83 C    1.331    70 C    1.304    73 C    1.031
    73   6 C    3.986 --    74 C    1.390    82 C    1.390    72 C    1.031
    74   6 C    3.986 --    75 C    1.450    73 C    1.390   114 H    0.971
                            81 C    0.106
    75   6 C    3.989 --    74 C    1.450    76 C    1.407   115 H    0.967
                            82 C    0.106
    76   6 C    3.929 --    75 C    1.407    81 C    1.407    77 S    0.754
    77  16 S    5.265 --    80 O    1.724    78 O    1.716    79 O    1.012
                            76 C    0.754
    78   8 O    2.075 --    77 S    1.716    80 O    0.139
    79   8 O    2.087 --    77 S    1.012   116 H    0.828
    80   8 O    2.082 --    77 S    1.724    78 O    0.139
    81   6 C    3.989 --    82 C    1.450    76 C    1.407   117 H    0.967
                            74 C    0.106
    82   6 C    3.987 --    81 C    1.450    73 C    1.390   118 H    0.971
                            75 C    0.106
    83   6 C    3.916 --    72 C    1.331    86 N    1.292    84 C    1.123
    84   6 C    3.966 --    85 C    1.713    83 C    1.123   119 H    0.973
    85   6 C    3.965 --    84 C    1.713    87 C    1.126   120 H    0.974
    86   7 N    3.024 --    87 C    1.337    83 C    1.292
    87   6 C    3.911 --    86 N    1.337    88 C    1.264    85 C    1.126
    88   6 C    3.940 --    87 C    1.264    89 C    1.260   138 C    1.173
    89   6 C    3.887 --    88 C    1.260    90 C    1.245    93 N    1.186
    90   6 C    3.959 --    91 C    1.587    89 C    1.245   121 H    0.975
    91   6 C    3.956 --    90 C    1.587    92 C    1.238   122 H    0.974
    92   6 C    3.899 --    94 C    1.308    91 C    1.238    93 N    1.168
    93   7 N    3.476 --    89 C    1.186    92 C    1.168   123 H    0.872
    94   6 C    3.926 --   105 C    1.320    92 C    1.308    95 C    1.032
    95   6 C    3.986 --   104 C    1.390    96 C    1.390    94 C    1.032
    96   6 C    3.985 --    97 C    1.451    95 C    1.390   124 H    0.971
                           103 C    0.106
    97   6 C    3.989 --    96 C    1.451    98 C    1.407   125 H    0.967
                           104 C    0.106
    98   6 C    3.929 --   103 C    1.407    97 C    1.407    99 S    0.754
    99  16 S    5.264 --   102 O    1.720   100 O    1.719   101 O    1.012
                            98 C    0.754
   100   8 O    2.078 --    99 S    1.719   102 O    0.139
   101   8 O    2.086 --    99 S    1.012   126 H    0.828
   102   8 O    2.079 --    99 S    1.720   100 O    0.139
   103   6 C    3.989 --   104 C    1.450    98 C    1.407   127 H    0.967
                            96 C    0.106
   104   6 C    3.986 --   103 C    1.450    95 C    1.390   128 H    0.971
                            97 C    0.106
   105   6 C    3.929 --    94 C    1.320   109 N    1.318   106 C    1.115
   106   6 C    3.967 --   107 C    1.726   105 C    1.115   129 H    0.973
   107   6 C    3.967 --   106 C    1.726   108 C    1.115   130 H    0.975
   108   6 C    3.927 --    66 C    1.367   109 N    1.299   107 C    1.115
   109   7 N    3.016 --   105 C    1.318   108 C    1.299
   110   1 H    1.001 --    66 C    0.970
   111   1 H    0.997 --    68 C    0.976
   112   1 H    1.003 --    69 C    0.974
   113   1 H    0.986 --    71 N    0.873
   114   1 H    1.003 --    74 C    0.971
   115   1 H    1.000 --    75 C    0.967
   116   1 H    0.854 --    79 O    0.828
   117   1 H    0.999 --    81 C    0.967
   118   1 H    1.003 --    82 C    0.971
   119   1 H    1.004 --    84 C    0.973
   120   1 H    1.002 --    85 C    0.974
   121   1 H    1.001 --    90 C    0.975
   122   1 H    1.003 --    91 C    0.974
   123   1 H    0.987 --    93 N    0.872
   124   1 H    1.003 --    96 C    0.971
   125   1 H    0.999 --    97 C    0.967
   126   1 H    0.854 --   101 O    0.828
   127   1 H    0.999 --   103 C    0.967
   128   1 H    1.003 --   104 C    0.971
   129   1 H    1.004 --   106 C    0.973
   130   1 H    0.998 --   107 C    0.975
   131   6 C    3.932 --   132 C    2.491   133 C    1.293
   132   6 C    3.918 --   131 C    2.491    23 C    1.172   134 C    0.196
   133   6 C    3.929 --   134 C    2.490   131 C    1.293
   134   6 C    3.919 --   133 C    2.490   139 C    1.174   132 C    0.196
   135   6 C    3.929 --   136 C    2.489   137 C    1.294
   136   6 C    3.920 --   135 C    2.489   161 C    1.175   138 C    0.196
   137   6 C    3.932 --   138 C    2.490   135 C    1.294
   138   6 C    3.918 --   137 C    2.490    88 C    1.173   136 C    0.196
   139   6 C    3.931 --   181 C    1.264   140 C    1.257   134 C    1.174
   140   6 C    3.888 --   139 C    1.257   141 C    1.248   144 N    1.186
   141   6 C    3.957 --   142 C    1.583   140 C    1.248   183 H    0.975
   142   6 C    3.956 --   141 C    1.583   143 C    1.241   184 H    0.974
   143   6 C    3.895 --   145 C    1.302   142 C    1.241   144 N    1.169
   144   7 N    3.473 --   140 C    1.186   143 C    1.169   185 H    0.873
   145   6 C    3.928 --   156 C    1.333   143 C    1.302   146 C    1.029
   146   6 C    3.986 --   155 C    1.391   147 C    1.390   145 C    1.029
   147   6 C    3.987 --   148 C    1.450   146 C    1.390   186 H    0.971
                           154 C    0.106
   148   6 C    3.989 --   147 C    1.450   149 C    1.407   187 H    0.967
                           155 C    0.106
   149   6 C    3.930 --   154 C    1.408   148 C    1.407   150 S    0.754
   150  16 S    5.265 --   153 O    1.723   151 O    1.717   152 O    1.012
                           149 C    0.754
   151   8 O    2.077 --   150 S    1.717   153 O    0.139
   152   8 O    2.086 --   150 S    1.012   188 H    0.828
   153   8 O    2.081 --   150 S    1.723   151 O    0.139
   154   6 C    3.989 --   155 C    1.450   149 C    1.408   189 H    0.967
                           147 C    0.106
   155   6 C    3.986 --   154 C    1.450   146 C    1.391   190 H    0.971
                           148 C    0.106
   156   6 C    3.918 --   145 C    1.333   159 N    1.291   157 C    1.122
   157   6 C    3.967 --   158 C    1.713   156 C    1.122   191 H    0.973
   158   6 C    3.965 --   157 C    1.713   160 C    1.126   192 H    0.974
   159   7 N    3.014 --   160 C    1.336   156 C    1.291
   160   6 C    3.911 --   159 N    1.336   161 C    1.264   158 C    1.126
   161   6 C    3.931 --   160 C    1.264   162 C    1.257   136 C    1.175
   162   6 C    3.887 --   161 C    1.257   163 C    1.249   166 N    1.186
   163   6 C    3.957 --   164 C    1.583   162 C    1.249   193 H    0.975
   164   6 C    3.956 --   163 C    1.583   165 C    1.241   194 H    0.974
   165   6 C    3.896 --   167 C    1.301   164 C    1.241   166 N    1.169
   166   7 N    3.473 --   162 C    1.186   165 C    1.169   195 H    0.873
   167   6 C    3.928 --   178 C    1.333   165 C    1.301   168 C    1.029
   168   6 C    3.986 --   169 C    1.391   177 C    1.390   167 C    1.029
   169   6 C    3.987 --   170 C    1.449   168 C    1.391   196 H    0.971
                           176 C    0.106
   170   6 C    3.989 --   169 C    1.449   171 C    1.408   197 H    0.967
                           177 C    0.106
   171   6 C    3.930 --   170 C    1.408   176 C    1.407   172 S    0.754
   172  16 S    5.265 --   173 O    1.723   175 O    1.716   174 O    1.013
                           171 C    0.754
   173   8 O    2.081 --   172 S    1.723   175 O    0.139
   174   8 O    2.088 --   172 S    1.013   198 H    0.827
   175   8 O    2.075 --   172 S    1.716   173 O    0.139
   176   6 C    3.989 --   177 C    1.450   171 C    1.407   199 H    0.967
                           169 C    0.106
   177   6 C    3.986 --   176 C    1.450   168 C    1.390   200 H    0.971
                           170 C    0.106
   178   6 C    3.918 --   167 C    1.333   182 N    1.291   179 C    1.122
   179   6 C    3.967 --   180 C    1.713   178 C    1.122   201 H    0.973
   180   6 C    3.965 --   179 C    1.713   181 C    1.126   202 H    0.974
   181   6 C    3.911 --   182 N    1.336   139 C    1.264   180 C    1.126
   182   7 N    3.014 --   181 C    1.336   178 C    1.291
   183   1 H    1.001 --   141 C    0.975
   184   1 H    1.003 --   142 C    0.974
   185   1 H    0.986 --   144 N    0.873
   186   1 H    1.003 --   147 C    0.971
   187   1 H    0.999 --   148 C    0.967
   188   1 H    0.854 --   152 O    0.828
   189   1 H    0.999 --   154 C    0.967
   190   1 H    1.003 --   155 C    0.971
   191   1 H    1.003 --   157 C    0.973
   192   1 H    1.002 --   158 C    0.974
   193   1 H    1.001 --   163 C    0.975
   194   1 H    1.003 --   164 C    0.974
   195   1 H    0.987 --   166 N    0.873
   196   1 H    1.003 --   169 C    0.971
   197   1 H    0.999 --   170 C    0.967
   198   1 H    0.854 --   174 O    0.827
   199   1 H    0.999 --   176 C    0.967
   200   1 H    1.003 --   177 C    0.971
   201   1 H    1.004 --   179 C    0.973
   202   1 H    1.002 --   180 C    0.974
 ---------------------------------------------------------------------------

           -------------------------------------------------
          | TOTAL ENERGY             -397.487342565517 Eh   |
          | GRADIENT NORM               0.000561205941 Eh/α |
          | HOMO-LUMO GAP               1.083337528490 eV   |
           -------------------------------------------------

 * finished run on 2022/07/31 at 13:07:33.614
