   * xtb version 6.5.1 (b24c23e) compiled by 'conda@728c89f4b128' on 2022-07-12
          program call               : xtb NMA_C2_3.xyz --gfn 1 --opt -T 48

   ID    Z sym.   atoms
    1    6 C      1-5, 7-11, 13-18, 20-25, 27-31, 33-39, 68-72, 74-78, 80-85,
                  87-92, 94-98, 100-106, 135-143, 145-149, 151-156, 158-163,
                  165-169, 171-177
    2    7 N      6, 12, 19, 26, 32, 40, 73, 79, 86, 93, 99, 107, 144, 150,
                  157, 164, 170, 178
    3    1 H      41-67, 108-134, 179-204

          :  Hamiltonian                  GFN1-xTB          :
 * total energy  :  -323.8869745 Eh     change       -0.4072092E-08 Eh
 * total energy  :  -324.0189635 Eh     change       -0.1319889E+00 Eh
 * total energy  :  -324.1101366 Eh     change       -0.9117313E-01 Eh
 * total energy  :  -324.1603035 Eh     change       -0.5016689E-01 Eh
 * total energy  :  -324.2100573 Eh     change       -0.4975382E-01 Eh
 * total energy  :  -324.2476898 Eh     change       -0.3763255E-01 Eh
 * total energy  :  -324.2780169 Eh     change       -0.3032706E-01 Eh
 * total energy  :  -324.3066014 Eh     change       -0.2858448E-01 Eh
 * total energy  :  -324.3320981 Eh     change       -0.2549670E-01 Eh
 * total energy  :  -324.3546148 Eh     change       -0.2251670E-01 Eh
 * total energy  :  -324.5322891 Eh     change       -0.1461196E-04 Eh
 * total energy  :  -324.5323013 Eh     change       -0.1222477E-04 Eh
 * total energy  :  -324.5323127 Eh     change       -0.1133615E-04 Eh
 * total energy  :  -324.5323259 Eh     change       -0.1323709E-04 Eh
 * total energy  :  -324.5323430 Eh     change       -0.1708047E-04 Eh
 * total energy  :  -324.5323635 Eh     change       -0.2048293E-04 Eh
 * total energy  :  -324.5323694 Eh     change       -0.5943666E-05 Eh
 * total energy  :  -324.5323781 Eh     change       -0.8718284E-05 Eh
 * total energy  :  -324.5323810 Eh     change       -0.2902518E-05 Eh
   *** GEOMETRY OPTIMIZATION CONVERGED AFTER 154 ITERATIONS ***

 final structure:
================
204
 xtb: 6.5.1 (b24c23e)
C           36.06567370081528        0.31008613640668       -0.02239068351788
C           36.68096223316434        0.46388389917676       -1.25830156305955
C           36.03565825903030        0.60860630085168       -2.51756767101652
C           37.00376632826392        0.70464184325981       -3.47804804167971
C           38.27179689395725        0.63594764084780       -2.83459377865194
N           38.02590868911285        0.48419261755829       -1.49898670950097
C           39.53882404082731        0.69593836966597       -3.42794523755712
C           39.57894198634626        0.89612401268782       -4.89484486777530
C           40.21098516860499       -0.03603368971848       -5.72044456487602
C           40.23614562598843        0.12481011638730       -7.09503727747366
C           39.62484348164367        1.23586023205423       -7.68313144484497
N           39.66188724452459        1.47083014405938       -9.05013202645762
C           39.82310269092137        0.34977247144596       -9.96663378059390
C           39.00706720397504        2.18405750775283       -6.85865725456372
C           38.98008900003394        2.01141615572159       -5.48755247033678
C           40.75018139441709        0.57650197126626       -2.74040690910251
C           42.04838429495853        0.76472818173747       -3.36087629462306
C           42.96662983774204        0.58052059470896       -2.38948703923064
N           40.90231165411662        0.30079147578409       -1.41530074132453
C           42.23052739791093        0.27939471201457       -1.17817023304568
C           42.86430641039563        0.01406994396423        0.05361760398966
C           42.21622497808609       -0.20807760699819        1.28447209634363
C           42.84643128856590       -0.45683212641113        2.53109832009793
C           41.87263084422641       -0.57097271157139        3.48457482300573
C           40.61295277815597       -0.41049620827759        2.84571046968582
N           40.87240180512382       -0.19552297298177        1.51709891326011
C           39.35039800153772       -0.42225019495379        3.45074139657170
C           39.31097500808804       -0.66446627192677        4.91182734809826
C           38.76263741306688        0.28595069094635        5.77521991179859
C           38.72791371576012        0.07612987754316        7.14319677003239
C           39.24466700767258       -1.10395077452483        7.68556959798778
N           39.18598986005814       -1.39064431461198        9.04204963924523
C           39.10991234240487       -0.30002290480687       10.00494701460107
C           39.78278752420732       -2.06657799794796        6.82294662192046
C           39.82004326527337       -1.84549054594368        5.45899338353749
C           38.14001573136136       -0.22193533051357        2.77793238681732
C           36.83211658962129       -0.30636232871583        3.40878439310302
C           35.92309450583144       -0.09578908255245        2.43525737890994
C           36.67384518377893        0.10598735330201        1.20912985390893
N           38.00504092661469        0.02487471822844        1.45329112976384
H           34.98051751421792        0.33266281900738       -0.03305950581959
H           34.96662326519085        0.62486305441849       -2.65891093710233
H           36.85588145696157        0.80159506095907       -4.54140250878469
H           38.74614280488921        0.38078371923664       -0.79209815219778
H           40.67161523315671       -0.91270218977160       -5.27812353941349
H           40.73250554819982       -0.61957660131064       -7.70549733386238
H           38.94262484264296        2.11592767411965       -9.35470544736240
H           39.09533997780488       -0.44437361556205       -9.76381460797678
H           39.67852016815581        0.72045142096322      -10.98142232427815
H           40.83135280050769       -0.05828287674013       -9.88470739192498
H           38.54677798596339        3.05971654880640       -7.30427836395916
H           38.50739281723343        2.76078222287662       -4.86186932538518
H           42.21356341096523        1.02941185428781       -4.39273172418225
H           44.03928355809540        0.65597815177203       -2.45980104138939
H           43.91117535931992       -0.53449011370804        2.67558761965862
H           42.01468593856337       -0.73966681740439        4.53953422553223
H           40.15837926344472       -0.03289278780769        0.81462062558198
H           38.37579229113143        1.21410568130221        5.36865598237680
H           38.29706133082696        0.83579517816783        7.78381750526650
H           39.85135498496908       -2.10246497348716        9.31916237944136
H           38.14000218878618        0.19389415836499        9.93461949781228
H           39.90336812323214        0.43831869828912        9.84148586397836
H           39.21306261263921       -0.72467795292799       11.00353898419467
H           40.17130911968970       -2.99289295708872        7.23305885638464
H           40.22915520666163       -2.60625814870966        4.80308180819556
H           36.65626016711107       -0.51875269603509        4.45110030804659
H           34.84657358190725       -0.08478237416328        2.50656951120217
C           64.64088317307689        0.25440049751021       -0.14694395314563
C           64.06210389061475        0.46841650154817        1.09756958700314
C           64.74322631135081        0.67040688731152        2.32967228099689
C           63.80285809102414        0.81685562899926        3.31111728638907
C           62.51700736934256        0.72326900128216        2.70741071650843
N           62.72451389754796        0.50576539264551        1.37452949813487
C           61.26765143042701        0.82131782684746        3.33240295980230
C           61.27282877072756        1.09454024385388        4.78821492970844
C           60.66711306028972        0.20575461564846        5.67869685564573
C           60.68996686902341        0.43247632862594        7.04403727089569
C           61.32375859833869        1.56811015526338        7.55653762309755
N           61.33669855847091        1.86754216592166        8.91122075301975
C           61.21340468608221        0.79115893688622        9.88548235895810
C           61.91311072145221        2.47429461235696        6.66651003283059
C           61.89278462680038        2.23567993906271        5.30527007845100
C           60.03623978962302        0.67658623920413        2.68712201144971
C           58.75863580089435        0.90787237389948        3.33501971468042
C           57.81075595437890        0.68184613209604        2.40183899565166
N           59.84246845874215        0.33344498503873        1.38314978874237
C           58.50754301694194        0.31007490744926        1.18710140603315
C           57.83571058921761       -0.02201683546188       -0.00790602568860
C           58.44871631950900       -0.32173135484305       -1.24071473750059
C           57.78396496333640       -0.64725220213538       -2.45128374833977
C           58.73010798485798       -0.81235281535365       -3.42489282750184
C           60.00694267547392       -0.60854989785594       -2.83425039505860
N           59.78514882937403       -0.31920225726769       -1.51280830010997
C           61.25059658373389       -0.64596193511050       -3.47580105708094
C           61.24907706295105       -0.95770135606722       -4.92436886440893
C           61.76390728095576       -0.04414032769002       -5.84620302200926
C           61.76653280447067       -0.31917959892968       -7.20294834534421
C           61.25030083879260       -1.52952823628142       -7.67446775144362
N           61.28054507276187       -1.88176852046447       -9.01627411297715
C           61.32798605259509       -0.83936085009532      -10.03285555922104
C           60.74375447388644       -2.45423997677954       -6.75318014722627
C           60.73857837283359       -2.16823452663716       -5.40077918165871
C           62.48059320329103       -0.40926643418285       -2.85197961693845
C           63.76810976971909       -0.52185574320545       -3.51961933740801
C           64.70712543287038       -0.26509786961456       -2.58655822206595
C           63.99520299035845       -0.00644989593213       -1.34811747043944
N           62.65691521452123       -0.09929978219532       -1.54581109032868
H           65.72586214640491        0.27526816080083       -0.16965298139141
H           65.81587640524273        0.68870819411026        2.43980406696152
H           63.98075981662337        0.96413476745043        4.36403369688367
H           61.98488960012769        0.37170764920701        0.69333509198720
H           60.18938368007377       -0.68909972018743        5.29483170331307
H           60.21380413898755       -0.27981544255127        7.70657849275898
H           62.06491280821247        2.52719857319517        9.15783349191069
H           61.93775255537888       -0.00918631667391        9.69521823952504
H           61.39190457610007        1.21075521194983       10.87553516906327
H           60.20506482241490        0.37625498941884        9.85907975154161
H           62.38963927747451        3.36892922772075        7.05349463456864
H           62.34512358391004        2.95203242664546        4.62806007791790
H           58.62661226331517        1.22635055292205        4.35638262584463
H           56.74146470638548        0.77022125980084        2.49953198510363
H           56.71624864598012       -0.74096558524235       -2.55913279028643
H           58.55825052911044       -1.04394228955037       -4.46334752718637
H           60.51799372966179       -0.11259588104269       -0.84199847304934
H           62.15070968913871        0.90616922627454       -5.49445797340213
H           62.17260459912061        0.41306012240363       -7.88999383800172
H           60.61495542799605       -2.61078865402953       -9.24350492723005
H           62.29574473810711       -0.33683702136231      -10.00814806265043
H           60.53314032248497       -0.09857893619459       -9.88839822542696
H           61.20626778562809       -1.31317931616859      -11.00693748601215
H           60.35534526728595       -3.40299552887720       -7.10840893444923
H           60.35480106437665       -2.90050769455249       -4.69874832537242
H           63.91136417890740       -0.78275530133219       -4.55587591878613
H           65.78081187457124       -0.25644823885327       -2.69247029189429
C           44.27316007068545       -0.02017985747303        0.07041838076775
C           45.49085684680252       -0.05508248317086        0.07636100163240
C           55.20859307604161       -0.07756366851480        0.03060363361836
C           56.42651639187503       -0.04671710088509        0.01179233491315
C           46.89897305269589       -0.07343506924255        0.07399777679543
C           47.53912724711653        0.05464666859494        1.32203088209601
C           46.90835998188087        0.17773232465379        2.58558403182505
C           47.88317489516768        0.19188011342317        3.54560999006529
C           49.14207714623765        0.09528994278613        2.89379354405864
N           48.88348834358359        0.02182072754583        1.55068832213143
C           50.40125789955373        0.01959456289979        3.50342211740119
C           50.41323211372730        0.07141624328718        4.98640948187005
C           50.88832774212076       -1.00839825736212        5.73497083811189
C           50.88240836152150       -0.96729987805088        7.11664687785940
C           50.40370275754135        0.16123568855510        7.79280670418741
N           50.46531586574373        0.17805657359763        9.17970894727588
C           49.55406901270353        1.03575512247221        9.92619200771367
C           49.94423550790692        1.25111354030253        7.04842631598388
C           49.94417591257746        1.19732045201992        5.66471702105908
C           51.62329544651929       -0.09632487088195        2.83855689051766
C           52.90613616620541       -0.13857823916372        3.51661056955816
C           53.84749587717837       -0.18272649528807        2.55135618094350
N           51.80830240315099       -0.11512498389147        1.48939668353690
C           53.14235797365677       -0.15159287748549        1.28682753570068
C           53.80042060083328       -0.10955462183511        0.04110418756433
C           53.15833909493383       -0.08139178201359       -1.21355555966304
C           53.78151224981613        0.05121393739392       -2.47942420925282
C           52.80580646488485        0.00725183543782       -3.43848669617642
C           51.55597627125250       -0.15752626407745       -2.78427082720659
N           51.81756460468166       -0.18751760245483       -1.44016842412376
C           50.29614455211251       -0.27079742077132       -3.38899505517624
C           50.27803807746888       -0.32792476178501       -4.86842740723252
C           49.55082662728360        0.60667330617167       -5.60892797808575
C           49.53347508862615        0.56825387994574       -6.99235762575455
C           50.23646995461826       -0.42807555043877       -7.67596197019494
N           50.29154843349518       -0.48644835339068       -9.06077027288558
C           49.21591404259728        0.09917335604150       -9.84959166598486
C           50.96993174586617       -1.36608571110082       -6.93892083582376
C           50.99228220622527       -1.31224493372378       -5.55823956057317
C           49.07495315242411       -0.32415101608228       -2.71327561422004
C           47.80018630086952       -0.55280687663839       -3.36825733035623
C           46.85813169882505       -0.49129472841508       -2.40368035809289
C           47.55780558649548       -0.23214242487315       -1.16265629019507
N           48.88848905572331       -0.16300932694101       -1.37399027496921
H           45.84364476264522        0.24050111460182        2.73719858581757
H           47.74101590547021        0.25237274176593        4.61218778177351
H           49.59285877196969       -0.05932303881007        0.82987964478134
H           51.24437324838427       -1.89678761904002        5.22498865136625
H           51.24717413759309       -1.81577678158737        7.68603314973206
H           50.52600430676667       -0.75229084018100        9.57635944593697
H           48.51237734454769        0.87646779438983        9.62428559719297
H           49.66232854621067        0.80136548911144       10.98519961269008
H           49.81588648719589        2.08331416333659        9.77241289863248
H           49.58799934618050        2.14663119618299        7.54269121557915
H           49.59335387492237        2.05336040391783        5.09842118054403
H           53.04847031590057       -0.12072183756595        4.58488324985161
H           54.91810635119743       -0.23119564362129        2.66207087838277
H           54.83979835257635        0.18158708081184       -2.63257213378197
H           52.93945286018279        0.10052061999068       -4.50380556477618
H           51.11179399643341       -0.26549831598278       -0.71573283161370
H           49.00944536204278        1.39072972528960       -5.09079611722300
H           48.97361126938011        1.31982565042162       -7.53530423037780
H           50.56611880393392       -1.39969364606222       -9.40240292648588
H           49.23553326805789        1.18602231818816       -9.76000575666012
H           49.38043363149057       -0.16739649445342      -10.89366491493784
H           48.23472617448691       -0.27125696151287       -9.53113297950462
H           51.52147786241390       -2.14122467516822       -7.46067353069015
H           51.54916199410928       -2.05806416859958       -5.00133402517806
H           47.66642480093751       -0.75696506232018       -4.41829163768761
H           45.79337246920718       -0.62900572882897       -2.49739053346387

          :  Hamiltonian                  GFN1-xTB          :
         :: total energy            -324.532381022372 Eh    ::
         :: gradient norm              0.000915705937 Eh/a0 ::
         :: HOMO-LUMO gap              0.768025295122 eV    ::
         :: SCC energy              -329.694546427644 Eh    ::
         :: repulsion energy           5.333392433259 Eh    ::

    * Orbital Energies and Occupations

         #    Occupation            Energy/Eh            Energy/eV
      -------------------------------------------------------------
         1        2.0000           -0.7930262             -21.5793
       ...           ...                  ...                  ...
       285        2.0000           -0.4029393             -10.9645
       286        2.0000           -0.3933206             -10.7028
       287        2.0000           -0.3923322             -10.6759
       288        2.0000           -0.3918052             -10.6616
       289        2.0000           -0.3901391             -10.6162
       290        2.0000           -0.3895474             -10.6001
       291        2.0000           -0.3892586             -10.5923
       292        2.0000           -0.3882688             -10.5653
       293        2.0000           -0.3874639             -10.5434
       294        2.0000           -0.3867649             -10.5244
       295        2.0000           -0.3777154             -10.2782
       296        2.0000           -0.3713215             -10.1042
       297        2.0000           -0.3620979              -9.8532 (HOMO)
       298        0.0000           -0.3338735              -9.0852 (LUMO)
       299                         -0.3225649              -8.7774
       300                         -0.3194837              -8.6936
       301                         -0.3189039              -8.6778
       302                         -0.3187283              -8.6730
       303                         -0.3116547              -8.4806
       304                         -0.2898334              -7.8868
       305                         -0.2822026              -7.6791
       306                         -0.2771648              -7.5420
       307                         -0.2548442              -6.9347
       308                         -0.2547252              -6.9314
       ...                                ...                  ...
       656                          1.3436805              36.5634
      -------------------------------------------------------------
                  HL-Gap            0.0282244 Eh            0.7680 eV

Wiberg/Mayer (AO) data.
largest (>0.10) Wiberg bond orders for each atom

     #   Z sym  total        # sym  WBO       # sym  WBO       # sym  WBO
 ---------------------------------------------------------------------------
     1   6 C    3.921 --    39 C    1.366     2 C    1.344    41 H    0.971
     2   6 C    3.904 --     1 C    1.344     3 C    1.233     6 N    1.170
     3   6 C    3.951 --     4 C    1.590     2 C    1.233    42 H    0.977
     4   6 C    3.959 --     3 C    1.590     5 C    1.238    43 H    0.974
     5   6 C    3.894 --     7 C    1.299     4 C    1.238     6 N    1.176
     6   7 N    3.467 --     5 C    1.176     2 C    1.170    44 H    0.874
     7   6 C    3.938 --    16 C    1.331     5 C    1.299     8 C    1.037
     8   6 C    3.988 --     9 C    1.382    15 C    1.374     7 C    1.037
     9   6 C    3.986 --    10 C    1.465     8 C    1.382    45 H    0.972
    10   6 C    3.990 --     9 C    1.465    11 C    1.353    46 H    0.970
    11   6 C    3.951 --    10 C    1.353    14 C    1.346    12 N    1.108
    12   7 N    3.177 --    11 C    1.108    13 C    0.971    47 H    0.931
    13   6 C    3.968 --    49 H    0.990    50 H    0.986    48 H    0.984
                            12 N    0.971
    14   6 C    3.989 --    15 C    1.476    11 C    1.346    51 H    0.971
    15   6 C    3.987 --    14 C    1.476     8 C    1.374    52 H    0.973
    16   6 C    3.914 --     7 C    1.331    19 N    1.287    17 C    1.128
    17   6 C    3.965 --    18 C    1.705    16 C    1.128    53 H    0.974
    18   6 C    3.964 --    17 C    1.705    20 C    1.131    54 H    0.970
    19   7 N    3.019 --    20 C    1.342    16 C    1.287
    20   6 C    3.913 --    19 N    1.342    21 C    1.256    18 C    1.131
    21   6 C    3.935 --    20 C    1.256    22 C    1.252   135 C    1.184
    22   6 C    3.889 --    23 C    1.253    21 C    1.252    26 N    1.188
    23   6 C    3.959 --    24 C    1.577    22 C    1.253    55 H    0.969
    24   6 C    3.954 --    23 C    1.577    25 C    1.245    56 H    0.974
    25   6 C    3.897 --    27 C    1.305    24 C    1.245    26 N    1.165
    26   7 N    3.472 --    22 C    1.188    25 C    1.165    57 H    0.873
    27   6 C    3.923 --    36 C    1.320    25 C    1.305    28 C    1.035
    28   6 C    3.988 --    29 C    1.384    35 C    1.375    27 C    1.035
    29   6 C    3.987 --    30 C    1.464    28 C    1.384    58 H    0.972
    30   6 C    3.989 --    29 C    1.464    31 C    1.354    59 H    0.970
    31   6 C    3.952 --    30 C    1.354    34 C    1.346    32 N    1.108
    32   7 N    3.178 --    31 C    1.108    33 C    0.972    60 H    0.931
    33   6 C    3.968 --    63 H    0.990    61 H    0.986    62 H    0.984
                            32 N    0.972
    34   6 C    3.989 --    35 C    1.475    31 C    1.346    64 H    0.971
    35   6 C    3.986 --    34 C    1.475    28 C    1.375    65 H    0.973
    36   6 C    3.928 --    27 C    1.320    40 N    1.317    37 C    1.119
    37   6 C    3.967 --    38 C    1.720    36 C    1.119    66 H    0.973
    38   6 C    3.966 --    37 C    1.720    39 C    1.119    67 H    0.976
    39   6 C    3.930 --     1 C    1.366    40 N    1.300    38 C    1.119
    40   7 N    3.008 --    36 C    1.317    39 C    1.300
    41   1 H    1.002 --     1 C    0.971
    42   1 H    0.998 --     3 C    0.977
    43   1 H    1.006 --     4 C    0.974
    44   1 H    0.986 --     6 N    0.874
    45   1 H    1.006 --     9 C    0.972
    46   1 H    1.001 --    10 C    0.970
    47   1 H    0.966 --    12 N    0.931
    48   1 H    1.003 --    13 C    0.984
    49   1 H    1.007 --    13 C    0.990
    50   1 H    1.012 --    13 C    0.986
    51   1 H    0.999 --    14 C    0.971
    52   1 H    1.005 --    15 C    0.973
    53   1 H    1.005 --    17 C    0.974
    54   1 H    1.007 --    18 C    0.970
    55   1 H    1.007 --    23 C    0.969
    56   1 H    1.006 --    24 C    0.974
    57   1 H    0.988 --    26 N    0.873
    58   1 H    1.005 --    29 C    0.972
    59   1 H    1.001 --    30 C    0.970
    60   1 H    0.966 --    32 N    0.931
    61   1 H    1.012 --    33 C    0.986
    62   1 H    1.004 --    33 C    0.984
    63   1 H    1.007 --    33 C    0.990
    64   1 H    0.999 --    34 C    0.971
    65   1 H    1.005 --    35 C    0.973
    66   1 H    1.006 --    37 C    0.973
    67   1 H    0.999 --    38 C    0.976
    68   6 C    3.921 --   106 C    1.366    69 C    1.344   108 H    0.971
    69   6 C    3.904 --    68 C    1.344    70 C    1.233    73 N    1.170
    70   6 C    3.951 --    71 C    1.590    69 C    1.233   109 H    0.977
    71   6 C    3.959 --    70 C    1.590    72 C    1.238   110 H    0.974
    72   6 C    3.894 --    74 C    1.299    71 C    1.238    73 N    1.176
    73   7 N    3.467 --    72 C    1.176    69 C    1.170   111 H    0.874
    74   6 C    3.938 --    83 C    1.332    72 C    1.299    75 C    1.037
    75   6 C    3.988 --    76 C    1.383    82 C    1.374    74 C    1.037
    76   6 C    3.986 --    77 C    1.465    75 C    1.383   112 H    0.972
    77   6 C    3.990 --    76 C    1.465    78 C    1.353   113 H    0.970
    78   6 C    3.952 --    77 C    1.353    81 C    1.346    79 N    1.108
    79   7 N    3.178 --    78 C    1.108    80 C    0.971   114 H    0.932
    80   6 C    3.968 --   116 H    0.990   117 H    0.986   115 H    0.984
                            79 N    0.971
    81   6 C    3.989 --    82 C    1.476    78 C    1.346   118 H    0.971
    82   6 C    3.987 --    81 C    1.476    75 C    1.374   119 H    0.973
    83   6 C    3.914 --    74 C    1.332    86 N    1.287    84 C    1.128
    84   6 C    3.966 --    85 C    1.705    83 C    1.128   120 H    0.974
    85   6 C    3.964 --    84 C    1.705    87 C    1.131   121 H    0.968
    86   7 N    3.019 --    87 C    1.343    83 C    1.287
    87   6 C    3.913 --    86 N    1.343    88 C    1.256    85 C    1.131
    88   6 C    3.935 --    87 C    1.256    89 C    1.251   138 C    1.185
    89   6 C    3.889 --    90 C    1.253    88 C    1.251    93 N    1.189
    90   6 C    3.959 --    91 C    1.577    89 C    1.253   122 H    0.969
    91   6 C    3.954 --    90 C    1.577    92 C    1.245   123 H    0.974
    92   6 C    3.897 --    94 C    1.306    91 C    1.245    93 N    1.165
    93   7 N    3.472 --    89 C    1.189    92 C    1.165   124 H    0.873
    94   6 C    3.923 --   103 C    1.320    92 C    1.306    95 C    1.035
    95   6 C    3.988 --    96 C    1.383   102 C    1.375    94 C    1.035
    96   6 C    3.987 --    97 C    1.464    95 C    1.383   125 H    0.973
    97   6 C    3.989 --    96 C    1.464    98 C    1.354   126 H    0.970
    98   6 C    3.952 --    97 C    1.354   101 C    1.346    99 N    1.108
    99   7 N    3.178 --    98 C    1.108   100 C    0.972   127 H    0.931
   100   6 C    3.968 --   130 H    0.990   128 H    0.986   129 H    0.984
                            99 N    0.972
   101   6 C    3.989 --   102 C    1.475    98 C    1.346   131 H    0.971
   102   6 C    3.987 --   101 C    1.475    95 C    1.375   132 H    0.973
   103   6 C    3.928 --    94 C    1.320   107 N    1.318   104 C    1.119
   104   6 C    3.967 --   105 C    1.720   103 C    1.119   133 H    0.973
   105   6 C    3.966 --   104 C    1.720   106 C    1.119   134 H    0.976
   106   6 C    3.930 --    68 C    1.366   107 N    1.299   105 C    1.119
   107   7 N    3.008 --   103 C    1.318   106 C    1.299
   108   1 H    1.002 --    68 C    0.971
   109   1 H    0.998 --    70 C    0.977
   110   1 H    1.006 --    71 C    0.974
   111   1 H    0.986 --    73 N    0.874
   112   1 H    1.006 --    76 C    0.972
   113   1 H    1.001 --    77 C    0.970
   114   1 H    0.966 --    79 N    0.932
   115   1 H    1.004 --    80 C    0.984
   116   1 H    1.007 --    80 C    0.990
   117   1 H    1.012 --    80 C    0.986
   118   1 H    0.999 --    81 C    0.971
   119   1 H    1.005 --    82 C    0.973
   120   1 H    1.005 --    84 C    0.974
   121   1 H    1.007 --    85 C    0.968
   122   1 H    1.007 --    90 C    0.969
   123   1 H    1.006 --    91 C    0.974
   124   1 H    0.988 --    93 N    0.873
   125   1 H    1.005 --    96 C    0.973
   126   1 H    1.001 --    97 C    0.970
   127   1 H    0.966 --    99 N    0.931
   128   1 H    1.012 --   100 C    0.986
   129   1 H    1.003 --   100 C    0.984
   130   1 H    1.007 --   100 C    0.990
   131   1 H    0.999 --   101 C    0.971
   132   1 H    1.005 --   102 C    0.973
   133   1 H    1.006 --   104 C    0.973
   134   1 H    0.999 --   105 C    0.976
   135   6 C    3.929 --   136 C    2.567    21 C    1.184
   136   6 C    3.932 --   135 C    2.567   139 C    1.187
   137   6 C    3.932 --   138 C    2.567   159 C    1.187
   138   6 C    3.929 --   137 C    2.567    88 C    1.185
   139   6 C    3.922 --   177 C    1.253   140 C    1.249   136 C    1.187
   140   6 C    3.891 --   141 C    1.256   139 C    1.249   144 N    1.188
   141   6 C    3.955 --   142 C    1.572   140 C    1.256   179 H    0.969
   142   6 C    3.955 --   141 C    1.572   143 C    1.249   180 H    0.974
   143   6 C    3.893 --   145 C    1.297   142 C    1.249   144 N    1.166
   144   7 N    3.468 --   140 C    1.188   143 C    1.166   181 H    0.874
   145   6 C    3.925 --   154 C    1.338   143 C    1.297   146 C    1.029
   146   6 C    3.988 --   153 C    1.387   147 C    1.377   145 C    1.029
   147   6 C    3.988 --   148 C    1.474   146 C    1.377   182 H    0.973
   148   6 C    3.989 --   147 C    1.474   149 C    1.347   183 H    0.971
                           153 C    0.100
   149   6 C    3.953 --   152 C    1.355   148 C    1.347   150 N    1.106
   150   7 N    3.176 --   149 C    1.106   151 C    0.972   184 H    0.932
   151   6 C    3.968 --   186 H    0.990   187 H    0.986   185 H    0.984
                           150 N    0.972
   152   6 C    3.990 --   153 C    1.462   149 C    1.355   188 H    0.970
   153   6 C    3.987 --   152 C    1.462   146 C    1.387   189 H    0.973
                           148 C    0.100
   154   6 C    3.916 --   145 C    1.338   157 N    1.284   155 C    1.126
   155   6 C    3.966 --   156 C    1.706   154 C    1.126   190 H    0.973
   156   6 C    3.964 --   155 C    1.706   158 C    1.132   191 H    0.968
   157   7 N    3.005 --   158 C    1.342   154 C    1.284
   158   6 C    3.914 --   157 N    1.342   159 C    1.257   156 C    1.132
   159   6 C    3.921 --   158 C    1.257   160 C    1.245   137 C    1.187
   160   6 C    3.891 --   161 C    1.259   159 C    1.245   164 N    1.189
   161   6 C    3.955 --   162 C    1.569   160 C    1.259   192 H    0.969
   162   6 C    3.955 --   161 C    1.569   163 C    1.252   193 H    0.974
   163   6 C    3.893 --   165 C    1.292   162 C    1.252   164 N    1.167
   164   7 N    3.469 --   160 C    1.189   163 C    1.167   194 H    0.875
   165   6 C    3.926 --   174 C    1.334   163 C    1.292   166 C    1.040
   166   6 C    3.988 --   167 C    1.381   173 C    1.372   165 C    1.040
   167   6 C    3.987 --   168 C    1.466   166 C    1.381   195 H    0.972
   168   6 C    3.989 --   167 C    1.466   169 C    1.353   196 H    0.970
   169   6 C    3.951 --   168 C    1.353   172 C    1.345   170 N    1.109
   170   7 N    3.178 --   169 C    1.109   171 C    0.971   197 H    0.931
   171   6 C    3.968 --   199 H    0.990   198 H    0.986   200 H    0.984
                           170 N    0.971
   172   6 C    3.989 --   173 C    1.477   169 C    1.345   201 H    0.971
   173   6 C    3.986 --   172 C    1.477   166 C    1.372   202 H    0.973
   174   6 C    3.916 --   165 C    1.334   178 N    1.284   175 C    1.128
   175   6 C    3.966 --   176 C    1.703   174 C    1.128   203 H    0.974
   176   6 C    3.963 --   175 C    1.703   177 C    1.133   204 H    0.970
   177   6 C    3.914 --   178 N    1.344   139 C    1.253   176 C    1.133
   178   7 N    3.004 --   177 C    1.344   174 C    1.284
   179   1 H    1.007 --   141 C    0.969
   180   1 H    1.006 --   142 C    0.974
   181   1 H    0.988 --   144 N    0.874
   182   1 H    1.005 --   147 C    0.973
   183   1 H    0.999 --   148 C    0.971
   184   1 H    0.966 --   150 N    0.932
   185   1 H    1.004 --   151 C    0.984
   186   1 H    1.007 --   151 C    0.990
   187   1 H    1.012 --   151 C    0.986
   188   1 H    1.001 --   152 C    0.970
   189   1 H    1.005 --   153 C    0.973
   190   1 H    1.006 --   155 C    0.973
   191   1 H    1.007 --   156 C    0.968
   192   1 H    1.007 --   161 C    0.969
   193   1 H    1.005 --   162 C    0.974
   194   1 H    0.987 --   164 N    0.875
   195   1 H    1.006 --   167 C    0.972
   196   1 H    1.001 --   168 C    0.970
   197   1 H    0.966 --   170 N    0.931
   198   1 H    1.012 --   171 C    0.986
   199   1 H    1.007 --   171 C    0.990
   200   1 H    1.003 --   171 C    0.984
   201   1 H    0.999 --   172 C    0.971
   202   1 H    1.006 --   173 C    0.973
   203   1 H    1.006 --   175 C    0.974
   204   1 H    1.006 --   176 C    0.970
 ---------------------------------------------------------------------------

           -------------------------------------------------
          | TOTAL ENERGY             -324.532381022372 Eh   |
          | GRADIENT NORM               0.000915705937 Eh/α |
          | HOMO-LUMO GAP               0.768025295122 eV   |
           -------------------------------------------------

 * finished run on 2022/07/30 at 15:57:19.486
