   * xtb version 6.5.1 (b24c23e) compiled by 'conda@728c89f4b128' on 2022-07-12
          program call               : xtb Cu_p-CP_C8_2.xyz --gfn 1 --opt -T 48

   ID    Z sym.   atoms
    1   29 Cu     1, 63
    2    6 C      2-6, 8-11, 13-24, 27-32, 35-39, 42, 43, 64-68, 70-73,
                  75-86, 89-94, 97-101, 104, 105, 125-132
    3    7 N      7, 12, 33, 34, 69, 74, 95, 96
    4    8 O      25, 26, 40, 41, 87, 88, 102, 103
    5    1 H      44-62, 106-124
########################################################################
[WARNING] Please study the warnings concerning your input carefully
-1- prog_main_parseArguments: Unknown option '-T' provided
########################################################################

          :  Hamiltonian                  GFN1-xTB          :
 * total energy  :  -252.7672490 Eh     change       -0.3071818E-09 Eh
 * total energy  :  -253.0226488 Eh     change       -0.2553998E+00 Eh
 * total energy  :  -253.1048512 Eh     change       -0.8220237E-01 Eh
 * total energy  :  -253.1339893 Eh     change       -0.2913811E-01 Eh
 * total energy  :  -253.1449443 Eh     change       -0.1095501E-01 Eh
 * total energy  :  -253.1497780 Eh     change       -0.4833704E-02 Eh
 * total energy  :  -253.1522958 Eh     change       -0.2517807E-02 Eh
 * total energy  :  -253.1534967 Eh     change       -0.1200906E-02 Eh
 * total energy  :  -253.1551317 Eh     change       -0.1634998E-02 Eh
 * total energy  :  -253.1561244 Eh     change       -0.9927033E-03 Eh
 * total energy  :  -253.1611258 Eh     change       -0.3338997E-05 Eh
 * total energy  :  -253.1611151 Eh     change        0.1073081E-04 Eh
 * total energy  :  -253.1611342 Eh     change       -0.1915047E-04 Eh
 * total energy  :  -253.1611370 Eh     change       -0.2704709E-05 Eh
 * total energy  :  -253.1611409 Eh     change       -0.3929919E-05 Eh
 * total energy  :  -253.1611379 Eh     change        0.2983612E-05 Eh
 * total energy  :  -253.1611467 Eh     change       -0.8774176E-05 Eh
 * total energy  :  -253.1611516 Eh     change       -0.4935094E-05 Eh
 * total energy  :  -253.1611555 Eh     change       -0.3886817E-05 Eh
   *** GEOMETRY OPTIMIZATION CONVERGED AFTER 52 ITERATIONS ***

 final structure:
================
132
 xtb: 6.5.1 (b24c23e)
Cu          15.14978696829179       -0.05871264245332        0.01756512230455
C           11.74358259536495       -0.11710214020942        0.04464996481426
C           12.37811888614152       -0.17517029908142        1.27628154339132
C           11.70206547598076       -0.22440161079274        2.54127509945945
C           12.66004550080767       -0.24430362192397        3.50054365774343
C           13.93130233482260       -0.21687550035326        2.82883846334636
N           13.72869022630864       -0.17002766742513        1.47990072670370
C           15.17570919494681       -0.20045068534787        3.46327385998444
C           16.40947512344384       -0.13740220212415        2.81278781232012
C           17.68640510481468       -0.16990998561182        3.46815737794976
C           18.63325218437150       -0.11725276914052        2.49745235327566
N           16.59912059200068       -0.07540622452144        1.45773428541210
C           17.94286575116964       -0.05899362130945        1.24396742825778
C           18.57971640933279       -0.01070999405361       -0.00898132106313
C           17.92174028182571        0.02619145770016       -1.25117536097158
C           18.59095537978296        0.04302879477767       -2.51717659851513
C           17.62801981279592        0.07487472140859       -3.47294909053137
C           16.36230003555249        0.08565207282595       -2.79536218272763
C           15.11700693491056        0.10572370814699       -3.42711190863654
C           15.10097006418013        0.18024555145560       -4.90827247814531
C           14.53331309091252       -0.85071533671970       -5.66187402018443
C           14.51391247065114       -0.77755000699289       -7.04241114749271
C           15.05809534615837        0.32980400655990       -7.69601015554309
C           15.00739884525430        0.36561468609147       -9.17695812783776
O           15.56051155438535        1.46728456395738       -9.70705645272104
O           14.52103507936092       -0.49790398036228       -9.86231664142693
C           15.62634069585553        1.36183442647083       -6.94843325386764
C           15.64836644752858        1.28422581705392       -5.56684772058294
C           13.88284096698592        0.06073271036626       -2.77342843795676
C           12.60010393465414        0.12869694190122       -3.42018652915152
C           11.65878594232584        0.06107871691420       -2.44670399555077
C           12.35658416600426       -0.03775871371961       -1.19663607079466
N           13.70354717231904       -0.02879019329523       -1.42341804723546
N           16.57448049837319        0.04496788269219       -1.44276616103577
C           15.18667974122928       -0.25004051122331        4.94609564303745
C           14.68654838168036       -1.36603329764015        5.62167090979591
C           14.69655389007449       -1.40728585859426        7.00379689731507
C           15.20128623827865       -0.33110093327119        7.73624375314702
C           15.18485473588607       -0.41918957053217        9.21578010324785
O           15.68893734931580        0.66543418606066        9.82406318990124
O           14.76391127887254       -1.36189355860073        9.83690237947158
C           15.70064042533971        0.78620966999626        7.06619984613446
C           15.69504048975919        0.82255280415461        5.68279743851812
H           10.65851582185357       -0.12232578772307        0.05382072206897
H           10.63063830564755       -0.23443356909841        2.66494915788044
H           12.52516334252003       -0.26402937395377        4.56999865995569
H           17.83540764725891       -0.23854166668908        4.53354952607641
H           19.70553089271867       -0.12289287535401        2.61023861706689
H           19.66109942001114        0.02558261920150       -2.64787847177781
H           17.75922801476898        0.07631366565940       -4.54288384916108
H           14.12097339148722       -1.71688195053825       -5.15686063886127
H           14.07831558230452       -1.57591232134132       -7.63321944749029
H           15.48616631253690        1.41354079371588      -10.67367094380048
H           16.04746325103176        2.22436974231023       -7.45133168067954
H           16.07782236552647        2.09261472772298       -4.98578336684794
H           12.44631639603138        0.22878347420469       -4.48254095774273
H           10.58547329761547        0.08299922161215       -2.55089789383127
H           14.30417473460076       -2.20704210564317        5.05445014023076
H           14.31494314807209       -2.27247521418881        7.53480361405774
H           15.64123220014824        0.52909954497064       10.78421479061870
H           16.09069778606366        1.62494812045718        7.63067520386590
H           16.07273530121166        1.69530181584202        5.16194651589794
Cu          33.75487704328336       -0.05545448839859       -0.02601658286228
C           37.16104005707461       -0.11151778465006       -0.05910429938803
C           36.52676162197191       -0.02397585322880       -1.28913087815272
C           37.20311870583281        0.07637975632090       -2.55091838246482
C           36.24534412906351        0.16759575228530       -3.50626251219021
C           34.97391260764300        0.11412396263213       -2.83645878219667
N           35.17622553657841        0.00344572334535       -1.49120393693979
C           33.72952087193541        0.20119927498018       -3.46521867337132
C           32.49560548707856        0.18641772409452       -2.81208603922358
C           31.21871960355315        0.22620326746049       -3.46711960218538
C           30.27180360689523        0.16662758498037       -2.49687945691728
N           32.30586376347534        0.09340239988571       -1.45880584774634
C           30.96211308843803        0.08348989565893       -1.24476390804471
C           30.32497679436264       -0.01004365347152        0.00550649823131
C           30.98261952663436       -0.11340103825480        1.24409445659561
C           30.31319909702490       -0.23764261667907        2.50400009795318
C           31.27602392075272       -0.31614865556847        3.45718194130713
C           32.54190695042298       -0.23254531669862        2.78497653296538
C           33.78708089749028       -0.28950099201150        3.41465445234797
C           33.80290547615552       -0.38631778387374        4.89460843565856
C           34.36340185583057       -1.50095334705421        5.52417584113923
C           34.38226804749883       -1.58765569951929        6.90394866307021
C           33.84487944814101       -0.55953831937242        7.68092929200625
C           33.89440387324558       -0.69526665168250        9.15609645197322
O           33.34903089251402        0.34192128254845        9.80977661298040
O           34.37358898392150       -1.63564322856536        9.73725162394970
C           33.28401992340026        0.55559132168940        7.05742294645189
C           33.26236348540747        0.63795428101514        5.67610482737919
C           35.02128863574217       -0.26283028584454        2.76012913666567
C           36.30396499044512       -0.27511300115970        3.41044467020260
C           37.24544031151122       -0.22986348443853        2.43581941090107
C           36.54782354852479       -0.17889807846064        1.18277269706986
N           35.20081307789047       -0.19378285313268        1.40894429257720
N           32.32989321160620       -0.11924102197143        1.43650161626014
C           33.71874819327058        0.32285346311231       -4.94381382178219
C           34.22424949088953       -0.70540515414021       -5.74334410154009
C           34.21481141797658       -0.58693660975918       -7.12099733554995
C           33.70510845090636        0.56419394796662       -7.72478017379710
C           33.72284980684398        0.64768218188177       -9.20459027999122
O           33.21315333284400        1.79263245246054       -9.68407219214114
O           34.14915744023921       -0.21480680133394       -9.92995927092583
C           33.20000622185509        1.59426007914498       -6.93064512205843
C           33.20523443702680        1.47080017020322       -5.55228298748959
H           38.24611026749145       -0.11602664020231       -0.06866018183804
H           38.27457821966539        0.08253661805876       -2.67453475013087
H           36.38051619585075        0.27361802463844       -4.57059366693840
H           31.06971680777481        0.27860878943693       -4.53342399913279
H           29.19953608252533        0.17193411910799       -2.60978075528950
H           29.24298609008936       -0.26686522134451        2.63201609676856
H           31.14466871135825       -0.43461427812397        4.52052868886392
H           34.77057010684451       -2.30569803360718        4.92259500526239
H           34.81216105005257       -2.45170724551063        7.39870762104480
H           33.42199255916357        0.17630271844500       10.76372026290113
H           32.86833784900483        1.35719189563444        7.65649812684511
H           32.83849209742645        1.51069561431213        5.19213262783853
H           36.45758957990987       -0.30170637082740        4.47719984007938
H           38.31877033555953       -0.22320914018117        2.54189402462361
H           34.61051161895469       -1.60446385469625       -5.27671318911976
H           34.60088249236455       -1.38320238610028       -7.74799052666770
H           33.26212338894931        1.76842383941378      -10.65349067957440
H           32.80605261805650        2.49061935235296       -7.39482812077098
H           32.82340313533863        2.27589820584893       -4.93455595912734
C           19.98537636611445       -0.00756831674250       -0.01854067099902
C           21.20980879939086       -0.00521482259409       -0.01716379338145
C           22.55274837029011       -0.00383191921811       -0.01456217370227
C           23.78328558048768       -0.00273071359427       -0.00561334362434
C           25.12141521269527       -0.00355043885543        0.00171556222686
C           26.35194802043672       -0.00479244220800        0.01039673554701
C           27.69487684896777       -0.00625191431553        0.01395389021434
C           28.91931092259658       -0.00872389597541        0.01452316621208

          :  Hamiltonian                  GFN1-xTB          :
         :: total energy            -253.161155494167 Eh    ::
         :: gradient norm              0.000312490806 Eh/a0 ::
         :: HOMO-LUMO gap              0.000016594864 eV    ::
         :: SCC energy              -256.889021115661 Eh    ::
         :: repulsion energy           3.842815230188 Eh    ::

    * Orbital Energies and Occupations

         #    Occupation            Energy/Eh            Energy/eV
      -------------------------------------------------------------
         1        2.0000           -0.8323430             -22.6492
       ...           ...                  ...                  ...
       214        2.0000           -0.4206227             -11.4457
       215        2.0000           -0.4174928             -11.3606
       216        2.0000           -0.4174880             -11.3604
       217        2.0000           -0.4172920             -11.3551
       218        2.0000           -0.4172713             -11.3545
       219        2.0000           -0.4172678             -11.3544
       220        2.0000           -0.4171475             -11.3512
       221        2.0000           -0.4136422             -11.2558
       222        2.0000           -0.4049291             -11.0187
       223        2.0000           -0.4049273             -11.0186
       224        2.0000           -0.3997089             -10.8766
       225        2.0000           -0.3902672             -10.6197
       226        1.0002           -0.3649654              -9.9312 (HOMO)
       227        0.9998           -0.3649648              -9.9312 (LUMO)
       228                         -0.3471370              -9.4461
       229                         -0.3389254              -9.2226
       230                         -0.3389210              -9.2225
       231                         -0.3370354              -9.1712
       232                         -0.3156242              -8.5886
       233                         -0.3137887              -8.5386
       234                         -0.3084076              -8.3922
       235                         -0.3083095              -8.3895
       236                         -0.3060708              -8.3286
       237                         -0.3043904              -8.2829
       ...                                ...                  ...
       462                          1.5999237              43.5361
      -------------------------------------------------------------
                  HL-Gap            0.0000006 Eh            0.0000 eV

Wiberg/Mayer (AO) data.
largest (>0.10) Wiberg bond orders for each atom

     #   Z sym  total        # sym  WBO       # sym  WBO       # sym  WBO
 ---------------------------------------------------------------------------
     1  29 Cu   2.182 --    33 N    0.504     7 N    0.504    34 N    0.501
                            12 N    0.501
     2   6 C    3.930 --    32 C    1.362     3 C    1.362    44 H    0.971
     3   6 C    3.916 --     2 C    1.362     7 N    1.229     4 C    1.170
     4   6 C    3.955 --     5 C    1.657     3 C    1.170    45 H    0.975
     5   6 C    3.958 --     4 C    1.657     6 C    1.171    46 H    0.973
     6   6 C    3.913 --     8 C    1.319     7 N    1.240     5 C    1.171
     7   7 N    3.244 --     6 C    1.240     3 C    1.229     1 Cu   0.504
     8   6 C    3.934 --     9 C    1.326     6 C    1.319    35 C    1.028
     9   6 C    3.907 --     8 C    1.326    12 N    1.222    10 C    1.178
    10   6 C    3.954 --    11 C    1.643     9 C    1.178    47 H    0.973
    11   6 C    3.956 --    10 C    1.643    13 C    1.186    48 H    0.974
    12   7 N    3.248 --    13 C    1.257     9 C    1.222     1 Cu   0.501
    13   6 C    3.895 --    14 C    1.258    12 N    1.257    11 C    1.186
    14   6 C    3.940 --    15 C    1.259    13 C    1.258   125 C    1.189
    15   6 C    3.896 --    14 C    1.259    34 N    1.256    16 C    1.186
    16   6 C    3.956 --    17 C    1.643    15 C    1.186    49 H    0.974
    17   6 C    3.954 --    16 C    1.643    18 C    1.179    50 H    0.973
    18   6 C    3.908 --    19 C    1.325    34 N    1.223    17 C    1.179
    19   6 C    3.934 --    18 C    1.325    29 C    1.318    20 C    1.030
    20   6 C    3.986 --    28 C    1.386    21 C    1.385    19 C    1.030
    21   6 C    3.987 --    22 C    1.464    20 C    1.385    51 H    0.972
                            27 C    0.102
    22   6 C    3.990 --    21 C    1.464    23 C    1.385    52 H    0.968
                            28 C    0.102
    23   6 C    3.982 --    27 C    1.388    22 C    1.385    24 C    1.010
    24   6 C    3.836 --    26 O    1.689    25 O    1.088    23 C    1.010
    25   8 O    2.096 --    24 C    1.088    53 H    0.838    26 O    0.128
    26   8 O    1.957 --    24 C    1.689    25 O    0.128
    27   6 C    3.991 --    28 C    1.462    23 C    1.388    54 H    0.970
                            21 C    0.102
    28   6 C    3.988 --    27 C    1.462    20 C    1.386    55 H    0.972
                            22 C    0.102
    29   6 C    3.913 --    19 C    1.318    33 N    1.240    30 C    1.171
    30   6 C    3.958 --    31 C    1.657    29 C    1.171    56 H    0.973
    31   6 C    3.955 --    30 C    1.657    32 C    1.170    57 H    0.975
    32   6 C    3.916 --     2 C    1.362    33 N    1.229    31 C    1.170
    33   7 N    3.244 --    29 C    1.240    32 C    1.229     1 Cu   0.504
    34   7 N    3.248 --    15 C    1.256    18 C    1.223     1 Cu   0.501
    35   6 C    3.986 --    43 C    1.387    36 C    1.386     8 C    1.028
    36   6 C    3.987 --    37 C    1.464    35 C    1.386    58 H    0.972
                            42 C    0.103
    37   6 C    3.990 --    36 C    1.464    38 C    1.385    59 H    0.968
                            43 C    0.103
    38   6 C    3.983 --    42 C    1.388    37 C    1.385    39 C    1.010
    39   6 C    3.836 --    41 O    1.689    40 O    1.088    38 C    1.010
    40   8 O    2.096 --    39 C    1.088    60 H    0.838    41 O    0.128
    41   8 O    1.958 --    39 C    1.689    40 O    0.128
    42   6 C    3.991 --    43 C    1.462    38 C    1.388    61 H    0.970
                            36 C    0.103
    43   6 C    3.988 --    42 C    1.462    35 C    1.387    62 H    0.972
                            37 C    0.103
    44   1 H    1.001 --     2 C    0.971
    45   1 H    0.997 --     4 C    0.975
    46   1 H    1.004 --     5 C    0.973
    47   1 H    1.004 --    10 C    0.973
    48   1 H    1.002 --    11 C    0.974
    49   1 H    1.002 --    16 C    0.974
    50   1 H    1.004 --    17 C    0.973
    51   1 H    1.004 --    21 C    0.972
    52   1 H    1.005 --    22 C    0.968
    53   1 H    0.873 --    25 O    0.838
    54   1 H    1.005 --    27 C    0.970
    55   1 H    1.004 --    28 C    0.972
    56   1 H    1.004 --    30 C    0.973
    57   1 H    0.997 --    31 C    0.975
    58   1 H    1.004 --    36 C    0.972
    59   1 H    1.005 --    37 C    0.968
    60   1 H    0.873 --    40 O    0.838
    61   1 H    1.005 --    42 C    0.970
    62   1 H    1.004 --    43 C    0.972
    63  29 Cu   2.182 --    95 N    0.505    69 N    0.504    96 N    0.501
                            74 N    0.501
    64   6 C    3.930 --    94 C    1.362    65 C    1.362   106 H    0.971
    65   6 C    3.916 --    64 C    1.362    69 N    1.229    66 C    1.170
    66   6 C    3.955 --    67 C    1.657    65 C    1.170   107 H    0.975
    67   6 C    3.958 --    66 C    1.657    68 C    1.171   108 H    0.973
    68   6 C    3.913 --    70 C    1.319    69 N    1.240    67 C    1.171
    69   7 N    3.244 --    68 C    1.240    65 C    1.229    63 Cu   0.504
    70   6 C    3.934 --    71 C    1.326    68 C    1.319    97 C    1.028
    71   6 C    3.907 --    70 C    1.326    74 N    1.222    72 C    1.178
    72   6 C    3.954 --    73 C    1.643    71 C    1.178   109 H    0.973
    73   6 C    3.956 --    72 C    1.643    75 C    1.186   110 H    0.974
    74   7 N    3.248 --    75 C    1.257    71 C    1.222    63 Cu   0.501
    75   6 C    3.895 --    76 C    1.258    74 N    1.257    73 C    1.186
    76   6 C    3.940 --    77 C    1.259    75 C    1.258   132 C    1.189
    77   6 C    3.896 --    76 C    1.259    96 N    1.256    78 C    1.186
    78   6 C    3.956 --    79 C    1.643    77 C    1.186   111 H    0.974
    79   6 C    3.954 --    78 C    1.643    80 C    1.179   112 H    0.973
    80   6 C    3.908 --    81 C    1.325    96 N    1.223    79 C    1.179
    81   6 C    3.934 --    80 C    1.325    91 C    1.318    82 C    1.030
    82   6 C    3.986 --    90 C    1.387    83 C    1.385    81 C    1.030
    83   6 C    3.987 --    84 C    1.464    82 C    1.385   113 H    0.972
                            89 C    0.102
    84   6 C    3.990 --    83 C    1.464    85 C    1.385   114 H    0.968
                            90 C    0.102
    85   6 C    3.983 --    89 C    1.388    84 C    1.385    86 C    1.010
    86   6 C    3.836 --    88 O    1.689    87 O    1.088    85 C    1.010
    87   8 O    2.096 --    86 C    1.088   115 H    0.838    88 O    0.128
    88   8 O    1.957 --    86 C    1.689    87 O    0.128
    89   6 C    3.991 --    90 C    1.462    85 C    1.388   116 H    0.970
                            83 C    0.102
    90   6 C    3.988 --    89 C    1.462    82 C    1.387   117 H    0.972
                            84 C    0.102
    91   6 C    3.913 --    81 C    1.318    95 N    1.240    92 C    1.171
    92   6 C    3.958 --    93 C    1.657    91 C    1.171   118 H    0.973
    93   6 C    3.955 --    92 C    1.657    94 C    1.170   119 H    0.975
    94   6 C    3.916 --    64 C    1.362    95 N    1.229    93 C    1.170
    95   7 N    3.244 --    91 C    1.240    94 C    1.229    63 Cu   0.505
    96   7 N    3.248 --    77 C    1.256    80 C    1.223    63 Cu   0.501
    97   6 C    3.986 --   105 C    1.387    98 C    1.386    70 C    1.028
    98   6 C    3.987 --    99 C    1.464    97 C    1.386   120 H    0.972
                           104 C    0.103
    99   6 C    3.990 --    98 C    1.464   100 C    1.385   121 H    0.968
                           105 C    0.103
   100   6 C    3.983 --   104 C    1.388    99 C    1.385   101 C    1.010
   101   6 C    3.836 --   103 O    1.689   102 O    1.088   100 C    1.010
   102   8 O    2.096 --   101 C    1.088   122 H    0.838   103 O    0.128
   103   8 O    1.958 --   101 C    1.689   102 O    0.128
   104   6 C    3.991 --   105 C    1.462   100 C    1.388   123 H    0.970
                            98 C    0.103
   105   6 C    3.988 --   104 C    1.462    97 C    1.387   124 H    0.972
                            99 C    0.103
   106   1 H    1.001 --    64 C    0.971
   107   1 H    0.997 --    66 C    0.975
   108   1 H    1.004 --    67 C    0.973
   109   1 H    1.004 --    72 C    0.973
   110   1 H    1.002 --    73 C    0.974
   111   1 H    1.002 --    78 C    0.974
   112   1 H    1.004 --    79 C    0.973
   113   1 H    1.004 --    83 C    0.972
   114   1 H    1.005 --    84 C    0.968
   115   1 H    0.873 --    87 O    0.838
   116   1 H    1.005 --    89 C    0.970
   117   1 H    1.004 --    90 C    0.972
   118   1 H    1.004 --    92 C    0.973
   119   1 H    0.997 --    93 C    0.975
   120   1 H    1.004 --    98 C    0.972
   121   1 H    1.005 --    99 C    0.968
   122   1 H    0.873 --   102 O    0.838
   123   1 H    1.005 --   104 C    0.970
   124   1 H    1.004 --   105 C    0.972
   125   6 C    3.878 --   126 C    2.442    14 C    1.189   128 C    0.187
   126   6 C    3.936 --   125 C    2.442   127 C    1.343
   127   6 C    3.894 --   128 C    2.338   126 C    1.343   130 C    0.183
   128   6 C    3.927 --   127 C    2.338   129 C    1.368   125 C    0.187
   129   6 C    3.927 --   130 C    2.338   128 C    1.368   132 C    0.187
   130   6 C    3.894 --   129 C    2.338   131 C    1.343   127 C    0.183
   131   6 C    3.936 --   132 C    2.442   130 C    1.343
   132   6 C    3.878 --   131 C    2.442    76 C    1.189   129 C    0.187
 ---------------------------------------------------------------------------

           -------------------------------------------------
          | TOTAL ENERGY             -253.161155494167 Eh   |
          | GRADIENT NORM               0.000312490806 Eh/α |
          | HOMO-LUMO GAP               0.000016594864 eV   |
           -------------------------------------------------

 * finished run on 2022/07/30 at 10:09:41.961
