   * xtb version 6.5.1 (b24c23e) compiled by 'conda@728c89f4b128' on 2022-07-12
          program call               : xtb PhNO2_C4_2.xyz --gfn 1 --opt -T 48

   ID    Z sym.   atoms
    1    6 C      1-5, 7-11, 15-19, 21-26, 28-32, 36-41, 62-66, 68-72, 76-80,
                  82-87, 89-93, 97-102, 123-126
    2    7 N      6, 12, 20, 27, 33, 42, 67, 73, 81, 88, 94, 103
    3    8 O      13, 14, 34, 35, 74, 75, 95, 96
    4    1 H      43-61, 104-122
########################################################################
[WARNING] Please study the warnings concerning your input carefully
-1- prog_main_parseArguments: Unknown option '-T' provided
########################################################################

          :  Hamiltonian                  GFN1-xTB          :
 * total energy  :  -238.7208085 Eh     change       -0.1392664E-11 Eh
 * total energy  :  -239.3040038 Eh     change       -0.5831953E+00 Eh
 * total energy  :  -239.4082405 Eh     change       -0.1042367E+00 Eh
 * total energy  :  -239.4571342 Eh     change       -0.4889373E-01 Eh
 * total energy  :  -239.4351493 Eh     change        0.2198488E-01 Eh
 * total energy  :  -239.4705450 Eh     change       -0.3539568E-01 Eh
 * total energy  :  -239.4791060 Eh     change       -0.8561023E-02 Eh
 * total energy  :  -239.4855503 Eh     change       -0.6444259E-02 Eh
 * total energy  :  -239.4882973 Eh     change       -0.2746965E-02 Eh
 * total energy  :  -239.4901443 Eh     change       -0.1846986E-02 Eh
 * total energy  :  -239.5017367 Eh     change       -0.9598828E-05 Eh
 * total energy  :  -239.5017463 Eh     change       -0.9624846E-05 Eh
 * total energy  :  -239.5017537 Eh     change       -0.7425573E-05 Eh
 * total energy  :  -239.5017633 Eh     change       -0.9600730E-05 Eh
 * total energy  :  -239.5017722 Eh     change       -0.8887269E-05 Eh
 * total energy  :  -239.5017833 Eh     change       -0.1108094E-04 Eh
 * total energy  :  -239.5017887 Eh     change       -0.5371276E-05 Eh
 * total energy  :  -239.5017956 Eh     change       -0.6920464E-05 Eh
 * total energy  :  -239.5018001 Eh     change       -0.4513394E-05 Eh
   *** GEOMETRY OPTIMIZATION CONVERGED AFTER 53 ITERATIONS ***

 final structure:
================
126
 xtb: 6.5.1 (b24c23e)
C           12.55751718212763       -0.14104939969290       -0.07865923276946
C           13.16514729713059       -1.35168958609414        0.22711685783011
C           12.51108754040035       -2.58405923299569        0.50920981322655
C           13.47056824316853       -3.51641403034772        0.78511790460898
C           14.74200775997372       -2.88123386797958        0.68695479971488
N           14.50749277125271       -1.58248751821919        0.33761904184899
C           16.00460911019268       -3.45643911438077        0.87301267644729
C           16.03015109564954       -4.87771017815679        1.29007677262282
C           16.65089830517083       -5.84213519627361        0.49029728883094
C           16.67285047574719       -7.16928970267158        0.87870972755273
C           16.07300480721743       -7.53547395595816        2.08036100297394
N           16.09387569449271       -8.92735755287949        2.49385639721641
O           16.65099696984302       -9.71498123114245        1.77297089012140
O           15.54993777170296       -9.20891399925862        3.53096175948855
C           15.45192708228400       -6.59075911489631        2.89241938402031
C           15.43073573296197       -5.26736762342098        2.49200845012746
C           17.22319243875578       -2.79340049821087        0.70345877053188
C           18.52012006946261       -3.39811855994142        0.95012421678828
C           19.44066297316639       -2.44979336027071        0.68019350660550
N           17.37703301378678       -1.49837426253862        0.31488064586312
C           18.70467131975964       -1.26451652841729        0.28404937130705
C           19.34163949599884       -0.05876629005769       -0.07179509660701
C           18.70802771981527        1.15270181204303       -0.40768413155345
C           19.35533396791191        2.36390968581030       -0.76880240979698
C           18.39120532431003        3.30776653851183       -0.99067443686541
C           17.12435836241657        2.70125115023075       -0.76499370161939
N           17.36717735880120        1.39711069660927       -0.42636290618792
C           15.86183224671921        3.29248941618899       -0.89290013256491
C           15.83255846089074        4.73549021701198       -1.22232198973593
C           15.19725364468678        5.18672370542244       -2.38369663722887
C           15.16333931742371        6.53519881961544       -2.68821980856533
C           15.76599052906650        7.44293002119695       -1.82175522999559
N           15.72830563411675        8.86055873201398       -2.13336273662690
O           15.17169707362057        9.19396758192166       -3.14800058577197
O           16.25517882606383        9.61616742996939       -1.35736987047472
C           16.40391436423189        7.01503821951388       -0.66085048187053
C           16.43705168361094        5.66397939666249       -0.36855560365917
C           14.64294565040770        2.62556839911413       -0.72505401151483
C           13.33790124918850        3.26311433879470       -0.81653379333287
C           12.42483745935838        2.29633691016662       -0.59752791273015
C           13.17052551607842        1.07363379124682       -0.35460467572710
N           14.50314994436805        1.31166410086788       -0.43181879474785
H           11.47236626400035       -0.15222062114246       -0.08910958361969
H           11.44241742412996       -2.72623164813963        0.49559864622763
H           13.31765190930883       -4.55598933505639        1.02535557655980
H           15.23407825811643       -0.89120470958612        0.18457048725327
H           17.10283828866438       -5.54677900060174       -0.44933374901887
H           17.14560798221811       -7.92468248334613        0.26260768017221
H           14.99681016492216       -6.90029658693383        3.82556578212064
H           14.96237671504193       -4.52038497151918        3.12232221679715
H           18.68341250201980       -4.40590420251553        1.29592751374794
H           20.51470065951569       -2.51693924134807        0.74626176997791
H           20.42319905589839        2.48719770268743       -0.84967720023449
H           18.54181874125800        4.33025275935562       -1.29620724694003
H           16.64297282550279        0.71613267532165       -0.22259311213304
H           14.74337161853035        4.46950539189863       -3.05743435285463
H           14.67789478318990        6.89338208159003       -3.58805169289211
H           16.86195678565164        7.74156639897079       -0.00051970938109
H           16.91725826089568        5.32049232941969        0.54033697482864
H           13.16768969917132        4.31014567323664       -1.00841443435189
H           11.34923802776430        2.37431969138524       -0.58228405312689
C           32.73026658325244        0.08502887190371       -0.12992452243760
C           32.12249768916946        1.28074750770106       -0.48959187932402
C           32.77640054081840        2.48328434301762       -0.87994681912728
C           31.81666983640599        3.42408710918312       -1.12461656825519
C           30.54522991778930        2.82788246040591       -0.88462284093881
N           30.78004951790563        1.53459819995867       -0.51571331890011
C           29.28245850332843        3.41588755841447       -1.02325746920996
C           29.25675682540616        4.84888453391296       -1.39833304911460
C           28.64065987754407        5.26215308282297       -2.58351788837845
C           28.61958881856987        6.59942809067634       -2.93552824964023
C           29.21537871613256        7.53331003308072       -2.09246621237239
N           29.19601150207911        8.93888553546259       -2.45678976038811
O           28.64490144566805        9.24121001669642       -3.48400525698267
O           29.73338586931548        9.71577380781453       -1.70970595334009
C           29.83128092480491        7.14329875903765       -0.90665732948077
C           29.85192295538190        5.80300217098415       -0.56700611835136
C           28.06409503913380        2.75916326538539       -0.82965912653445
C           26.76680332091552        3.40323057563525       -0.93285957652406
C           25.84654856067423        2.45046835836416       -0.67785337636372
N           27.91071588970377        1.44878075650082       -0.49625367697906
C           26.58306589152600        1.23108332915354       -0.40553711813190
C           25.94698119797115        0.01344225844348       -0.09114136380066
C           26.58104608442920       -1.19803916466571        0.24354345247114
C           25.93379809972532       -2.42347776392548        0.55320985690303
C           26.89788220179293       -3.34728775370220        0.84763353927198
C           28.16462836104592       -2.71020590572164        0.73269288772942
N           27.92178689149026       -1.41685046885764        0.35506330178157
C           29.42718007031374       -3.28333953059203        0.92605440360791
C           29.45656086303496       -4.69193894804197        1.38047609165821
C           30.09223006122321       -5.67319200511854        0.61298746644928
C           30.12542928236081       -6.98807867728139        1.03986995283569
C           29.52184626521824       -7.32583268387876        2.24796603619589
N           29.55860848812660       -8.70385783301291        2.70388437552032
O           30.11309599434158       -9.50935391965647        2.00090323290904
O           29.03287924240612       -8.95664918601545        3.75764528054438
C           28.88382803750607       -6.36482765952814        3.02717117953351
C           28.85128412858411       -5.05399237320807        2.58838267645888
C           30.64586689980456       -2.62389759105872        0.72923079444505
C           31.95116133799959       -3.21800479307976        0.97666671735046
C           32.86380523651271       -2.27460367966949        0.67104565985611
C           32.11764556876534       -1.09996849036072        0.25445335438838
N           30.78510502718090       -1.34478400974091        0.30943315062556
H           33.81544474981478        0.08995861291500       -0.14318754614545
H           33.84513120864076        2.59904199593570       -0.96277224102872
H           31.96942008184455        4.43928997402628       -1.45304160734975
H           30.05353213993507        0.86232459250710       -0.29333920165939
H           28.19179790004084        4.52408714630043       -3.23789016465962
H           28.15076760563284        6.92857108346911       -3.85508846410779
H           30.28309148145618        7.89011431906766       -0.26495989057906
H           30.31663839308884        5.48839624354433        0.36017962781983
H           26.60311914318106        4.44495679376003       -1.15614400754737
H           24.77237126056759        2.54114737230588       -0.65893429946360
H           24.86601079070369       -2.57114782495178        0.54479546399660
H           26.74739714545993       -4.38201689286818        1.10870213572816
H           28.64608510067856       -0.72744533989461        0.18241730857248
H           30.54681954564504       -5.40087488692613       -0.33227224281379
H           30.61096626648576       -7.75578433987167        0.44952649153897
H           28.42511857257163       -6.65213826667936        3.96564581320429
H           28.37084541765764       -4.29436751262698        3.19400828580686
H           32.12192780003370       -4.21597559693478        1.34673801439822
H           33.93943077818786       -2.33341669702798        0.72397522558246
C           21.96960235755807       -0.03107127854128       -0.09222930513538
C           20.74768872827022       -0.04719469898986       -0.08353521732176
C           23.31886080530207       -0.01820875289197       -0.09680201304138
C           24.54081271274196       -0.00372529586306       -0.09526571276504

          :  Hamiltonian                  GFN1-xTB          :
         :: total energy            -239.501800097769 Eh    ::
         :: gradient norm              0.000594340485 Eh/a0 ::
         :: HOMO-LUMO gap              1.022747355076 eV    ::
         :: SCC energy              -242.897670242283 Eh    ::
         :: repulsion energy           3.502540343958 Eh    ::

    * Orbital Energies and Occupations

         #    Occupation            Energy/Eh            Energy/eV
      -------------------------------------------------------------
         1        2.0000           -0.9233413             -25.1254
       ...           ...                  ...                  ...
       197        2.0000           -0.4479731             -12.1900
       198        2.0000           -0.4460857             -12.1386
       199        2.0000           -0.4450769             -12.1112
       200        2.0000           -0.4442235             -12.0879
       201        2.0000           -0.4418775             -12.0241
       202        2.0000           -0.4410588             -12.0018
       203        2.0000           -0.4409167             -11.9980
       204        2.0000           -0.4392932             -11.9538
       205        2.0000           -0.4392009             -11.9513
       206        2.0000           -0.4233424             -11.5197
       207        2.0000           -0.4230498             -11.5118
       208        2.0000           -0.4145350             -11.2801
       209        2.0000           -0.4034240             -10.9777 (HOMO)
       210                         -0.3658387              -9.9550 (LUMO)
       211                         -0.3610303              -9.8241
       212                         -0.3602360              -9.8025
       213                         -0.3515682              -9.5667
       214                         -0.3500870              -9.5264
       215                         -0.3496123              -9.5134
       216                         -0.3443987              -9.3716
       217                         -0.3443419              -9.3700
       218                         -0.3218251              -8.7573
       219                         -0.3144061              -8.5554
       220                         -0.3034172              -8.2564
       ...                                ...                  ...
       428                          1.4944181              40.6652
      -------------------------------------------------------------
                  HL-Gap            0.0375853 Eh            1.0227 eV

Wiberg/Mayer (AO) data.
largest (>0.10) Wiberg bond orders for each atom

     #   Z sym  total        # sym  WBO       # sym  WBO       # sym  WBO
 ---------------------------------------------------------------------------
     1   6 C    3.926 --    41 C    1.368     2 C    1.347    43 H    0.970
     2   6 C    3.900 --     1 C    1.347     3 C    1.228     6 N    1.169
     3   6 C    3.954 --     4 C    1.598     2 C    1.228    44 H    0.976
     4   6 C    3.958 --     3 C    1.598     5 C    1.232    45 H    0.974
     5   6 C    3.897 --     7 C    1.301     4 C    1.232     6 N    1.180
     6   7 N    3.471 --     5 C    1.180     2 C    1.169    46 H    0.873
     7   6 C    3.936 --    17 C    1.331     5 C    1.301     8 C    1.035
     8   6 C    3.984 --     9 C    1.383    16 C    1.383     7 C    1.035
     9   6 C    3.987 --    10 C    1.464     8 C    1.383    47 H    0.971
                            15 C    0.101
    10   6 C    3.987 --     9 C    1.464    11 C    1.387    48 H    0.965
                            16 C    0.101
    11   6 C    3.940 --    10 C    1.387    15 C    1.387    12 N    0.921
    12   7 N    3.865 --    13 O    1.454    14 O    1.454    11 C    0.921
    13   8 O    1.829 --    12 N    1.454    14 O    0.251
    14   8 O    1.828 --    12 N    1.454    13 O    0.251
    15   6 C    3.987 --    16 C    1.464    11 C    1.387    49 H    0.965
                             9 C    0.101
    16   6 C    3.986 --    15 C    1.464     8 C    1.383    50 H    0.971
                            10 C    0.101
    17   6 C    3.914 --     7 C    1.331    20 N    1.288    18 C    1.124
    18   6 C    3.965 --    19 C    1.711    17 C    1.124    51 H    0.973
    19   6 C    3.963 --    18 C    1.711    21 C    1.127    52 H    0.974
    20   7 N    3.021 --    21 C    1.342    17 C    1.288
    21   6 C    3.907 --    20 N    1.342    22 C    1.256    19 C    1.127
    22   6 C    3.937 --    21 C    1.256    23 C    1.252   124 C    1.189
    23   6 C    3.884 --    22 C    1.252    24 C    1.249    27 N    1.188
    24   6 C    3.959 --    25 C    1.583    23 C    1.249    53 H    0.974
    25   6 C    3.954 --    24 C    1.583    26 C    1.240    54 H    0.974
    26   6 C    3.898 --    28 C    1.304    25 C    1.240    27 N    1.169
    27   7 N    3.475 --    23 C    1.188    26 C    1.169    55 H    0.872
    28   6 C    3.922 --    38 C    1.318    26 C    1.304    29 C    1.038
    29   6 C    3.984 --    37 C    1.382    30 C    1.382    28 C    1.038
    30   6 C    3.986 --    31 C    1.464    29 C    1.382    56 H    0.971
                            36 C    0.101
    31   6 C    3.987 --    30 C    1.464    32 C    1.386    57 H    0.965
                            37 C    0.101
    32   6 C    3.939 --    31 C    1.386    36 C    1.386    33 N    0.921
    33   7 N    3.865 --    34 O    1.454    35 O    1.454    32 C    0.921
    34   8 O    1.828 --    33 N    1.454    35 O    0.251
    35   8 O    1.828 --    33 N    1.454    34 O    0.251
    36   6 C    3.987 --    37 C    1.465    32 C    1.386    58 H    0.965
                            30 C    0.101
    37   6 C    3.985 --    36 C    1.465    29 C    1.382    59 H    0.971
                            31 C    0.101
    38   6 C    3.929 --    42 N    1.319    28 C    1.318    39 C    1.115
    39   6 C    3.967 --    40 C    1.725    38 C    1.115    60 H    0.973
    40   6 C    3.966 --    39 C    1.725    41 C    1.115    61 H    0.975
    41   6 C    3.926 --     1 C    1.368    42 N    1.298    40 C    1.115
    42   7 N    3.012 --    38 C    1.319    41 C    1.298
    43   1 H    1.001 --     1 C    0.970
    44   1 H    0.997 --     3 C    0.976
    45   1 H    1.003 --     4 C    0.974
    46   1 H    0.985 --     6 N    0.873
    47   1 H    1.004 --     9 C    0.971
    48   1 H    1.006 --    10 C    0.965
    49   1 H    1.006 --    15 C    0.965
    50   1 H    1.003 --    16 C    0.971
    51   1 H    1.004 --    18 C    0.973
    52   1 H    1.003 --    19 C    0.974
    53   1 H    1.002 --    24 C    0.974
    54   1 H    1.003 --    25 C    0.974
    55   1 H    0.986 --    27 N    0.872
    56   1 H    1.004 --    30 C    0.971
    57   1 H    1.006 --    31 C    0.965
    58   1 H    1.006 --    36 C    0.965
    59   1 H    1.003 --    37 C    0.971
    60   1 H    1.004 --    39 C    0.973
    61   1 H    0.997 --    40 C    0.975
    62   6 C    3.926 --   102 C    1.368    63 C    1.347   104 H    0.970
    63   6 C    3.900 --    62 C    1.347    64 C    1.228    67 N    1.169
    64   6 C    3.954 --    65 C    1.598    63 C    1.228   105 H    0.976
    65   6 C    3.958 --    64 C    1.598    66 C    1.232   106 H    0.974
    66   6 C    3.897 --    68 C    1.301    65 C    1.232    67 N    1.180
    67   7 N    3.471 --    66 C    1.180    63 C    1.169   107 H    0.873
    68   6 C    3.936 --    78 C    1.331    66 C    1.301    69 C    1.035
    69   6 C    3.984 --    70 C    1.383    77 C    1.383    68 C    1.035
    70   6 C    3.987 --    71 C    1.464    69 C    1.383   108 H    0.971
                            76 C    0.101
    71   6 C    3.987 --    70 C    1.464    72 C    1.387   109 H    0.965
                            77 C    0.101
    72   6 C    3.940 --    71 C    1.387    76 C    1.387    73 N    0.921
    73   7 N    3.865 --    74 O    1.454    75 O    1.454    72 C    0.921
    74   8 O    1.829 --    73 N    1.454    75 O    0.251
    75   8 O    1.828 --    73 N    1.454    74 O    0.251
    76   6 C    3.987 --    77 C    1.464    72 C    1.387   110 H    0.965
                            70 C    0.101
    77   6 C    3.986 --    76 C    1.464    69 C    1.383   111 H    0.971
                            71 C    0.101
    78   6 C    3.914 --    68 C    1.331    81 N    1.288    79 C    1.124
    79   6 C    3.965 --    80 C    1.711    78 C    1.124   112 H    0.973
    80   6 C    3.963 --    79 C    1.711    82 C    1.127   113 H    0.974
    81   7 N    3.021 --    82 C    1.342    78 C    1.288
    82   6 C    3.907 --    81 N    1.342    83 C    1.256    80 C    1.127
    83   6 C    3.937 --    82 C    1.256    84 C    1.253   126 C    1.189
    84   6 C    3.884 --    83 C    1.253    85 C    1.248    88 N    1.188
    85   6 C    3.959 --    86 C    1.583    84 C    1.248   114 H    0.974
    86   6 C    3.954 --    85 C    1.583    87 C    1.240   115 H    0.974
    87   6 C    3.898 --    89 C    1.304    86 C    1.240    88 N    1.169
    88   7 N    3.475 --    84 C    1.188    87 C    1.169   116 H    0.872
    89   6 C    3.922 --    99 C    1.318    87 C    1.304    90 C    1.038
    90   6 C    3.984 --    98 C    1.382    91 C    1.382    89 C    1.038
    91   6 C    3.986 --    92 C    1.464    90 C    1.382   117 H    0.971
                            97 C    0.101
    92   6 C    3.987 --    91 C    1.464    93 C    1.386   118 H    0.965
                            98 C    0.101
    93   6 C    3.939 --    92 C    1.386    97 C    1.386    94 N    0.921
    94   7 N    3.865 --    95 O    1.454    96 O    1.454    93 C    0.921
    95   8 O    1.828 --    94 N    1.454    96 O    0.251
    96   8 O    1.828 --    94 N    1.454    95 O    0.251
    97   6 C    3.987 --    98 C    1.465    93 C    1.386   119 H    0.965
                            91 C    0.101
    98   6 C    3.985 --    97 C    1.465    90 C    1.382   120 H    0.971
                            92 C    0.101
    99   6 C    3.929 --   103 N    1.319    89 C    1.318   100 C    1.115
   100   6 C    3.967 --   101 C    1.725    99 C    1.115   121 H    0.973
   101   6 C    3.966 --   100 C    1.725   102 C    1.115   122 H    0.975
   102   6 C    3.926 --    62 C    1.368   103 N    1.298   101 C    1.115
   103   7 N    3.012 --    99 C    1.319   102 C    1.298
   104   1 H    1.001 --    62 C    0.970
   105   1 H    0.997 --    64 C    0.976
   106   1 H    1.003 --    65 C    0.974
   107   1 H    0.985 --    67 N    0.873
   108   1 H    1.004 --    70 C    0.971
   109   1 H    1.006 --    71 C    0.965
   110   1 H    1.006 --    76 C    0.965
   111   1 H    1.003 --    77 C    0.971
   112   1 H    1.004 --    79 C    0.973
   113   1 H    1.003 --    80 C    0.974
   114   1 H    1.002 --    85 C    0.974
   115   1 H    1.003 --    86 C    0.974
   116   1 H    0.986 --    88 N    0.872
   117   1 H    1.004 --    91 C    0.971
   118   1 H    1.006 --    92 C    0.965
   119   1 H    1.006 --    97 C    0.965
   120   1 H    1.003 --    98 C    0.971
   121   1 H    1.004 --   100 C    0.973
   122   1 H    0.997 --   101 C    0.975
   123   6 C    3.933 --   124 C    2.475   125 C    1.309
   124   6 C    3.926 --   123 C    2.475    22 C    1.189   126 C    0.199
   125   6 C    3.933 --   126 C    2.475   123 C    1.309
   126   6 C    3.926 --   125 C    2.475    83 C    1.189   124 C    0.199
 ---------------------------------------------------------------------------

           -------------------------------------------------
          | TOTAL ENERGY             -239.501800097769 Eh   |
          | GRADIENT NORM               0.000594340485 Eh/α |
          | HOMO-LUMO GAP               1.022747355076 eV   |
           -------------------------------------------------

 * finished run on 2022/07/30 at 06:12:35.955
