   * xtb version 6.5.1 (b24c23e) compiled by 'conda@728c89f4b128' on 2022-07-12
          program call               : xtb Ni_Ph_C2_3.xyz --gfn 1 --opt -T 48

   ID    Z sym.   atoms
    1   28 Ni     1, 57, 117
    2    6 C      2-6, 8-11, 13-29, 32-37, 58-62, 64-67, 69-85, 88-93,
                  113-116, 118-122, 124-127, 129-145, 148-153
    3    7 N      7, 12, 30, 31, 63, 68, 86, 87, 123, 128, 146, 147
    4    1 H      38-56, 94-112, 154-171

          :  Hamiltonian                  GFN1-xTB          :
 * total energy  :  -291.7443259 Eh     change       -0.1879926E-08 Eh
 * total energy  :  -291.9122816 Eh     change       -0.1679557E+00 Eh
 * total energy  :  -292.0258021 Eh     change       -0.1135205E+00 Eh
 * total energy  :  -292.0831742 Eh     change       -0.5737204E-01 Eh
 * total energy  :  -292.1090038 Eh     change       -0.2582965E-01 Eh
 * total energy  :  -292.1281330 Eh     change       -0.1912916E-01 Eh
 * total energy  :  -292.1431695 Eh     change       -0.1503649E-01 Eh
 * total energy  :  -292.1555341 Eh     change       -0.1236468E-01 Eh
 * total energy  :  -292.1655094 Eh     change       -0.9975275E-02 Eh
 * total energy  :  -292.1736066 Eh     change       -0.8097208E-02 Eh
 * total energy  :  -292.2153606 Eh     change       -0.1329154E-04 Eh
 * total energy  :  -292.2153718 Eh     change       -0.1115013E-04 Eh
 * total energy  :  -292.2153825 Eh     change       -0.1075166E-04 Eh
 * total energy  :  -292.2153930 Eh     change       -0.1048848E-04 Eh
 * total energy  :  -292.2154024 Eh     change       -0.9413973E-05 Eh
 * total energy  :  -292.2154103 Eh     change       -0.7925722E-05 Eh
 * total energy  :  -292.2154172 Eh     change       -0.6837964E-05 Eh
 * total energy  :  -292.2154224 Eh     change       -0.5261326E-05 Eh
 * total energy  :  -292.2154238 Eh     change       -0.1411647E-05 Eh
   *** GEOMETRY OPTIMIZATION CONVERGED AFTER 68 ITERATIONS ***

 final structure:
================
171
 xtb: 6.5.1 (b24c23e)
Ni          31.45143548656313       -0.02616546700749        0.00211074610697
C           28.06121733551363       -0.03389376427197       -0.01433096008923
C           28.71320022998892       -1.23302869811642       -0.21560268545553
C           28.03820101288936       -2.47700245715683       -0.42866042478474
C           28.99153920482871       -3.43771945299859       -0.44925202539429
C           30.24989717448743       -2.77916626797503       -0.25317812843018
N           30.07026636438678       -1.42300164179111       -0.13946335866452
C           31.45402509016987       -3.44639629271462       -0.07299129311521
C           32.65526493767254       -2.78333337370852        0.13776275650125
C           33.90890310157044       -3.44775353343271        0.32646832869878
C           34.86140375984188       -2.48502216814676        0.35544701017048
N           32.83921129510994       -1.42021285600975        0.07487966723080
C           34.19180835582839       -1.23693755065468        0.17238877758645
C           34.86179709505976       -0.02089069912041        0.01430291297195
C           34.18703609262066        1.19228150758811       -0.14642873604875
C           34.84882229003237        2.43868561233493       -0.36442174722155
C           33.89227313404934        3.39808915136842       -0.34319925030624
C           32.64659995557746        2.73395359216689       -0.10750840496725
C           31.44048067035222        3.39555672789475        0.08464877485772
C           31.44116234721358        4.87731634497669        0.12452025093607
C           30.70876726870332        5.61233982200819       -0.80862179334300
C           30.71390385166331        6.99853448704419       -0.76870753250593
C           31.44487620837441        7.66649572577117        0.20433139365885
C           32.17462814628306        6.94222370262462        1.13722467824401
C           32.17617861727481        5.55613311690819        1.09755574274983
C           30.23562048096074        2.72158702816045        0.23852822984200
C           28.97814584018894        3.36715118527125        0.47791557639134
C           28.02851659446193        2.40291924860885        0.43936860773774
C           28.70723295442200        1.16777899654740        0.19130206452876
N           30.06297982278057        1.36586325494581        0.11079029997102
N           32.83473544121338        1.37212600302601       -0.03775750357688
C           31.45670179214290       -4.93092728484641       -0.10497406944602
C           31.19088897700936       -5.60968141231407       -1.29403502428710
C           31.19800754477371       -6.99633167521469       -1.32457264913122
C           31.46494033191305       -7.71853371481254       -0.16946320287068
C           31.72695211552513       -7.04888186214373        1.01798947266077
C           31.72558820132877       -5.66226940234407        1.05174898781061
H           26.97745133428083       -0.03686413002752       -0.01232963366871
H           26.96998198255818       -2.58246656543398       -0.53274576765929
H           28.86661011346301       -4.50173429284165       -0.56850793310537
H           34.03524105940394       -4.51468207927858        0.41123837957058
H           35.92589523209119       -2.59727928385998        0.48050521283252
H           35.90959489374720        2.55142202827818       -0.51764892581776
H           34.00905731487884        4.46058957209536       -0.48099196529243
H           30.14780856637071        5.09249434702744       -1.57732371066694
H           30.14523337414898        7.55983508156204       -1.50181988939417
H           31.44617457007705        8.75016277869553        0.23536009626561
H           32.74527266710051        7.45918516195177        1.90078008578048
H           32.73716922858880        4.99141338220188        1.83390907065971
H           28.85180329195462        4.42319420434842        0.65319685508512
H           26.96180776670628        2.49951358873036        0.56518698940820
H           30.99193284458403       -5.04578518568347       -2.19857134754410
H           30.99527115481076       -7.51499084779273       -2.25505039445096
H           31.46873111664756       -8.80235522104132       -0.19464783616144
H           31.93290677957613       -7.60883291785870        1.92349015373330
H           31.92086980091427       -5.13978850991709        1.98158604654537
Ni          53.16656860561130        0.06507001072855        0.01804201410117
C           56.55690997494255        0.06130411471438        0.01660886161602
C           55.90978928802573        1.27031370953955       -0.13509096074171
C           56.59002018766559        2.51981320959213       -0.29143166499293
C           55.64000645674547        3.48389673261584       -0.27591121948996
C           54.37843191330967        2.82208211075710       -0.11444135174754
N           54.55299249220474        1.46169308967007       -0.05743873700373
C           53.17558697744916        3.48548890468359        0.08755015161266
C           51.97117803063589        2.81839530171322        0.26496050447063
C           50.71876582838381        3.47863174247411        0.47531122439454
C           49.76307026388209        2.51874491684070        0.46001559657938
N           51.78316034176145        1.45968076916049        0.14444737619571
C           50.42954391076024        1.27710674694804        0.22818906033582
C           49.75614804064083        0.07109344951955        0.01682533790933
C           50.42740902818252       -1.13649126194842       -0.19307855901120
C           49.76228370729645       -2.36998199282739       -0.46708573030800
C           50.71554539858695       -3.33269764791345       -0.48424536697583
C           51.96255972011247       -2.68374360839735       -0.21564955435390
C           53.16587507818143       -3.35732078666676       -0.04932229018349
C           53.16013312786191       -4.83935724640620       -0.07711626947343
C           53.89237725860067       -5.53298983425517       -1.04154401175385
C           53.88123131461583       -6.91948509690605       -1.06681793956648
C           53.14434700265981       -7.62917040574080       -0.12838767749262
C           52.41515527207689       -6.94629668827044        0.83564704657857
C           52.41964660351050       -5.55986280755450        0.86116852687573
C           54.37243802289253       -2.69503335908635        0.13812716928502
C           55.62684819936096       -3.35507654068162        0.35284103244313
C           56.57979159059411       -2.39338700351952        0.36114349046885
C           55.90610410554523       -1.14604653747582        0.16607292010604
N           54.55004118090020       -1.33558429694817        0.07164779197812
N           51.77868165772912       -1.32558404950263       -0.08740459743930
C           53.17849582222433        4.97003299203041        0.11566531464383
C           53.45704943980723        5.69442603069756       -1.04323424782723
C           53.45679856344664        7.08117160743734       -1.01852636552964
C           53.18380733742265        7.75806837294972        0.16232219202575
C           52.90870388956393        7.04289958608060        1.31988724487375
C           52.90339107058067        5.65602726510211        1.29840094641538
H           57.64066042042834        0.06049403945215        0.02338185930256
H           57.65909432426513        2.62585274426365       -0.38565640298001
H           55.76929008283733        4.55154596840912       -0.34901194256277
H           50.59536817323207        4.54153228920865        0.60374115727963
H           48.69829490294689        2.62930024613896        0.58434293223440
H           48.70179949905032       -2.47229328462846       -0.62922604890161
H           50.59564175660381       -4.38779354728416       -0.66840540509171
H           54.45778625427209       -4.98004709547570       -1.78342381422008
H           54.44963048162051       -7.44821136034258       -1.82396064941405
H           53.13800561264945       -8.71307749730683       -0.14856008751245
H           51.84005075717953       -7.49605471097179        1.57248408165886
H           51.85890166384192       -5.02792356220302        1.62172236565399
H           55.74899684663877       -4.41836573790272        0.48096180002718
H           57.64570317403109       -2.49919786861517        0.48631014251294
H           53.66074914247382        5.16599317329195       -1.96790422579956
H           53.66975307482812        7.63542110923356       -1.92591240958096
H           53.18558949117253        8.84203484524118        0.18043624237290
H           52.69793788125406        7.56737670306354        2.24530442265614
H           52.69824954461038        5.09801862330697        2.20518569308113
C           36.27102656185510       -0.01639257092873        0.01374720356675
C           37.48732176745871       -0.00716178588905        0.01728016553589
C           47.13056587086302        0.06386120314648        0.01341863913493
C           48.34691057724994        0.07100267028400        0.01253572118587
Ni          42.30893818929955        0.02856816957290        0.01724910788565
C           38.89617152443945        0.00260164042425        0.01771958315531
C           39.57852483449762       -1.19478547146043       -0.21552225562011
C           38.92350075839766       -2.43629194268497       -0.47762564715803
C           39.88604840702560       -3.38971392677870       -0.49794984836069
C           41.13042119424327       -2.72510231991848       -0.25901429101528
N           40.93215783319116       -1.36951490792061       -0.12271164740189
C           42.33455770387551       -3.38431456280908       -0.05317951185585
C           43.52846431038895       -2.71557115607277        0.17984790818996
C           44.78286970896178       -3.37047643906152        0.39150089823759
C           45.73098419573069       -2.40265806166667        0.40962760333732
N           43.70617861658090       -1.35263736292370        0.09886875208168
C           45.05715800408899       -1.16148929043295        0.19826194860904
C           45.72171247720798        0.05447779723937        0.01439841693900
C           45.03909928318858        1.26060316594535       -0.16730942807346
C           45.69395532925887        2.51209062086290       -0.37724192192921
C           44.73143356748716        3.46553188964822       -0.35604150660598
C           43.48726637820554        2.79144754073070       -0.14399085081555
C           42.28339396273882        3.44131383093178        0.09114274115667
C           42.27175755691265        4.92576381822245        0.12328834904006
C           42.02543687460523        5.60339233178830        1.31713632431285
C           42.01646886210405        6.99010261863675        1.34510657846019
C           42.24847771981830        7.71327637705901        0.18306478165848
C           42.49233555686158        7.04456885705656       -1.00878117171319
C           42.50658435119524        5.65798880517529       -1.04027012026157
C           41.08968389557723        2.76330155782515        0.29699949209931
C           39.83549382828890        3.40863256206889        0.53746046541160
C           38.88735850309956        2.44089065642743        0.51582055868825
C           39.56099150215064        1.20974336633041        0.25181791974286
N           40.91184018688798        1.40498194977413        0.15884133633625
N           43.68561198917298        1.43128466093258       -0.06547917992947
C           42.34618490978389       -4.86877106498926       -0.08492297715821
C           42.10993792388160       -5.54988058345329       -1.27885326137713
C           42.12388284739212       -6.93650834561447       -1.30748460271280
C           42.36896139427223       -7.65622598198277       -0.14598961042145
C           42.60253108000400       -6.98409999848045        1.04599068429900
C           42.59378985008403       -5.59746721479467        1.07815713162118
H           37.86118952445424       -2.55181556612226       -0.61729372437774
H           39.77140481760941       -4.45105631173437       -0.64589028445340
H           44.91341672592661       -4.43509848196868        0.49655073923870
H           46.79497336857179       -2.50770793326448        0.54473348331845
H           46.75616921387575        2.63328346488513       -0.51298114285987
H           44.84592230153664        4.53219081299390       -0.45903942769639
H           41.85391015226011        5.03905897905826        2.22696799745146
H           41.82783221005420        7.50802355876352        2.27892976707160
H           42.23925154400818        8.79710347907234        0.20627487485472
H           42.67200772186638        7.60512688776518       -1.91945729832399
H           42.68724081892175        5.13610374193577       -1.97336639064269
H           39.70503169488484        4.46788280817051        0.68732155441427
H           37.82346584489013        2.54005313045160        0.65624441804178
H           41.92846653449045       -4.98797371503233       -2.18825135050520
H           41.94318255847771       -7.45706003505317       -2.24140648921743
H           42.37784852177329       -8.74004402490982       -0.16973837372057
H           42.79178025606875       -7.54206185982710        1.95636293589439
H           42.76619129964035       -5.07310865688059        2.01146328849041

          :  Hamiltonian                  GFN1-xTB          :
         :: total energy            -292.215423843236 Eh    ::
         :: gradient norm              0.000251973918 Eh/a0 ::
         :: HOMO-LUMO gap              1.026198948981 eV    ::
         :: SCC energy              -296.893207531835 Eh    ::
         :: repulsion energy           4.839258853811 Eh    ::

    * Orbital Energies and Occupations

         #    Occupation            Energy/Eh            Energy/eV
      -------------------------------------------------------------
         1        2.0000           -0.7812725             -21.2595
       ...           ...                  ...                  ...
       261        2.0000           -0.3971403             -10.8067
       262        2.0000           -0.3971121             -10.8060
       263        2.0000           -0.3971059             -10.8058
       264        2.0000           -0.3962531             -10.7826
       265        2.0000           -0.3962478             -10.7825
       266        2.0000           -0.3959823             -10.7752
       267        2.0000           -0.3958288             -10.7710
       268        2.0000           -0.3951392             -10.7523
       269        2.0000           -0.3951318             -10.7521
       270        2.0000           -0.3950983             -10.7512
       271        2.0000           -0.3950927             -10.7510
       272        2.0000           -0.3901483             -10.6165
       273        2.0000           -0.3804591             -10.3528 (HOMO)
       274                         -0.3427470              -9.3266 (LUMO)
       275                         -0.3314776              -9.0200
       276                         -0.3287381              -8.9454
       277                         -0.3286013              -8.9417
       278                         -0.3285899              -8.9414
       279                         -0.3270824              -8.9004
       280                         -0.3263570              -8.8806
       281                         -0.3263070              -8.8793
       282                         -0.3207250              -8.7274
       283                         -0.2995541              -8.1513
       284                         -0.2917661              -7.9394
       ...                                ...                  ...
       587                          1.3432081              36.5506
      -------------------------------------------------------------
                  HL-Gap            0.0377121 Eh            1.0262 eV

Wiberg/Mayer (AO) data.
largest (>0.10) Wiberg bond orders for each atom

     #   Z sym  total        # sym  WBO       # sym  WBO       # sym  WBO
 ---------------------------------------------------------------------------
     1  28 Ni   3.023 --     7 N    0.665    30 N    0.665    12 N    0.663
                            31 N    0.663
     2   6 C    3.934 --     3 C    1.364    29 C    1.363    38 H    0.970
     3   6 C    3.924 --     2 C    1.364     7 N    1.213     4 C    1.175
     4   6 C    3.960 --     5 C    1.650     3 C    1.175    39 H    0.975
     5   6 C    3.963 --     4 C    1.650     6 C    1.177    40 H    0.973
     6   6 C    3.920 --     8 C    1.326     7 N    1.219     5 C    1.177
     7   7 N    3.402 --     6 C    1.219     3 C    1.213     1 Ni   0.665
     8   6 C    3.939 --     9 C    1.330     6 C    1.326    32 C    1.018
     9   6 C    3.916 --     8 C    1.330    12 N    1.205    10 C    1.184
    10   6 C    3.959 --    11 C    1.636     9 C    1.184    41 H    0.973
    11   6 C    3.962 --    10 C    1.636    13 C    1.191    42 H    0.969
    12   7 N    3.406 --    13 C    1.237     9 C    1.205     1 Ni   0.663
    13   6 C    3.909 --    14 C    1.268    12 N    1.237    11 C    1.191
    14   6 C    3.944 --    13 C    1.268    15 C    1.268   113 C    1.171
    15   6 C    3.909 --    14 C    1.268    31 N    1.236    16 C    1.192
    16   6 C    3.962 --    17 C    1.634    15 C    1.192    43 H    0.970
    17   6 C    3.959 --    16 C    1.634    18 C    1.185    44 H    0.973
    18   6 C    3.916 --    19 C    1.326    31 N    1.206    17 C    1.185
    19   6 C    3.939 --    18 C    1.326    26 C    1.323    20 C    1.028
    20   6 C    3.989 --    21 C    1.395    25 C    1.394    19 C    1.028
                            23 C    0.108
    21   6 C    3.988 --    22 C    1.447    20 C    1.395    45 H    0.973
                            24 C    0.109
    22   6 C    3.995 --    21 C    1.447    23 C    1.438    46 H    0.973
                            25 C    0.110
    23   6 C    3.990 --    22 C    1.438    24 C    1.437    47 H    0.974
                            20 C    0.108
    24   6 C    3.995 --    25 C    1.448    23 C    1.437    48 H    0.973
                            21 C    0.109
    25   6 C    3.988 --    24 C    1.448    20 C    1.394    49 H    0.973
                            22 C    0.110
    26   6 C    3.920 --    19 C    1.323    30 N    1.220    27 C    1.177
    27   6 C    3.963 --    28 C    1.648    26 C    1.177    50 H    0.973
    28   6 C    3.959 --    27 C    1.648    29 C    1.176    51 H    0.975
    29   6 C    3.924 --     2 C    1.363    30 N    1.213    28 C    1.176
    30   7 N    3.402 --    26 C    1.220    29 C    1.213     1 Ni   0.665
    31   7 N    3.406 --    15 C    1.236    18 C    1.206     1 Ni   0.663
    32   6 C    3.988 --    33 C    1.399    37 C    1.399     8 C    1.018
                            35 C    0.109
    33   6 C    3.989 --    34 C    1.446    32 C    1.399    52 H    0.973
                            36 C    0.110
    34   6 C    3.995 --    33 C    1.446    35 C    1.439    53 H    0.973
                            37 C    0.110
    35   6 C    3.992 --    34 C    1.439    36 C    1.439    54 H    0.974
                            32 C    0.109
    36   6 C    3.995 --    37 C    1.446    35 C    1.439    55 H    0.973
                            33 C    0.110
    37   6 C    3.989 --    36 C    1.446    32 C    1.399    56 H    0.973
                            34 C    0.110
    38   1 H    1.000 --     2 C    0.970
    39   1 H    0.998 --     4 C    0.975
    40   1 H    1.005 --     5 C    0.973
    41   1 H    1.005 --    10 C    0.973
    42   1 H    1.005 --    11 C    0.969
    43   1 H    1.005 --    16 C    0.970
    44   1 H    1.004 --    17 C    0.973
    45   1 H    1.005 --    21 C    0.973
    46   1 H    1.003 --    22 C    0.973
    47   1 H    1.003 --    23 C    0.974
    48   1 H    1.003 --    24 C    0.973
    49   1 H    1.005 --    25 C    0.973
    50   1 H    1.005 --    27 C    0.973
    51   1 H    0.998 --    28 C    0.975
    52   1 H    1.004 --    33 C    0.973
    53   1 H    1.003 --    34 C    0.973
    54   1 H    1.003 --    35 C    0.974
    55   1 H    1.003 --    36 C    0.973
    56   1 H    1.004 --    37 C    0.973
    57  28 Ni   3.023 --    63 N    0.665    86 N    0.665    68 N    0.663
                            87 N    0.663
    58   6 C    3.934 --    59 C    1.364    85 C    1.363    94 H    0.970
    59   6 C    3.924 --    58 C    1.364    63 N    1.213    60 C    1.175
    60   6 C    3.960 --    61 C    1.650    59 C    1.175    95 H    0.975
    61   6 C    3.963 --    60 C    1.650    62 C    1.177    96 H    0.973
    62   6 C    3.920 --    64 C    1.326    63 N    1.219    61 C    1.177
    63   7 N    3.402 --    62 C    1.219    59 C    1.213    57 Ni   0.665
    64   6 C    3.939 --    65 C    1.330    62 C    1.326    88 C    1.019
    65   6 C    3.916 --    64 C    1.330    68 N    1.205    66 C    1.184
    66   6 C    3.959 --    67 C    1.636    65 C    1.184    97 H    0.973
    67   6 C    3.962 --    66 C    1.636    69 C    1.191    98 H    0.969
    68   7 N    3.406 --    69 C    1.237    65 C    1.205    57 Ni   0.663
    69   6 C    3.909 --    70 C    1.268    68 N    1.237    67 C    1.191
    70   6 C    3.944 --    69 C    1.268    71 C    1.267   116 C    1.171
    71   6 C    3.909 --    70 C    1.267    87 N    1.236    72 C    1.192
    72   6 C    3.962 --    73 C    1.634    71 C    1.192    99 H    0.970
    73   6 C    3.959 --    72 C    1.634    74 C    1.185   100 H    0.973
    74   6 C    3.916 --    75 C    1.326    87 N    1.206    73 C    1.185
    75   6 C    3.939 --    74 C    1.326    82 C    1.323    76 C    1.028
    76   6 C    3.989 --    77 C    1.395    81 C    1.394    75 C    1.028
                            79 C    0.108
    77   6 C    3.988 --    78 C    1.447    76 C    1.395   101 H    0.973
                            80 C    0.109
    78   6 C    3.995 --    77 C    1.447    79 C    1.438   102 H    0.973
                            81 C    0.110
    79   6 C    3.990 --    78 C    1.438    80 C    1.437   103 H    0.974
                            76 C    0.108
    80   6 C    3.995 --    81 C    1.448    79 C    1.437   104 H    0.973
                            77 C    0.109
    81   6 C    3.988 --    80 C    1.448    76 C    1.394   105 H    0.973
                            78 C    0.110
    82   6 C    3.920 --    75 C    1.323    86 N    1.220    83 C    1.177
    83   6 C    3.963 --    84 C    1.648    82 C    1.177   106 H    0.973
    84   6 C    3.959 --    83 C    1.648    85 C    1.176   107 H    0.975
    85   6 C    3.924 --    58 C    1.363    86 N    1.213    84 C    1.176
    86   7 N    3.402 --    82 C    1.220    85 C    1.213    57 Ni   0.665
    87   7 N    3.406 --    71 C    1.236    74 C    1.206    57 Ni   0.663
    88   6 C    3.988 --    93 C    1.399    89 C    1.398    64 C    1.019
                            91 C    0.109
    89   6 C    3.989 --    90 C    1.446    88 C    1.398   108 H    0.973
                            92 C    0.110
    90   6 C    3.995 --    89 C    1.446    91 C    1.438   109 H    0.973
                            93 C    0.110
    91   6 C    3.992 --    92 C    1.439    90 C    1.438   110 H    0.974
                            88 C    0.109
    92   6 C    3.995 --    93 C    1.446    91 C    1.439   111 H    0.973
                            89 C    0.110
    93   6 C    3.989 --    92 C    1.446    88 C    1.399   112 H    0.973
                            90 C    0.110
    94   1 H    1.000 --    58 C    0.970
    95   1 H    0.998 --    60 C    0.975
    96   1 H    1.005 --    61 C    0.973
    97   1 H    1.005 --    66 C    0.973
    98   1 H    1.005 --    67 C    0.969
    99   1 H    1.005 --    72 C    0.970
   100   1 H    1.004 --    73 C    0.973
   101   1 H    1.005 --    77 C    0.973
   102   1 H    1.003 --    78 C    0.973
   103   1 H    1.003 --    79 C    0.974
   104   1 H    1.003 --    80 C    0.973
   105   1 H    1.005 --    81 C    0.973
   106   1 H    1.005 --    83 C    0.973
   107   1 H    0.998 --    84 C    0.975
   108   1 H    1.004 --    89 C    0.973
   109   1 H    1.003 --    90 C    0.973
   110   1 H    1.003 --    91 C    0.974
   111   1 H    1.003 --    92 C    0.973
   112   1 H    1.004 --    93 C    0.973
   113   6 C    3.935 --   114 C    2.585    14 C    1.171
   114   6 C    3.937 --   113 C    2.585   118 C    1.172
   115   6 C    3.937 --   116 C    2.585   130 C    1.172
   116   6 C    3.935 --   115 C    2.585    70 C    1.171
   117  28 Ni   3.017 --   146 N    0.663   128 N    0.663   147 N    0.663
                           123 N    0.663
   118   6 C    3.934 --   119 C    1.266   145 C    1.266   114 C    1.172
   119   6 C    3.910 --   118 C    1.266   123 N    1.238   120 C    1.192
   120   6 C    3.960 --   121 C    1.634   119 C    1.192   154 H    0.969
   121   6 C    3.960 --   120 C    1.634   122 C    1.186   155 H    0.973
   122   6 C    3.914 --   124 C    1.328   123 N    1.204   121 C    1.186
   123   7 N    3.401 --   119 C    1.238   122 C    1.204   117 Ni   0.663
   124   6 C    3.934 --   122 C    1.328   125 C    1.328   148 C    1.018
   125   6 C    3.914 --   124 C    1.328   128 N    1.203   126 C    1.186
   126   6 C    3.960 --   127 C    1.634   125 C    1.186   156 H    0.973
   127   6 C    3.960 --   126 C    1.634   129 C    1.192   157 H    0.970
   128   7 N    3.401 --   129 C    1.238   125 C    1.203   117 Ni   0.663
   129   6 C    3.910 --   130 C    1.266   128 N    1.238   127 C    1.192
   130   6 C    3.934 --   131 C    1.266   129 C    1.266   115 C    1.172
   131   6 C    3.910 --   130 C    1.266   147 N    1.238   132 C    1.192
   132   6 C    3.960 --   133 C    1.634   131 C    1.192   158 H    0.969
   133   6 C    3.960 --   132 C    1.634   134 C    1.186   159 H    0.973
   134   6 C    3.914 --   135 C    1.328   147 N    1.204   133 C    1.186
   135   6 C    3.934 --   134 C    1.328   142 C    1.328   136 C    1.018
   136   6 C    3.988 --   137 C    1.399   141 C    1.399   135 C    1.018
                           139 C    0.109
   137   6 C    3.989 --   138 C    1.446   136 C    1.399   160 H    0.973
                           140 C    0.110
   138   6 C    3.995 --   137 C    1.446   139 C    1.439   161 H    0.973
                           141 C    0.110
   139   6 C    3.992 --   138 C    1.439   140 C    1.439   162 H    0.974
                           136 C    0.109
   140   6 C    3.995 --   141 C    1.446   139 C    1.439   163 H    0.973
                           137 C    0.110
   141   6 C    3.989 --   140 C    1.446   136 C    1.399   164 H    0.973
                           138 C    0.110
   142   6 C    3.914 --   135 C    1.328   146 N    1.203   143 C    1.186
   143   6 C    3.960 --   144 C    1.634   142 C    1.186   165 H    0.973
   144   6 C    3.960 --   143 C    1.634   145 C    1.192   166 H    0.970
   145   6 C    3.910 --   118 C    1.266   146 N    1.238   144 C    1.192
   146   7 N    3.401 --   145 C    1.238   142 C    1.203   117 Ni   0.663
   147   7 N    3.401 --   131 C    1.238   134 C    1.204   117 Ni   0.663
   148   6 C    3.988 --   153 C    1.399   149 C    1.399   124 C    1.018
                           151 C    0.109
   149   6 C    3.989 --   150 C    1.446   148 C    1.399   167 H    0.973
                           152 C    0.110
   150   6 C    3.995 --   149 C    1.446   151 C    1.439   168 H    0.973
                           153 C    0.110
   151   6 C    3.992 --   152 C    1.439   150 C    1.439   169 H    0.974
                           148 C    0.109
   152   6 C    3.995 --   153 C    1.446   151 C    1.439   170 H    0.973
                           149 C    0.110
   153   6 C    3.989 --   152 C    1.446   148 C    1.399   171 H    0.973
                           150 C    0.110
   154   1 H    1.005 --   120 C    0.969
   155   1 H    1.005 --   121 C    0.973
   156   1 H    1.005 --   126 C    0.973
   157   1 H    1.005 --   127 C    0.970
   158   1 H    1.005 --   132 C    0.969
   159   1 H    1.005 --   133 C    0.973
   160   1 H    1.004 --   137 C    0.973
   161   1 H    1.003 --   138 C    0.973
   162   1 H    1.003 --   139 C    0.974
   163   1 H    1.003 --   140 C    0.973
   164   1 H    1.004 --   141 C    0.973
   165   1 H    1.005 --   143 C    0.973
   166   1 H    1.005 --   144 C    0.970
   167   1 H    1.004 --   149 C    0.973
   168   1 H    1.003 --   150 C    0.973
   169   1 H    1.003 --   151 C    0.974
   170   1 H    1.003 --   152 C    0.973
   171   1 H    1.004 --   153 C    0.973
 ---------------------------------------------------------------------------

           -------------------------------------------------
          | TOTAL ENERGY             -292.215423843236 Eh   |
          | GRADIENT NORM               0.000251973918 Eh/α |
          | HOMO-LUMO GAP               1.026198948981 eV   |
           -------------------------------------------------

 * finished run on 2022/07/30 at 05:25:11.529
