   * xtb version 6.5.1 (b24c23e) compiled by 'conda@728c89f4b128' on 2022-07-12
          program call               : xtb Fe_Ph3Me_C4_3.xyz --gfn 1 --opt -T 48

   ID    Z sym.   atoms
    1   26 Fe     1, 75, 157
    2    6 C      2-6, 8-20, 22-27, 29-42, 76-80, 82-94, 96-101, 103-116,
                  149-156, 158-162, 164-176, 178-183, 185-198
    3    7 N      7, 21, 28, 43, 81, 95, 102, 117, 163, 177, 184, 199
    4    1 H      44-74, 118-148, 200-229

          :  Hamiltonian                  GFN1-xTB          :
 * total energy  :  -353.9219815 Eh     change       -0.1993862E-07 Eh
 * total energy  :  -354.4080821 Eh     change       -0.4861006E+00 Eh
 * total energy  :  -354.5646873 Eh     change       -0.1566053E+00 Eh
 * total energy  :  -354.6554711 Eh     change       -0.9078374E-01 Eh
 * total energy  :  -354.7115940 Eh     change       -0.5612293E-01 Eh
 * total energy  :  -354.7392136 Eh     change       -0.2761960E-01 Eh
 * total energy  :  -354.7574032 Eh     change       -0.1818964E-01 Eh
 * total energy  :  -354.7695030 Eh     change       -0.1209972E-01 Eh
 * total energy  :  -354.7756526 Eh     change       -0.6149672E-02 Eh
 * total energy  :  -354.7840309 Eh     change       -0.8378284E-02 Eh
 * total energy  :  -354.8255089 Eh     change       -0.1103417E-04 Eh
 * total energy  :  -354.8255194 Eh     change       -0.1050422E-04 Eh
 * total energy  :  -354.8255290 Eh     change       -0.9657877E-05 Eh
 * total energy  :  -354.8255393 Eh     change       -0.1030771E-04 Eh
 * total energy  :  -354.8255518 Eh     change       -0.1250100E-04 Eh
 * total energy  :  -354.8255661 Eh     change       -0.1425258E-04 Eh
 * total energy  :  -354.8255813 Eh     change       -0.1520299E-04 Eh
 * total energy  :  -354.8255964 Eh     change       -0.1511727E-04 Eh
 * total energy  :  -354.8255991 Eh     change       -0.2680858E-05 Eh
   *** GEOMETRY OPTIMIZATION CONVERGED AFTER 122 ITERATIONS ***

 final structure:
================
229
 xtb: 6.5.1 (b24c23e)
Fe          33.00673223067009        0.06098042504058       -0.02996925935167
C           29.61212243065919        0.13605635355848       -0.11967865523170
C           30.27290840957926        1.27198565507382        0.30167603240137
C           29.61011012070034        2.47797175884279        0.69974447862556
C           30.57177777634689        3.32085996376243        1.14536601117029
C           31.82082253379960        2.62796551421001        1.01689115905433
N           31.62759084186275        1.38664893073621        0.47410590102420
C           33.03544328557800        3.14169856977346        1.45187605256782
C           33.05025608963938        4.48480768682331        2.09613773570231
C           33.28146484438381        5.62474005502805        1.32005977943115
C           33.51097310317000        5.49100193919260       -0.16174111611700
C           33.29747105523264        6.87310057126807        1.92974955334369
C           33.08739876654303        7.00290856320032        3.29939309413764
C           33.12888948346930        8.36162420578655        3.94501546496337
C           32.85859948425100        5.86215316538623        4.06082652670684
C           32.83695941820693        4.60275627643700        3.47202414918259
C           32.58732525400281        3.37153206013526        4.30146559762432
C           34.23720012038691        2.46791247699844        1.30596930051019
C           35.49616252696507        2.98230394263949        1.75631381760431
C           36.44482982513198        2.10715280192200        1.34370348274900
N           34.41569428214724        1.27316485686631        0.65039499876327
C           35.76243857318115        1.06235984376339        0.64511956970128
C           36.42277283156807        0.02596121540579       -0.02599792548555
C           35.74285651783065       -1.00462552978637       -0.68596409417115
C           36.40640776812961       -2.08151948969132       -1.35338795633548
C           35.44253592356026       -2.95326141786744       -1.73694764387269
C           34.19251009634785       -2.40030329110280       -1.30818971258819
N           34.39197161965551       -1.18890930182687       -0.69062827556950
C           32.97547163069788       -3.04654426308891       -1.45377074108262
C           32.96620529378365       -4.41314821523728       -2.04663880689096
C           32.78456488064244       -4.57936079434815       -3.42315673421492
C           32.58972305194430       -3.37541536987569       -4.30565749550982
C           32.78715029558477       -5.86003111228011       -3.96121749970780
C           32.96670961869405       -6.97700551236931       -3.14965985573518
C           32.96659156399252       -8.35433797353100       -3.75609244784668
C           33.14294774854596       -6.79944449665353       -1.78246318832176
C           33.14522702744486       -5.52673503209915       -1.22192774232002
C           33.34019071717488       -5.34130285380083        0.25924455596246
C           31.76584928888145       -2.47717558357617       -1.07876533843764
C           30.49631484117733       -3.12234055754827       -1.24870110173345
C           29.55007433509133       -2.22237968618612       -0.88998228729651
C           30.24323891335376       -1.03344517608547       -0.49259891950908
N           31.59843120646000       -1.20995069010073       -0.58940232933552
H           28.52861052200316        0.16041374802730       -0.14975475699582
H           28.54465192237703        2.63624943853763        0.64528858822678
H           30.46422377458964        4.32100796608364        1.53356434782601
H           32.67154826319028        4.97503289994127       -0.63129412177093
H           34.41179762889630        4.90464792454866       -0.35315101360522
H           33.62626623323034        6.46912108763109       -0.62773168612791
H           33.47577971154016        7.75855660148884        1.32835060411705
H           32.63462502496867        8.34769652905422        4.91641897739960
H           34.16584911068927        8.67182012233023        4.09301023425375
H           32.64222717714512        9.10468155317437        3.31216321173328
H           32.69374692382506        5.95339124541020        5.12943839374276
H           33.41209376767540        2.66527979971771        4.19025417681868
H           32.48392788509334        3.62645518624783        5.35572650082918
H           31.67424726185487        2.87220627894369        3.97151968425917
H           35.62135329770778        3.89880717295709        2.30997949876105
H           37.51266636147828        2.15409146270570        1.48506003852060
H           37.47338738456122       -2.15228684122737       -1.49131017001216
H           35.55164924654485       -3.88960575200616       -2.25998411448840
H           31.68058855492299       -2.84190027504841       -4.02144096019246
H           32.50919801810793       -3.66853014269079       -5.35196355681227
H           33.42855611812079       -2.68544195303365       -4.19776472411804
H           32.64856095445816       -5.99105261838487       -5.02947020809849
H           33.73482574894147       -8.42906714870629       -4.52782009425278
H           33.15781122308046       -9.11502638576756       -2.99938397425273
H           32.00146717051044       -8.56229415218161       -4.22202806327064
H           33.28230092888896       -7.66356080351136       -1.14113892110218
H           32.50530330800460       -4.78196256966966        0.68520936155831
H           34.25353343492353       -4.77517553559646        0.45225848224626
H           33.41268432064125       -6.30312742139459        0.76598315903428
H           30.36586005004027       -4.13124622746703       -1.60599494544740
H           28.47728133090904       -2.33345732653732       -0.88931154838935
Fe          59.88831280997870       -0.02437461883305       -0.05865250983180
C           63.28312385843990        0.00253017604425       -0.15025695178078
C           62.63488438289001       -1.16314416130074       -0.50546639755204
C           63.30981930452712       -2.37015722000953       -0.87912332596498
C           62.35082969571216       -3.25728847993374       -1.23607281742506
C           61.09165531446499       -2.58703037978253       -1.08751609903630
N           61.27776871159609       -1.31610407022147       -0.61450432322580
C           59.87501693132574       -3.13842060084402       -1.46612321941878
C           59.86288997723626       -4.51093441409798       -2.04516886852340
C           60.06564666519668       -4.69613958730237       -3.41546335971378
C           60.30531476686025       -3.50703213343443       -4.30701297819991
C           60.04279614145145       -5.98293722327548       -3.94103502168221
C           59.82351975517369       -7.08566515184446       -3.12225611761685
C           59.77725086150947       -8.47282088750439       -3.70389306392545
C           59.62539036942938       -6.88912866031054       -1.75917236846132
C           59.64260130229160       -5.61187180194217       -1.21201281297691
C           59.42646325685802       -5.40620486482777        0.26356655803343
C           58.66825709632576       -2.47073974585345       -1.33081430396536
C           57.41027904628946       -3.00836017808337       -1.75588745810410
C           56.45850591468319       -2.12344024223471       -1.37242358886794
N           58.48634602450520       -1.25260661015310       -0.72119419983671
C           57.13721784591101       -1.05265409058216       -0.71035329990933
C           56.47323380856816       -0.01399763271414       -0.04806450090245
C           57.14921566236466        1.01870815207103        0.61166771598489
C           56.48443270361093        2.07676859813785        1.30733530932438
C           57.44465680386664        2.95211645898448        1.69193795812614
C           58.69342163522018        2.42343134549684        1.22993061530383
N           58.49764866463807        1.22120398198485        0.59390351356874
C           59.90217847487364        3.09075082247107        1.34756551375464
C           59.90517243616746        4.44739475078593        1.96301563082393
C           59.66306844223012        5.57138427544823        1.16714710628002
C           59.40654344455704        5.40710197036443       -0.30714247856443
C           59.65986912215631        6.83225583551775        1.75056726086387
C           59.89176936802136        6.99022231105940        3.11383557634710
C           59.89505935188295        8.36561919035895        3.72458263949584
C           60.13375379672046        5.86550544752551        3.89460030857313
C           60.14299417434781        4.59390388609773        3.33209701329220
C           60.40371668369738        3.37992503165889        4.18330239659660
C           61.10798429981214        2.55461332892641        0.91607362495947
C           62.36648322887618        3.23322453759276        1.02809367354142
C           63.31711809140880        2.36472771782269        0.60882905503569
C           62.63810175672173        1.15842019544989        0.24005078806837
N           61.28445513887905        1.29817871214648        0.40228700642670
H           64.36706274958473        0.00842319505667       -0.17282975464861
H           64.38031300358998       -2.50096389231200       -0.86577845296121
H           62.46633753090913       -4.27323479701184       -1.57827759953648
H           61.22561364526609       -2.99647077416445       -4.01656598086200
H           59.48506518878558       -2.79269489310904       -4.21629894169613
H           60.39059419551808       -3.81270957261008       -5.34934037918888
H           60.19882878536912       -6.12679156353728       -5.00519349346419
H           60.16942168360222       -9.20346634866571       -2.99585683682833
H           58.74428809596184       -8.74473974832518       -3.93354152804556
H           60.35619422959068       -8.52832714988844       -4.62592807854322
H           59.45533140324569       -7.74403588992242       -1.11286226383139
H           58.52090495922019       -4.82089680084712        0.43487147520013
H           59.32695409101010       -6.36081706787724        0.77930291842721
H           60.26456694432041       -4.85802913968372        0.69763476648036
H           57.28796131867591       -3.94504447293988       -2.27539250139952
H           55.39031279132658       -2.18143737400749       -1.50687123507281
H           55.41928103098454        2.13195770808611        1.46514299524015
H           57.33370640373112        3.87665083013918        2.23521811873495
H           60.23169261698698        4.87066942209417       -0.77901394431622
H           59.29446161704942        6.37582987012011       -0.79313453426316
H           58.49575884780892        4.82749661348050       -0.46993952700214
H           59.47134436444480        7.70523475079863        1.13420540724942
H           59.07630311047214        8.96580670955667        3.32564241318191
H           59.79632593049586        8.31179414791283        4.80874989136824
H           60.83208199537062        8.87583929540847        3.49032640145000
H           60.31556176799899        5.97853933021626        4.95837498978644
H           61.31423988592546        2.87582391527597        3.85344337755804
H           59.57930776339916        2.67001868792605        4.09528116966648
H           60.51833173501235        3.65612604209741        5.23102210070459
H           62.48734378321263        4.24182237071849        1.38963891633128
H           64.38498197826343        2.50590586572909        0.55434482832190
C           39.04811509693844        0.00791883560130       -0.02466248172195
C           37.82453620357847        0.01354023925304       -0.02687184906899
C           40.39511830377524       -0.00406494519012       -0.02370976905400
C           41.61881711626033       -0.01590931336144       -0.02313819485079
C           52.49908459329256       -0.00779198016517       -0.03043228524280
C           51.27586789674751       -0.01216011833401       -0.02881779519170
C           53.84711030462590       -0.00771528827600       -0.03599571086139
C           55.07022614249779       -0.01154514024388       -0.03900160725921
Fe          46.44675431448920       -0.05809479607688       -0.01570760865941
C           43.01996682020699       -0.02686046334580       -0.02125253650458
C           43.69141080687543        0.33583751232021        1.15307457931838
C           43.01555384410888        0.70045395986981        2.35892551667001
C           43.97309170768315        0.87427217138998        3.30215822466316
C           45.22915464904874        0.62134185566955        2.66321884411809
N           45.04164448315391        0.31182040686810        1.33843712495185
C           46.44613705165219        0.65433662949379        3.32741644881547
C           46.44305260525669        0.91973542642582        4.79320411406155
C           46.57570871728226        2.22614785400063        5.27132114515464
C           46.72201920154542        3.36938187718422        4.30298436461264
C           46.56929758395481        2.45438911931195        6.64264489346985
C           46.43276080100450        1.40228045336969        7.54197100221199
C           46.44679842003288        1.65644091939259        9.02504328706527
C           46.30263842587334        0.10582873873642        7.05377528479545
C           46.30542129962624       -0.14635629131710        5.68735756171614
C           46.16159087496444       -1.55096458962421        5.16534306271911
C           47.66543422998754        0.45079203467338        2.69857212180800
C           48.92404079904635        0.51130586301433        3.37860633492740
C           49.88314238166333        0.34217490768384        2.43619734284224
N           47.85343915608618        0.22758091584970        1.35667861040445
C           49.20515959998334        0.17120471128896        1.18925262072201
C           49.87348990369625       -0.02006909976748       -0.02594769772176
C           49.20295623609194       -0.22869641607462       -1.23701567663304
C           49.87853615096917       -0.40927452917301       -2.48395011842419
C           48.91862514879006       -0.61345099959925       -3.41850696163793
C           47.66188473924678       -0.56005954834888       -2.73442052813699
N           47.85138069128901       -0.30586846170122       -1.39830569489430
C           46.44291251514219       -0.78623982617127       -3.35622651773889
C           46.44032675974685       -1.08180940721826       -4.81625793780015
C           46.30246747306742       -0.03470681064008       -5.73259841536498
C           46.15433001123111        1.38011246222471       -5.24021331488244
C           46.30293702060569       -0.31519897704963       -7.09346695586234
C           46.43675003370491       -1.62123326149878       -7.55443389964649
C           46.45554183240720       -1.90561342805567       -9.03195769623615
C           46.57298266587453       -2.65425084342532       -6.63323673242637
C           46.57610818277372       -2.39757353147183       -5.26691028699770
C           46.72404395573566       -3.51993445932694       -4.27469972882431
C           45.22630167892072       -0.74010455695460       -2.69224472136286
C           43.96882475691759       -0.99419479993599       -3.32801133020570
C           43.01127420833630       -0.78768210494514       -2.39135950411488
C           43.68892263559644       -0.40752131466211       -1.19136326565372
N           45.03943398706401       -0.39863675785234       -1.37521040784729
H           41.94628715488088        0.79650105581157        2.45756783097527
H           43.85541943880322        1.14669968836674        4.33848061300752
H           47.62511565947319        3.24351275033174        3.70266331355393
H           46.78349544193495        4.32076573637204        4.83039737565355
H           45.87017002943276        3.40055515936803        3.62118227879077
H           46.67063157805443        3.46881589220322        7.01419277977499
H           47.45772837766759        1.51928760907587        9.41591385341586
H           45.78697851943054        0.96016403424476        9.54353438845448
H           46.13099821287598        2.67550725178656        9.24883714042554
H           46.19559385823167       -0.72093077186831        7.74834311943517
H           45.26320411477593       -1.63625366423277        4.55098800812110
H           47.01801790566531       -1.81352668318038        4.54157084335181
H           46.09300055078011       -2.26568699097920        5.98481948169334
H           49.04217183073596        0.66818165016652        4.43853551890168
H           50.95421182738878        0.32960844479570        2.55841075420742
H           50.94871223697508       -0.38120789132683       -2.61121602203841
H           49.03511619117155       -0.78919854716376       -4.47564683279677
H           45.24786612403764        1.47859135584908       -4.63979463107258
H           46.09765248697260        2.07865395113220       -6.07441468142443
H           47.00267148333232        1.65380008902108       -4.61027939481614
H           46.19611440347403        0.49679306839734       -7.80527416162881
H           46.14755493963116       -2.93127857749976       -9.23553062796382
H           47.46624307480032       -1.76904242667035       -9.42363311098012
H           45.79180119516505       -1.22481975255054       -9.56579573235521
H           46.67707812236959       -3.67596584337083       -6.98344290958391
H           46.77881021419640       -4.48286138718721       -4.78151112095071
H           45.87660239007051       -3.53295748342488       -3.58689841186907
H           47.63153861399356       -3.38429596577022       -3.68312975921348
H           43.85036233686194       -1.28882368219617       -4.35815650352466
H           41.94119981496227       -0.87420249202075       -2.49015610607632

          :  Hamiltonian                  GFN1-xTB          :
         :: total energy            -354.825599094068 Eh    ::
         :: gradient norm              0.000418208181 Eh/a0 ::
         :: HOMO-LUMO gap              0.059172791137 eV    ::
         :: SCC energy              -360.554711863456 Eh    ::
         :: repulsion energy           5.939031048897 Eh    ::

    * Orbital Energies and Occupations

         #    Occupation            Energy/Eh            Energy/eV
      -------------------------------------------------------------
         1        2.0000           -0.7709141             -20.9776
       ...           ...                  ...                  ...
       320        2.0000           -0.3956831             -10.7671
       321        2.0000           -0.3952880             -10.7563
       322        1.9982           -0.3894552             -10.5976
       323        1.9921           -0.3880644             -10.5598
       324        1.9917           -0.3880217             -10.5586
       325        1.9916           -0.3880105             -10.5583
       326        1.9667           -0.3866861             -10.5223
       327        1.9550           -0.3863961             -10.5144
       328        1.9483           -0.3862602             -10.5107
       329        1.9454           -0.3862063             -10.5092
       330        1.9438           -0.3861792             -10.5085
       331        1.9400           -0.3861154             -10.5067
       332        1.3523           -0.3835115             -10.4359 (HOMO)
       333        0.3494           -0.3813370             -10.3767 (LUMO)
       334        0.3309           -0.3812750             -10.3750
       335        0.2945           -0.3811438             -10.3715
       336                         -0.3417694              -9.3000
       337                         -0.3317358              -9.0270
       338                         -0.3273433              -8.9075
       339                         -0.3265126              -8.8849
       340                         -0.3245812              -8.8323
       341                         -0.3242169              -8.8224
       342                         -0.3022690              -8.2252
       343                         -0.3019197              -8.2157
       ...                                ...                  ...
       747                          1.5105021              41.1029
      -------------------------------------------------------------
                  HL-Gap            0.0021746 Eh            0.0592 eV

Wiberg/Mayer (AO) data.
largest (>0.10) Wiberg bond orders for each atom

     #   Z sym  total        # sym  WBO       # sym  WBO       # sym  WBO
 ---------------------------------------------------------------------------
     1  26 Fe   3.108 --     7 N    0.667    43 N    0.666    28 N    0.660
                            21 N    0.659
     2   6 C    3.916 --     3 C    1.363    42 C    1.362    44 H    0.970
     3   6 C    3.926 --     2 C    1.363     7 N    1.209     4 C    1.173
     4   6 C    3.959 --     5 C    1.649     3 C    1.173    45 H    0.975
     5   6 C    3.962 --     4 C    1.649     6 C    1.174    46 H    0.974
     6   6 C    3.919 --     8 C    1.318     7 N    1.221     5 C    1.174
     7   7 N    3.378 --     6 C    1.221     3 C    1.209     1 Fe   0.667
     8   6 C    3.919 --    18 C    1.339     6 C    1.318     9 C    1.005
     9   6 C    3.987 --    16 C    1.382    10 C    1.377     8 C    1.005
                            13 C    0.104
    10   6 C    3.984 --    12 C    1.423     9 C    1.377    11 C    1.021
                            15 C    0.102
    11   6 C    3.995 --    10 C    1.021    49 H    0.986    47 H    0.974
                            48 H    0.973
    12   6 C    3.993 --    10 C    1.423    13 C    1.411    50 H    0.971
                            16 C    0.103
    13   6 C    3.988 --    15 C    1.417    12 C    1.411    14 C    1.020
                             9 C    0.104
    14   6 C    3.996 --    13 C    1.020    51 H    0.985    53 H    0.981
                            52 H    0.972
    15   6 C    3.992 --    16 C    1.418    13 C    1.417    54 H    0.970
                            10 C    0.102
    16   6 C    3.984 --    15 C    1.418     9 C    1.382    17 C    1.021
                            12 C    0.103
    17   6 C    3.995 --    16 C    1.021    56 H    0.986    55 H    0.974
                            57 H    0.973
    18   6 C    3.917 --     8 C    1.339    21 N    1.197    19 C    1.178
    19   6 C    3.957 --    20 C    1.639    18 C    1.178    58 H    0.974
    20   6 C    3.960 --    19 C    1.639    22 C    1.188    59 H    0.974
    21   7 N    3.377 --    22 C    1.246    18 C    1.197     1 Fe   0.659
    22   6 C    3.907 --    23 C    1.252    21 N    1.246    20 C    1.188
    23   6 C    3.916 --    24 C    1.253    22 C    1.252   150 C    1.198
    24   6 C    3.907 --    23 C    1.253    28 N    1.245    25 C    1.188
    25   6 C    3.960 --    26 C    1.639    24 C    1.188    60 H    0.974
    26   6 C    3.957 --    25 C    1.639    27 C    1.179    61 H    0.974
    27   6 C    3.917 --    29 C    1.338    28 N    1.197    26 C    1.179
    28   7 N    3.377 --    24 C    1.245    27 C    1.197     1 Fe   0.660
    29   6 C    3.918 --    27 C    1.338    39 C    1.319    30 C    1.005
    30   6 C    3.987 --    37 C    1.383    31 C    1.376    29 C    1.005
                            34 C    0.104
    31   6 C    3.984 --    33 C    1.425    30 C    1.376    32 C    1.020
                            36 C    0.102
    32   6 C    3.995 --    31 C    1.020    63 H    0.986    64 H    0.974
                            62 H    0.973
    33   6 C    3.993 --    31 C    1.425    34 C    1.409    65 H    0.971
                            37 C    0.104
    34   6 C    3.988 --    36 C    1.419    33 C    1.409    35 C    1.020
                            30 C    0.104
    35   6 C    3.996 --    34 C    1.020    67 H    0.986    66 H    0.976
                            68 H    0.975
    36   6 C    3.992 --    34 C    1.419    37 C    1.416    69 H    0.969
                            31 C    0.102
    37   6 C    3.984 --    36 C    1.416    30 C    1.383    38 C    1.021
                            33 C    0.104
    38   6 C    3.995 --    37 C    1.021    72 H    0.986    70 H    0.975
                            71 H    0.973
    39   6 C    3.919 --    29 C    1.319    43 N    1.220    40 C    1.174
    40   6 C    3.962 --    41 C    1.649    39 C    1.174    73 H    0.974
    41   6 C    3.959 --    40 C    1.649    42 C    1.174    74 H    0.975
    42   6 C    3.926 --     2 C    1.362    43 N    1.211    41 C    1.174
    43   7 N    3.378 --    39 C    1.220    42 C    1.211     1 Fe   0.666
    44   1 H    1.001 --     2 C    0.970
    45   1 H    0.998 --     4 C    0.975
    46   1 H    1.002 --     5 C    0.974
    47   1 H    1.007 --    11 C    0.974
    48   1 H    1.008 --    11 C    0.973
    49   1 H    1.004 --    11 C    0.986
    50   1 H    0.999 --    12 C    0.971
    51   1 H    1.004 --    14 C    0.985
    52   1 H    1.006 --    14 C    0.972
    53   1 H    1.005 --    14 C    0.981
    54   1 H    1.000 --    15 C    0.970
    55   1 H    1.007 --    17 C    0.974
    56   1 H    1.004 --    17 C    0.986
    57   1 H    1.007 --    17 C    0.973
    58   1 H    1.002 --    19 C    0.974
    59   1 H    1.002 --    20 C    0.974
    60   1 H    1.002 --    25 C    0.974
    61   1 H    1.002 --    26 C    0.974
    62   1 H    1.008 --    32 C    0.973
    63   1 H    1.004 --    32 C    0.986
    64   1 H    1.007 --    32 C    0.974
    65   1 H    0.999 --    33 C    0.971
    66   1 H    1.005 --    35 C    0.976
    67   1 H    1.004 --    35 C    0.986
    68   1 H    1.005 --    35 C    0.975
    69   1 H    1.000 --    36 C    0.969
    70   1 H    1.007 --    38 C    0.975
    71   1 H    1.008 --    38 C    0.973
    72   1 H    1.004 --    38 C    0.986
    73   1 H    1.002 --    40 C    0.974
    74   1 H    0.998 --    41 C    0.975
    75  26 Fe   3.137 --   117 N    0.672    81 N    0.668    95 N    0.666
                           102 N    0.662
    76   6 C    3.920 --   116 C    1.364    77 C    1.362   118 H    0.971
    77   6 C    3.926 --    76 C    1.362    81 N    1.210    78 C    1.173
    78   6 C    3.959 --    79 C    1.649    77 C    1.173   119 H    0.975
    79   6 C    3.962 --    78 C    1.649    80 C    1.174   120 H    0.974
    80   6 C    3.920 --    82 C    1.320    81 N    1.219    79 C    1.174
    81   7 N    3.380 --    80 C    1.219    77 C    1.210    75 Fe   0.668
    82   6 C    3.923 --    92 C    1.337    80 C    1.320    83 C    1.005
    83   6 C    3.987 --    84 C    1.381    90 C    1.379    82 C    1.005
                            87 C    0.104
    84   6 C    3.984 --    86 C    1.419    83 C    1.381    85 C    1.020
                            89 C    0.103
    85   6 C    3.995 --    84 C    1.020   123 H    0.986   122 H    0.975
                           121 H    0.973
    86   6 C    3.993 --    84 C    1.419    87 C    1.415   124 H    0.970
                            90 C    0.103
    87   6 C    3.988 --    86 C    1.415    89 C    1.413    88 C    1.020
                            83 C    0.104
    88   6 C    3.996 --    87 C    1.020   127 H    0.984   125 H    0.982
                           126 H    0.971
    89   6 C    3.993 --    90 C    1.422    87 C    1.413   128 H    0.970
                            84 C    0.103
    90   6 C    3.984 --    89 C    1.422    83 C    1.379    91 C    1.021
                            86 C    0.103
    91   6 C    3.995 --    90 C    1.021   130 H    0.986   131 H    0.975
                           129 H    0.973
    92   6 C    3.917 --    82 C    1.337    95 N    1.198    93 C    1.178
    93   6 C    3.958 --    94 C    1.639    92 C    1.178   132 H    0.974
    94   6 C    3.960 --    93 C    1.639    96 C    1.187   133 H    0.974
    95   7 N    3.381 --    96 C    1.242    92 C    1.198    75 Fe   0.666
    96   6 C    3.907 --    97 C    1.256    95 N    1.242    94 C    1.187
    97   6 C    3.922 --    96 C    1.256    98 C    1.255   156 C    1.192
    98   6 C    3.908 --    97 C    1.255   102 N    1.243    99 C    1.188
    99   6 C    3.960 --   100 C    1.639    98 C    1.188   134 H    0.974
   100   6 C    3.958 --    99 C    1.639   101 C    1.178   135 H    0.974
   101   6 C    3.917 --   103 C    1.337   102 N    1.198   100 C    1.178
   102   7 N    3.380 --    98 C    1.243   101 C    1.198    75 Fe   0.662
   103   6 C    3.923 --   101 C    1.337   113 C    1.320   104 C    1.005
   104   6 C    3.987 --   111 C    1.383   105 C    1.377   103 C    1.005
                           108 C    0.104
   105   6 C    3.984 --   107 C    1.424   104 C    1.377   106 C    1.021
                           110 C    0.102
   106   6 C    3.995 --   105 C    1.021   137 H    0.986   136 H    0.975
                           138 H    0.973
   107   6 C    3.993 --   105 C    1.424   108 C    1.410   139 H    0.971
                           111 C    0.103
   108   6 C    3.988 --   110 C    1.417   107 C    1.410   109 C    1.020
                           104 C    0.104
   109   6 C    3.996 --   108 C    1.020   141 H    0.985   140 H    0.980
                           142 H    0.972
   110   6 C    3.992 --   108 C    1.417   111 C    1.417   143 H    0.970
                           105 C    0.102
   111   6 C    3.984 --   110 C    1.417   104 C    1.383   112 C    1.021
                           107 C    0.103
   112   6 C    3.995 --   111 C    1.021   146 H    0.986   145 H    0.975
                           144 H    0.973
   113   6 C    3.920 --   103 C    1.320   117 N    1.220   114 C    1.174
   114   6 C    3.962 --   115 C    1.650   113 C    1.174   147 H    0.974
   115   6 C    3.959 --   114 C    1.650   116 C    1.173   148 H    0.975
   116   6 C    3.926 --    76 C    1.364   117 N    1.209   115 C    1.173
   117   7 N    3.381 --   113 C    1.220   116 C    1.209    75 Fe   0.672
   118   1 H    1.001 --    76 C    0.971
   119   1 H    0.998 --    78 C    0.975
   120   1 H    1.002 --    79 C    0.974
   121   1 H    1.008 --    85 C    0.973
   122   1 H    1.007 --    85 C    0.975
   123   1 H    1.004 --    85 C    0.986
   124   1 H    1.000 --    86 C    0.970
   125   1 H    1.005 --    88 C    0.982
   126   1 H    1.006 --    88 C    0.971
   127   1 H    1.004 --    88 C    0.984
   128   1 H    1.000 --    89 C    0.970
   129   1 H    1.008 --    91 C    0.973
   130   1 H    1.004 --    91 C    0.986
   131   1 H    1.007 --    91 C    0.975
   132   1 H    1.002 --    93 C    0.974
   133   1 H    1.002 --    94 C    0.974
   134   1 H    1.002 --    99 C    0.974
   135   1 H    1.002 --   100 C    0.974
   136   1 H    1.007 --   106 C    0.975
   137   1 H    1.004 --   106 C    0.986
   138   1 H    1.008 --   106 C    0.973
   139   1 H    0.999 --   107 C    0.971
   140   1 H    1.005 --   109 C    0.980
   141   1 H    1.004 --   109 C    0.985
   142   1 H    1.006 --   109 C    0.972
   143   1 H    1.000 --   110 C    0.970
   144   1 H    1.008 --   112 C    0.973
   145   1 H    1.007 --   112 C    0.975
   146   1 H    1.004 --   112 C    0.986
   147   1 H    1.002 --   114 C    0.974
   148   1 H    0.998 --   115 C    0.975
   149   6 C    3.922 --   150 C    2.451   151 C    1.322
   150   6 C    3.908 --   149 C    2.451    23 C    1.198   152 C    0.194
   151   6 C    3.918 --   152 C    2.449   149 C    1.322
   152   6 C    3.911 --   151 C    2.449   158 C    1.202   150 C    0.194
   153   6 C    3.918 --   154 C    2.455   155 C    1.317
   154   6 C    3.911 --   153 C    2.455   179 C    1.197   156 C    0.194
   155   6 C    3.923 --   156 C    2.458   153 C    1.317
   156   6 C    3.909 --   155 C    2.458    97 C    1.192   154 C    0.194
   157  26 Fe   3.057 --   184 N    0.650   163 N    0.650   177 N    0.649
                           199 N    0.648
   158   6 C    3.902 --   159 C    1.249   198 C    1.249   152 C    1.202
   159   6 C    3.908 --   158 C    1.249   163 N    1.248   160 C    1.190
   160   6 C    3.959 --   161 C    1.635   159 C    1.190   200 H    0.973
   161   6 C    3.959 --   160 C    1.635   162 C    1.182   201 H    0.974
   162   6 C    3.915 --   164 C    1.327   163 N    1.203   161 C    1.182
   163   7 N    3.367 --   159 C    1.248   162 C    1.203   157 Fe   0.650
   164   6 C    3.910 --   162 C    1.327   174 C    1.327   165 C    1.005
   165   6 C    3.986 --   166 C    1.381   172 C    1.378   164 C    1.005
                           169 C    0.104
   166   6 C    3.984 --   168 C    1.419   165 C    1.381   167 C    1.021
                           171 C    0.103
   167   6 C    3.995 --   166 C    1.021   203 H    0.986   204 H    0.974
                           202 H    0.973
   168   6 C    3.992 --   166 C    1.419   169 C    1.415   205 H    0.970
                           172 C    0.103
   169   6 C    3.988 --   168 C    1.415   171 C    1.412   170 C    1.020
                           165 C    0.104
   170   6 C    3.996 --   169 C    1.020   208 H    0.984   207 H    0.982
                           206 H    0.971
   171   6 C    3.993 --   172 C    1.422   169 C    1.412   209 H    0.970
                           166 C    0.103
   172   6 C    3.984 --   171 C    1.422   165 C    1.378   173 C    1.021
                           168 C    0.103
   173   6 C    3.995 --   172 C    1.021   212 H    0.986   211 H    0.974
                           210 H    0.973
   174   6 C    3.915 --   164 C    1.327   177 N    1.204   175 C    1.182
   175   6 C    3.959 --   176 C    1.635   174 C    1.182   213 H    0.974
   176   6 C    3.959 --   175 C    1.635   178 C    1.190   214 H    0.973
   177   7 N    3.367 --   178 C    1.247   174 C    1.204   157 Fe   0.649
   178   6 C    3.909 --   179 C    1.251   177 N    1.247   176 C    1.190
   179   6 C    3.903 --   180 C    1.252   178 C    1.251   154 C    1.197
   180   6 C    3.909 --   179 C    1.252   184 N    1.247   181 C    1.190
   181   6 C    3.959 --   182 C    1.635   180 C    1.190   215 H    0.973
   182   6 C    3.959 --   181 C    1.635   183 C    1.182   216 H    0.974
   183   6 C    3.915 --   185 C    1.327   184 N    1.204   182 C    1.182
   184   7 N    3.367 --   180 C    1.247   183 C    1.204   157 Fe   0.650
   185   6 C    3.910 --   195 C    1.328   183 C    1.327   186 C    1.005
   186   6 C    3.986 --   193 C    1.381   187 C    1.377   185 C    1.005
                           190 C    0.104
   187   6 C    3.984 --   189 C    1.422   186 C    1.377   188 C    1.021
                           192 C    0.103
   188   6 C    3.995 --   187 C    1.021   218 H    0.986   219 H    0.974
                           217 H    0.973
   189   6 C    3.993 --   187 C    1.422   190 C    1.412   220 H    0.970
                           193 C    0.103
   190   6 C    3.988 --   192 C    1.416   189 C    1.412   191 C    1.020
                           186 C    0.104
   191   6 C    3.996 --   190 C    1.020   221 H    0.984   223 H    0.982
                           222 H    0.971
   192   6 C    3.992 --   193 C    1.419   190 C    1.416   224 H    0.970
                           187 C    0.103
   193   6 C    3.984 --   192 C    1.419   186 C    1.381   194 C    1.021
                           189 C    0.103
   194   6 C    3.995 --   193 C    1.021   225 H    0.986   226 H    0.974
                           227 H    0.973
   195   6 C    3.915 --   185 C    1.328   199 N    1.203   196 C    1.182
   196   6 C    3.959 --   197 C    1.635   195 C    1.182   228 H    0.974
   197   6 C    3.959 --   196 C    1.635   198 C    1.190   229 H    0.973
   198   6 C    3.908 --   158 C    1.249   199 N    1.248   197 C    1.190
   199   7 N    3.366 --   198 C    1.248   195 C    1.203   157 Fe   0.648
   200   1 H    1.002 --   160 C    0.973
   201   1 H    1.002 --   161 C    0.974
   202   1 H    1.008 --   167 C    0.973
   203   1 H    1.004 --   167 C    0.986
   204   1 H    1.007 --   167 C    0.974
   205   1 H    1.000 --   168 C    0.970
   206   1 H    1.006 --   170 C    0.971
   207   1 H    1.004 --   170 C    0.982
   208   1 H    1.004 --   170 C    0.984
   209   1 H    0.999 --   171 C    0.970
   210   1 H    1.007 --   173 C    0.973
   211   1 H    1.007 --   173 C    0.974
   212   1 H    1.004 --   173 C    0.986
   213   1 H    1.002 --   175 C    0.974
   214   1 H    1.002 --   176 C    0.973
   215   1 H    1.002 --   181 C    0.973
   216   1 H    1.002 --   182 C    0.974
   217   1 H    1.007 --   188 C    0.973
   218   1 H    1.004 --   188 C    0.986
   219   1 H    1.007 --   188 C    0.974
   220   1 H    0.999 --   189 C    0.970
   221   1 H    1.004 --   191 C    0.984
   222   1 H    1.006 --   191 C    0.971
   223   1 H    1.004 --   191 C    0.982
   224   1 H    1.000 --   192 C    0.970
   225   1 H    1.004 --   194 C    0.986
   226   1 H    1.007 --   194 C    0.974
   227   1 H    1.007 --   194 C    0.973
   228   1 H    1.002 --   196 C    0.974
   229   1 H    1.002 --   197 C    0.973
 ---------------------------------------------------------------------------

           -------------------------------------------------
          | TOTAL ENERGY             -354.825599094068 Eh   |
          | GRADIENT NORM               0.000418208181 Eh/α |
          | HOMO-LUMO GAP               0.059172791137 eV   |
           -------------------------------------------------

 * finished run on 2022/07/29 at 20:27:19.616
