   * xtb version 6.5.1 (b24c23e) compiled by 'conda@728c89f4b128' on 2022-07-12
          program call               : xtb Ni_PhCN_C2_3.xyz --gfn 1 --opt -T 48

   ID    Z sym.   atoms
    1   28 Ni     1, 59, 121
    2    6 C      2-6, 8-13, 15-19, 21-26, 28-33, 35-40, 60-64, 66-71, 73-77,
                  79-84, 86-91, 93-98, 117-120, 122-126, 128-133, 135-139,
                  141-146, 148-153, 155-160
    3    7 N      7, 14, 20, 27, 34, 41, 65, 72, 78, 85, 92, 99, 127, 134,
                  140, 147, 154, 161
    4    1 H      42-58, 100-116, 162-177

          :  Hamiltonian                  GFN1-xTB          :
 * total energy  :  -320.1752076 Eh     change       -0.7433584E-08 Eh
 * total energy  :  -320.3255723 Eh     change       -0.1503648E+00 Eh
 * total energy  :  -320.4342988 Eh     change       -0.1087264E+00 Eh
 * total energy  :  -320.4830670 Eh     change       -0.4876822E-01 Eh
 * total energy  :  -320.5071630 Eh     change       -0.2409600E-01 Eh
 * total energy  :  -320.5260962 Eh     change       -0.1893318E-01 Eh
 * total energy  :  -320.5408441 Eh     change       -0.1474787E-01 Eh
 * total energy  :  -320.5531131 Eh     change       -0.1226905E-01 Eh
 * total energy  :  -320.5628771 Eh     change       -0.9764017E-02 Eh
 * total energy  :  -320.5707218 Eh     change       -0.7844677E-02 Eh
 * total energy  :  -320.6130990 Eh     change       -0.9896083E-05 Eh
 * total energy  :  -320.6131106 Eh     change       -0.1158611E-04 Eh
 * total energy  :  -320.6131231 Eh     change       -0.1248279E-04 Eh
 * total energy  :  -320.6131341 Eh     change       -0.1106368E-04 Eh
 * total energy  :  -320.6131446 Eh     change       -0.1047028E-04 Eh
 * total energy  :  -320.6131581 Eh     change       -0.1350751E-04 Eh
 * total energy  :  -320.6131728 Eh     change       -0.1472119E-04 Eh
 * total energy  :  -320.6131889 Eh     change       -0.1606246E-04 Eh
 * total energy  :  -320.6131933 Eh     change       -0.4446263E-05 Eh
   *** GEOMETRY OPTIMIZATION CONVERGED AFTER 94 ITERATIONS ***

 final structure:
================
177
 xtb: 6.5.1 (b24c23e)
Ni          36.36643574402510        0.03798457772608        0.03890307895977
C           32.97767257765016        0.02073350593949        0.12581012429795
C           33.62270041488512        1.23884545195138        0.18754933430677
C           32.94376685771522        2.49750033991744        0.24320623503541
C           33.89572741694538        3.44552901390490        0.40916685418767
C           35.15492496958819        2.76251444798398        0.47319333689752
N           34.98031570065407        1.41406774362610        0.28782357438357
C           36.36421080020530        3.38016198575237        0.76670478269667
C           36.37146190349048        4.82866968070197        1.07529504917701
C           35.64839383904481        5.32724095142968        2.16131413949001
C           35.66012056060102        6.67915624074210        2.45429675545695
C           36.39420507839468        7.56270495451494        1.65751982098684
C           36.40693747557167        8.95489134772597        1.95477314544159
N           36.41837958340468       10.08013161496836        2.19490032197652
C           37.11704643372472        7.06902401197430        0.56738164134732
C           37.10643044800248        5.71508093165804        0.28445474191509
C           37.56981778431593        2.68986151015917        0.79323953059167
C           38.81659037530026        3.27430083560707        1.18400644768587
C           39.76971340527501        2.33271364590363        0.98184915963992
N           37.75372273439266        1.38381361623055        0.40161219388847
C           39.10525994171957        1.17730432703945        0.46937257180282
C           39.77651480232625        0.04274649317426        0.00552882422510
C           39.10041179082238       -1.08909936384369       -0.45859965740835
C           39.75787439292018       -2.23346110391719       -1.00387380370631
C           38.80200863476025       -3.17057277136911       -1.21383428435390
C           37.56141320688693       -2.59657160529595       -0.78930165094905
N           37.75056477783943       -1.29825540136965       -0.37396014933408
C           36.35962294205391       -3.29187951296844       -0.74402975138776
C           36.35804155699580       -4.73244126910583       -1.08849296298844
C           35.59973694727594       -5.20245949726743       -2.16315798474509
C           35.59840325552748       -6.54671070942201       -2.48949443239961
C           36.35417315549405       -7.45121568160527       -1.73765694352623
C           36.35243443013400       -8.83536112428202       -2.07071723351762
N           36.34930874992702       -9.95357887356968       -2.34231252983697
C           37.11133968629183       -6.98631062794254       -0.65830272440467
C           37.11380679676163       -5.63960493338851       -0.34220654287492
C           35.15948647398893       -2.68976185264533       -0.38688044547325
C           33.91180688672750       -3.38716908552890       -0.27256743799449
C           32.96220246379713       -2.45400631459768       -0.02783650876146
C           33.63104062644236       -1.18945853497431        0.01722013481094
N           34.98279184094326       -1.34802504456268       -0.16190226841288
H           31.89447205284880        0.01468667705211        0.15740238661696
H           31.87540123575429        2.61940087254873        0.16246949942971
H           33.76979462215163        4.51352255402320        0.48247508062666
H           35.08811733151962        4.64355156882116        2.78901261033864
H           35.10257636142575        7.05781191008687        3.30293189291490
H           37.68452248066615        7.75155802328467       -0.05432104728891
H           37.66002848342983        5.33682523472280       -0.56752984465442
H           38.93632210370056        4.27314577419267        1.57065645881398
H           40.83010175832500        2.40144958537006        1.16129566429726
H           40.81535884348808       -2.29705826240908       -1.20139010230933
H           38.91601537864629       -4.16073116391571       -1.62388452558747
H           35.02120734560318       -4.50230480401534       -2.75513138759225
H           35.01321738376614       -6.90338322701434       -3.32897559819180
H           37.69458623931903       -7.68545414156410       -0.07054440249421
H           37.69359541724711       -5.28371824028903        0.50196945325978
H           33.79210470748603       -4.45427195473665       -0.36649527933638
H           31.90127145796007       -2.58952370426999        0.10934663507863
Ni          58.08877701331729       -0.00866160140298        0.10192855439011
C           61.47778950516450        0.01979617930983        0.33233864935143
C           60.82929045385234       -1.18575585390185        0.49748731003551
C           61.51438882485283       -2.42043376608212        0.73039012854421
C           60.56557728122034       -3.38208540741752        0.80447721200008
C           59.29958450854085       -2.72999393527633        0.63584183760098
N           59.47238691620778       -1.38299890966285        0.43753269586791
C           58.08085083306442       -3.39450434002610        0.66093352739719
C           58.07415529485531       -4.85695801132318        0.90682217380396
C           58.52324856910047       -5.36723990605419        2.12675638812206
C           58.51042814767627       -6.72935076208591        2.36755543995754
C           58.05047997598211       -7.61024063680502        1.38415512949724
C           58.03457188314234       -9.01222075817404        1.63137241541646
N           58.02423559367419      -10.14431673801635        1.83679793120579
C           57.60385074706237       -7.10413854415473        0.16008163883123
C           57.61405332544046       -5.74008487218868       -0.07176802594933
C           56.86476428298168       -2.74564374812941        0.49552918691506
C           55.59786371765856       -3.40519405389836        0.59628105832153
C           54.64802072463927       -2.45378917573934        0.43555314674641
N           56.69133793794989       -1.39806800646205        0.27615655618744
C           55.33538279093331       -1.21727451978449        0.23631341221554
C           54.67407161602247       -0.00458243046576        0.03840248621504
C           55.34481989671555        1.19995356835476       -0.17719965919002
C           54.66866340998821        2.42430725093572       -0.46876024752213
C           55.62719559095902        3.35679233671828       -0.68118794405195
C           56.88769346119074        2.70292329646791       -0.49779697557751
N           56.70210988065126        1.37287616470966       -0.19627674663396
C           58.11182264934375        3.34472697969398       -0.62573516017286
C           58.12669671499526        4.78620823987755       -0.97454126942612
C           58.67436195238542        5.20870342790518       -2.18753493887329
C           58.68646832885950        6.55024478163668       -2.52503186374113
C           58.15430250599388        7.49834755611238       -1.64622687611679
C           58.16620384784266        8.87977756574958       -1.99042195624376
N           58.17618944230700        9.99570207853039       -2.27075729364721
C           57.61088366280553        7.08036691889144       -0.42793515152662
C           57.59637605884397        5.73635978685027       -0.09966741226690
C           59.32533016431078        2.70039466635388       -0.42654314306323
C           60.59355044604370        3.36886831107901       -0.46196724375283
C           61.53361847483957        2.44092273617625       -0.16932268314468
C           60.84002941149217        1.20653758118713        0.03939676034945
N           59.48645778926345        1.37387699283535       -0.11441215258356
H           62.55815759023130        0.03107078637044        0.41691775598000
H           62.58514117802709       -2.51921653564346        0.81067312073323
H           60.69796440041952       -4.44152145257535        0.95192945069355
H           58.86950931270800       -4.68569571366702        2.89547454627301
H           58.85417142945049       -7.11824081132053        3.31886970671585
H           57.24991155296532       -7.78452604847406       -0.60554742906933
H           57.27491063094866       -5.35130890901693       -1.02526887606546
H           55.46294597113312       -4.45799519760161        0.78266351705814
H           53.57574839621026       -2.56329224551740        0.45370104284761
H           53.59765962445193        2.53675992208943       -0.51830013323580
H           55.50185826208664        4.39393748902458       -0.94565949258757
H           59.07974916264795        4.47441540108222       -2.87443568227913
H           59.10659867203285        6.87085407940648       -3.47112742876715
H           57.20218816278832        7.81346212049552        0.25759461470917
H           57.18356954731608        5.41647664277066        0.85038032368283
H           60.73035898169509        4.41765161532336       -0.66960814995394
H           62.60281081818085        2.56052241161634       -0.09678714673330
C           41.18557100086992        0.04280826038514       -0.00146045291614
C           42.40197061978418        0.03701234339826       -0.00945589918236
C           52.04789157219138        0.00499063080562        0.02032962707873
C           53.26319944989853       -0.00038318709279        0.03082000858198
Ni          47.22588641827201        0.02878596328379       -0.02311048792199
C           43.81070986888884        0.03530388204977       -0.01705102257821
C           44.48330435601189       -1.18021125341670       -0.17087151862334
C           43.82068609788708       -2.44024753796334       -0.27944680199594
C           44.77211753184827       -3.35754954571205       -0.57924142537595
C           46.01525629857766       -2.65282935474313       -0.65213032098363
N           45.83266130781553       -1.32312421024159       -0.35003931026874
C           47.21604450203903       -3.23399046947830       -1.04020525152980
C           47.20326036908065       -4.63896824490122       -1.50825453935628
C           46.44548287732660       -5.00003527768286       -2.62488477287577
C           46.43617564628124       -6.30699491106290       -3.07753862424059
C           47.18321085737969       -7.28385988323871       -2.41265336785511
C           47.17571293857540       -8.63005289216663       -2.87584925103835
N           47.17257463129769       -9.71764977394649       -3.25156618922379
C           47.93757942939351       -6.92902524857157       -1.29033826457529
C           47.94780019662132       -5.61856494183411       -0.84726485772209
C           48.42492560243750       -2.55082042414200       -1.00965508425656
C           49.67243775975150       -3.10790120330903       -1.43650961888083
C           50.63119484627074       -2.20167862176542       -1.12718523426128
N           48.61288924194114       -1.28847119081782       -0.49503935949953
C           49.96616991154076       -1.08876072548691       -0.52798929389659
C           50.63791277603976        0.01213934388033        0.00710780720992
C           49.96827394365892        1.12444001335225        0.52064691976628
C           50.63423446748493        2.24039946344783        1.11334478642564
C           49.68058519331704        3.16471404031011        1.38249615271409
C           48.43526675606882        2.61295294996894        0.94263454906438
N           48.61848943842524        1.33920372864879        0.45598760606503
C           47.23214897621504        3.30681688189414        0.94434193673334
C           47.22820263778119        4.72206118899937        1.38112213837895
C           46.47340051941358        5.11330939082541        2.48954694999456
C           46.47366153125324        6.43011516063091        2.91261225605437
C           47.22712433223996        7.38651161463936        2.22540643614020
C           47.22954076276110        8.74232972719431        2.65972421065947
N           47.23578343266196        9.83735039425862        3.01316238666146
C           47.97821483685643        7.00132930695034        1.11104254846418
C           47.97955560350891        5.68092428307020        0.69811191321066
C           46.02925199007387        2.72547208430343        0.56382046950589
C           44.78873566596073        3.43408500877287        0.48386998293478
C           43.83114040989753        2.51448932945678        0.21199737441784
C           44.48812991313366        1.25009108073628        0.12184945229555
N           45.83924594305412        1.39078944680221        0.28842335364111
H           42.76264487438078       -2.59074718374296       -0.14089742873246
H           44.65366609687549       -4.41805415093571       -0.73037173913962
H           45.87423378244626       -4.24250956330699       -3.14952352798602
H           45.85222720026363       -6.57784670207732       -3.94933733647698
H           48.51335093725637       -7.68508199152996       -0.76952591228655
H           48.52492868320507       -5.34955416273140        0.03017924471123
H           49.78993965476008       -4.06718391590127       -1.91338004336299
H           51.69511746080743       -2.26579590365086       -1.28879011790105
H           51.69538451169304        2.29510634511507        1.29549269486516
H           49.79970070351333        4.13275265689544        1.84098848592430
H           45.89715619428790        4.37169559097700        3.03116404402347
H           45.89235769238990        6.72487398874850        3.77839668283759
H           48.55860948435865        7.74138126564312        0.57264425940047
H           48.55530441567429        5.38767854123954       -0.17245529040610
H           44.67576515360580        4.49804432485728        0.61333024719722
H           42.77272770140871        2.66666862059227        0.07821020446462

          :  Hamiltonian                  GFN1-xTB          :
         :: total energy            -320.613193328249 Eh    ::
         :: gradient norm              0.000835812928 Eh/a0 ::
         :: HOMO-LUMO gap              1.066237770113 eV    ::
         :: SCC energy              -325.885112276710 Eh    ::
         :: repulsion energy           5.441986740640 Eh    ::

    * Orbital Energies and Occupations

         #    Occupation            Energy/Eh            Energy/eV
      -------------------------------------------------------------
         1        2.0000           -0.7959497             -21.6589
       ...           ...                  ...                  ...
       285        2.0000           -0.4115739             -11.1995
       286        2.0000           -0.4115326             -11.1984
       287        2.0000           -0.4112363             -11.1903
       288        2.0000           -0.4106790             -11.1751
       289        2.0000           -0.4106610             -11.1747
       290        2.0000           -0.4105687             -11.1721
       291        2.0000           -0.4102493             -11.1635
       292        2.0000           -0.4096902             -11.1482
       293        2.0000           -0.4095979             -11.1457
       294        2.0000           -0.4091479             -11.1335
       295        2.0000           -0.4090628             -11.1312
       296        2.0000           -0.4048848             -11.0175
       297        2.0000           -0.3959085             -10.7732 (HOMO)
       298                         -0.3567250              -9.7070 (LUMO)
       299                         -0.3458981              -9.4124
       300                         -0.3455776              -9.4036
       301                         -0.3443262              -9.3696
       302                         -0.3440117              -9.3610
       303                         -0.3428752              -9.3301
       304                         -0.3420271              -9.3070
       305                         -0.3403123              -9.2604
       306                         -0.3356285              -9.1329
       307                         -0.3183021              -8.6614
       308                         -0.3133561              -8.5269
       ...                                ...                  ...
       623                          1.3315553              36.2335
      -------------------------------------------------------------
                  HL-Gap            0.0391835 Eh            1.0662 eV

Wiberg/Mayer (AO) data.
largest (>0.10) Wiberg bond orders for each atom

     #   Z sym  total        # sym  WBO       # sym  WBO       # sym  WBO
 ---------------------------------------------------------------------------
     1  28 Ni   3.020 --    41 N    0.664     7 N    0.664    20 N    0.662
                            27 N    0.661
     2   6 C    3.935 --    40 C    1.364     3 C    1.364    42 H    0.970
     3   6 C    3.922 --     2 C    1.364     7 N    1.213     4 C    1.175
     4   6 C    3.960 --     5 C    1.650     3 C    1.175    43 H    0.975
     5   6 C    3.963 --     4 C    1.650     6 C    1.176    44 H    0.973
     6   6 C    3.920 --     8 C    1.322     7 N    1.221     5 C    1.176
     7   7 N    3.401 --     6 C    1.221     3 C    1.213     1 Ni   0.664
     8   6 C    3.938 --    17 C    1.324     6 C    1.322     9 C    1.031
     9   6 C    3.963 --    10 C    1.385    16 C    1.385     8 C    1.031
    10   6 C    3.988 --    11 C    1.463     9 C    1.385    45 H    0.971
                            15 C    0.102
    11   6 C    3.993 --    10 C    1.463    12 C    1.365    46 H    0.972
                            16 C    0.102
    12   6 C    3.984 --    11 C    1.365    15 C    1.364    13 C    1.098
    13   6 C    3.958 --    14 N    2.820    12 C    1.098
    14   7 N    2.973 --    13 C    2.820
    15   6 C    3.993 --    16 C    1.464    12 C    1.364    47 H    0.972
                            10 C    0.102
    16   6 C    3.988 --    15 C    1.464     9 C    1.385    48 H    0.971
                            11 C    0.102
    17   6 C    3.915 --     8 C    1.324    20 N    1.208    18 C    1.184
    18   6 C    3.959 --    19 C    1.634    17 C    1.184    49 H    0.973
    19   6 C    3.962 --    18 C    1.634    21 C    1.192    50 H    0.970
    20   7 N    3.405 --    21 C    1.235    17 C    1.208     1 Ni   0.662
    21   6 C    3.908 --    22 C    1.268    20 N    1.235    19 C    1.192
    22   6 C    3.945 --    21 C    1.268    23 C    1.267   117 C    1.172
    23   6 C    3.908 --    22 C    1.267    27 N    1.236    24 C    1.192
    24   6 C    3.962 --    25 C    1.634    23 C    1.192    51 H    0.970
    25   6 C    3.959 --    24 C    1.634    26 C    1.184    52 H    0.973
    26   6 C    3.915 --    28 C    1.325    27 N    1.207    25 C    1.184
    27   7 N    3.405 --    23 C    1.236    26 C    1.207     1 Ni   0.661
    28   6 C    3.938 --    26 C    1.325    37 C    1.321    29 C    1.030
    29   6 C    3.963 --    30 C    1.385    36 C    1.385    28 C    1.030
    30   6 C    3.988 --    31 C    1.464    29 C    1.385    53 H    0.971
                            35 C    0.102
    31   6 C    3.993 --    30 C    1.464    32 C    1.364    54 H    0.972
                            36 C    0.102
    32   6 C    3.985 --    35 C    1.364    31 C    1.364    33 C    1.098
    33   6 C    3.958 --    34 N    2.820    32 C    1.098
    34   7 N    2.973 --    33 C    2.820
    35   6 C    3.993 --    36 C    1.464    32 C    1.364    55 H    0.972
                            30 C    0.102
    36   6 C    3.988 --    35 C    1.464    29 C    1.385    56 H    0.971
                            31 C    0.102
    37   6 C    3.920 --    28 C    1.321    41 N    1.222    38 C    1.176
    38   6 C    3.963 --    39 C    1.650    37 C    1.176    57 H    0.973
    39   6 C    3.960 --    38 C    1.650    40 C    1.174    58 H    0.975
    40   6 C    3.922 --     2 C    1.364    41 N    1.212    39 C    1.174
    41   7 N    3.401 --    37 C    1.222    40 C    1.212     1 Ni   0.664
    42   1 H    1.000 --     2 C    0.970
    43   1 H    0.997 --     4 C    0.975
    44   1 H    1.004 --     5 C    0.973
    45   1 H    1.003 --    10 C    0.971
    46   1 H    1.000 --    11 C    0.972
    47   1 H    1.000 --    15 C    0.972
    48   1 H    1.003 --    16 C    0.971
    49   1 H    1.004 --    18 C    0.973
    50   1 H    1.005 --    19 C    0.970
    51   1 H    1.005 --    24 C    0.970
    52   1 H    1.004 --    25 C    0.973
    53   1 H    1.003 --    30 C    0.971
    54   1 H    1.000 --    31 C    0.972
    55   1 H    1.000 --    35 C    0.972
    56   1 H    1.003 --    36 C    0.971
    57   1 H    1.004 --    38 C    0.973
    58   1 H    0.997 --    39 C    0.975
    59  28 Ni   3.004 --    99 N    0.664    65 N    0.664    78 N    0.660
                            85 N    0.660
    60   6 C    3.936 --    98 C    1.365    61 C    1.364   100 H    0.970
    61   6 C    3.922 --    60 C    1.364    65 N    1.214    62 C    1.174
    62   6 C    3.960 --    63 C    1.651    61 C    1.174   101 H    0.975
    63   6 C    3.963 --    62 C    1.651    64 C    1.175   102 H    0.972
    64   6 C    3.920 --    66 C    1.324    65 N    1.222    63 C    1.175
    65   7 N    3.403 --    64 C    1.222    61 C    1.214    59 Ni   0.664
    66   6 C    3.939 --    75 C    1.328    64 C    1.324    67 C    1.025
    67   6 C    3.963 --    74 C    1.388    68 C    1.387    66 C    1.025
    68   6 C    3.988 --    69 C    1.463    67 C    1.387   103 H    0.971
                            73 C    0.103
    69   6 C    3.993 --    68 C    1.463    70 C    1.364   104 H    0.972
                            74 C    0.103
    70   6 C    3.986 --    73 C    1.365    69 C    1.364    71 C    1.098
    71   6 C    3.958 --    72 N    2.820    70 C    1.098
    72   7 N    2.974 --    71 C    2.820
    73   6 C    3.993 --    74 C    1.462    70 C    1.365   105 H    0.972
                            68 C    0.103
    74   6 C    3.988 --    73 C    1.462    67 C    1.388   106 H    0.972
                            69 C    0.103
    75   6 C    3.915 --    66 C    1.328    78 N    1.209    76 C    1.182
    76   6 C    3.960 --    77 C    1.638    75 C    1.182   107 H    0.973
    77   6 C    3.962 --    76 C    1.638    79 C    1.189   108 H    0.972
    78   7 N    3.407 --    79 C    1.236    75 C    1.209    59 Ni   0.660
    79   6 C    3.910 --    80 C    1.273    78 N    1.236    77 C    1.189
    80   6 C    3.945 --    79 C    1.273    81 C    1.273   120 C    1.161
    81   6 C    3.911 --    80 C    1.273    85 N    1.237    82 C    1.189
    82   6 C    3.962 --    83 C    1.638    81 C    1.189   109 H    0.972
    83   6 C    3.960 --    82 C    1.638    84 C    1.182   110 H    0.972
    84   6 C    3.915 --    86 C    1.328    85 N    1.209    83 C    1.182
    85   7 N    3.406 --    81 C    1.237    84 C    1.209    59 Ni   0.660
    86   6 C    3.939 --    84 C    1.328    95 C    1.324    87 C    1.024
    87   6 C    3.963 --    94 C    1.388    88 C    1.388    86 C    1.024
    88   6 C    3.988 --    89 C    1.463    87 C    1.388   111 H    0.972
                            93 C    0.103
    89   6 C    3.993 --    88 C    1.463    90 C    1.365   112 H    0.972
                            94 C    0.103
    90   6 C    3.986 --    93 C    1.365    89 C    1.365    91 C    1.098
    91   6 C    3.958 --    92 N    2.820    90 C    1.098
    92   7 N    2.974 --    91 C    2.820
    93   6 C    3.993 --    94 C    1.462    90 C    1.365   113 H    0.972
                            88 C    0.103
    94   6 C    3.988 --    93 C    1.462    87 C    1.388   114 H    0.971
                            89 C    0.103
    95   6 C    3.920 --    86 C    1.324    99 N    1.222    96 C    1.175
    96   6 C    3.963 --    97 C    1.651    95 C    1.175   115 H    0.973
    97   6 C    3.960 --    96 C    1.651    98 C    1.174   116 H    0.975
    98   6 C    3.922 --    60 C    1.365    99 N    1.214    97 C    1.174
    99   7 N    3.404 --    95 C    1.222    98 C    1.214    59 Ni   0.664
   100   1 H    1.000 --    60 C    0.970
   101   1 H    0.997 --    62 C    0.975
   102   1 H    1.004 --    63 C    0.972
   103   1 H    1.003 --    68 C    0.971
   104   1 H    1.000 --    69 C    0.972
   105   1 H    1.000 --    73 C    0.972
   106   1 H    1.003 --    74 C    0.972
   107   1 H    1.004 --    76 C    0.973
   108   1 H    1.003 --    77 C    0.972
   109   1 H    1.003 --    82 C    0.972
   110   1 H    1.004 --    83 C    0.972
   111   1 H    1.003 --    88 C    0.972
   112   1 H    1.000 --    89 C    0.972
   113   1 H    1.000 --    93 C    0.972
   114   1 H    1.003 --    94 C    0.971
   115   1 H    1.004 --    96 C    0.973
   116   1 H    0.997 --    97 C    0.975
   117   6 C    3.935 --   118 C    2.585    22 C    1.172
   118   6 C    3.937 --   117 C    2.585   122 C    1.173
   119   6 C    3.936 --   120 C    2.591   142 C    1.164
   120   6 C    3.933 --   119 C    2.591    80 C    1.161
   121  28 Ni   3.008 --   161 N    0.661   127 N    0.661   140 N    0.660
                           147 N    0.660
   122   6 C    3.936 --   123 C    1.267   160 C    1.266   118 C    1.173
   123   6 C    3.908 --   122 C    1.267   127 N    1.235   124 C    1.193
   124   6 C    3.960 --   125 C    1.632   123 C    1.193   162 H    0.969
   125   6 C    3.960 --   124 C    1.632   126 C    1.186   163 H    0.973
   126   6 C    3.914 --   128 C    1.322   127 N    1.208   125 C    1.186
   127   7 N    3.400 --   123 C    1.235   126 C    1.208   121 Ni   0.661
   128   6 C    3.934 --   137 C    1.324   126 C    1.322   129 C    1.031
   129   6 C    3.963 --   136 C    1.385   130 C    1.385   128 C    1.031
   130   6 C    3.987 --   131 C    1.464   129 C    1.385   164 H    0.971
                           135 C    0.102
   131   6 C    3.993 --   130 C    1.464   132 C    1.364   165 H    0.972
                           136 C    0.102
   132   6 C    3.984 --   135 C    1.365   131 C    1.364   133 C    1.098
   133   6 C    3.958 --   134 N    2.821   132 C    1.098
   134   7 N    2.973 --   133 C    2.821
   135   6 C    3.993 --   136 C    1.463   132 C    1.365   166 H    0.972
                           130 C    0.102
   136   6 C    3.987 --   135 C    1.463   129 C    1.385   167 H    0.971
                           131 C    0.102
   137   6 C    3.914 --   128 C    1.324   140 N    1.207   138 C    1.185
   138   6 C    3.960 --   139 C    1.635   137 C    1.185   168 H    0.973
   139   6 C    3.960 --   138 C    1.635   141 C    1.191   169 H    0.972
   140   7 N    3.399 --   141 C    1.236   137 C    1.207   121 Ni   0.660
   141   6 C    3.911 --   142 C    1.270   140 N    1.236   139 C    1.191
   142   6 C    3.935 --   143 C    1.271   141 C    1.270   119 C    1.164
   143   6 C    3.911 --   142 C    1.271   147 N    1.235   144 C    1.191
   144   6 C    3.960 --   145 C    1.635   143 C    1.191   170 H    0.972
   145   6 C    3.960 --   144 C    1.635   146 C    1.185   171 H    0.973
   146   6 C    3.914 --   148 C    1.324   147 N    1.208   145 C    1.185
   147   7 N    3.399 --   143 C    1.235   146 C    1.208   121 Ni   0.660
   148   6 C    3.934 --   146 C    1.324   157 C    1.323   149 C    1.030
   149   6 C    3.963 --   156 C    1.386   150 C    1.385   148 C    1.030
   150   6 C    3.987 --   151 C    1.464   149 C    1.385   172 H    0.971
                           155 C    0.102
   151   6 C    3.993 --   150 C    1.464   152 C    1.364   173 H    0.972
                           156 C    0.102
   152   6 C    3.984 --   155 C    1.365   151 C    1.364   153 C    1.098
   153   6 C    3.958 --   154 N    2.821   152 C    1.098
   154   7 N    2.974 --   153 C    2.821
   155   6 C    3.993 --   156 C    1.463   152 C    1.365   174 H    0.972
                           150 C    0.102
   156   6 C    3.988 --   155 C    1.463   149 C    1.386   175 H    0.971
                           151 C    0.102
   157   6 C    3.914 --   148 C    1.323   161 N    1.207   158 C    1.186
   158   6 C    3.959 --   159 C    1.632   157 C    1.186   176 H    0.973
   159   6 C    3.960 --   158 C    1.632   160 C    1.193   177 H    0.970
   160   6 C    3.908 --   122 C    1.266   161 N    1.236   159 C    1.193
   161   7 N    3.399 --   160 C    1.236   157 C    1.207   121 Ni   0.661
   162   1 H    1.005 --   124 C    0.969
   163   1 H    1.003 --   125 C    0.973
   164   1 H    1.003 --   130 C    0.971
   165   1 H    1.000 --   131 C    0.972
   166   1 H    1.000 --   135 C    0.972
   167   1 H    1.003 --   136 C    0.971
   168   1 H    1.004 --   138 C    0.973
   169   1 H    1.003 --   139 C    0.972
   170   1 H    1.003 --   144 C    0.972
   171   1 H    1.004 --   145 C    0.973
   172   1 H    1.003 --   150 C    0.971
   173   1 H    1.000 --   151 C    0.972
   174   1 H    1.000 --   155 C    0.972
   175   1 H    1.003 --   156 C    0.971
   176   1 H    1.003 --   158 C    0.973
   177   1 H    1.005 --   159 C    0.970
 ---------------------------------------------------------------------------

           -------------------------------------------------
          | TOTAL ENERGY             -320.613193328249 Eh   |
          | GRADIENT NORM               0.000835812928 Eh/α |
          | HOMO-LUMO GAP               1.066237770113 eV   |
           -------------------------------------------------

 * finished run on 2022/07/30 at 11:29:00.330
