   * xtb version 6.5.1 (b24c23e) compiled by 'conda@728c89f4b128' on 2022-07-12
          program call               : xtb Zn_NMA_C8_3.xyz --gfn 1 --opt -T 48

   ID    Z sym.   atoms
    1   30 Zn     1, 67, 149
    2    6 C      2-6, 8-12, 14-19, 21-26, 28-32, 34-40, 68-72, 74-78, 80-85,
                  87-92, 94-98, 100-106, 133-148, 150-154, 156-160, 162-167,
                  169-174, 176-180, 182-188
    3    7 N      7, 13, 20, 27, 33, 41, 73, 79, 86, 93, 99, 107, 155, 161,
                  168, 175, 181, 189
    4    1 H      42-66, 108-132, 190-213

          :  Hamiltonian                  GFN1-xTB          :
 * total energy  :  -321.2590483 Eh     change       -0.3262130E-08 Eh
 * total energy  :  -341.3476833 Eh     change       -0.2008863E+02 Eh
 * total energy  :  -343.8129412 Eh     change       -0.2465258E+01 Eh
 * total energy  :  -345.6275896 Eh     change       -0.1814648E+01 Eh
 * total energy  :  -346.5230310 Eh     change       -0.8954414E+00 Eh
 * total energy  :  -347.0385106 Eh     change       -0.5154796E+00 Eh
 * total energy  :  -347.3722086 Eh     change       -0.3336980E+00 Eh
 * total energy  :  -347.6177448 Eh     change       -0.2455361E+00 Eh
 * total energy  :  -347.8218361 Eh     change       -0.2040913E+00 Eh
 * total energy  :  -348.0010616 Eh     change       -0.1792255E+00 Eh
 * total energy  :  -348.8181860 Eh     change       -0.2479369E-04 Eh
 * total energy  :  -348.8182042 Eh     change       -0.1818749E-04 Eh
 * total energy  :  -348.8182186 Eh     change       -0.1441213E-04 Eh
 * total energy  :  -348.8182307 Eh     change       -0.1210906E-04 Eh
 * total energy  :  -348.8182413 Eh     change       -0.1052569E-04 Eh
 * total energy  :  -348.8182501 Eh     change       -0.8797350E-05 Eh
 * total energy  :  -348.8182578 Eh     change       -0.7749123E-05 Eh
 * total energy  :  -348.8182652 Eh     change       -0.7357736E-05 Eh
 * total energy  :  -348.8182664 Eh     change       -0.1220460E-05 Eh
   *** GEOMETRY OPTIMIZATION CONVERGED AFTER 94 ITERATIONS ***

 final structure:
================
213
 xtb: 6.5.1 (b24c23e)
Zn          30.89448866252494        0.03359741275028       -0.03306572732766
C           27.48513804765889        0.06656148413911       -0.04257782634673
C           28.11028943158148        0.99125000609643        0.78545007909883
C           27.43175614752920        1.91374755061813        1.65102947374347
C           28.38735848027775        2.63641944782068        2.28799000659357
C           29.66227324749424        2.17298203848189        1.80859495460648
N           29.45890500135234        1.16876009116663        0.90791932840536
C           30.91107351336375        2.66076414702368        2.21776416989648
C           30.91407762599535        3.78410651399226        3.18554299093142
C           30.30457758773063        5.00151125577882        2.86892456226269
C           30.30178716077223        6.04767311440983        3.77208277148102
C           30.90462369692477        5.90505198303094        5.02783264239932
N           30.82007650236990        6.96030071645700        5.92487589211673
C           31.79851116318657        7.07347913005411        6.99825671010820
C           31.50618177226699        4.68636347566100        5.35411916669563
C           31.51466560526882        3.64776183567829        4.43825377824517
C           32.15175966571056        2.17480479716466        1.78967293798866
C           33.42848189323618        2.71693432426538        2.16357447472910
C           34.37822615792844        1.97639845951161        1.53634518935432
N           32.35065558021660        1.12615995644259        0.93037251172856
C           33.69253861794994        0.98153973551115        0.76588926696826
C           34.32833106058996        0.00712783332096       -0.03123533685641
C           33.67834697003499       -0.96013147737855       -0.82564631707698
C           34.34939000523120       -1.96945080521101       -1.59010305746813
C           33.38894067914429       -2.69899107093933       -2.21391171062131
C           32.12039134820433       -2.13442112712652       -1.84539946736397
N           32.33458183612419       -1.08475592404806       -0.99098648273808
C           30.87278975877896       -2.60058179816486       -2.27552338086562
C           30.85956857877544       -3.73053737872526       -3.23540234522225
C           31.47064830699769       -3.61570591991606       -4.48521773107137
C           31.45061164308347       -4.66228673061305       -5.39173222055311
C           30.82618642979742       -5.86755885760003       -5.05866027727739
N           30.73212095458811       -6.93005385384850       -5.94632291820196
C           31.72231664759575       -7.07212742335912       -7.00554662687219
C           30.21080955529082       -5.98787058500358       -3.80671888531228
C           30.22558714145134       -4.93381418617652       -2.91287850155694
C           29.63144278515540       -2.08715789457152       -1.87513264565948
C           28.35058668743838       -2.52705511442418       -2.36079239096027
C           27.40560719232657       -1.78289345940963       -1.73276001307665
C           28.09692907008450       -0.87133267536572       -0.86571718881417
N           29.44250167909147       -1.07580978552491       -0.97933216789510
H           26.39942347414901        0.07741832842922       -0.04602133996558
H           26.36047211410012        1.98403352161407        1.75809575142834
H           28.24472276682459        3.40702362201565        3.02858703932917
H           29.84780504803097        5.13244102460044        1.89391760809237
H           29.83028670064478        6.98923493443720        3.51053654913825
H           30.64550389502067        7.84756753952032        5.46839289381408
H           32.82450948164543        7.02604244737423        6.61565534127722
H           31.64948038859665        6.27451646620348        7.72575040021788
H           31.64314985545204        8.03092291259762        7.49559069333793
H           31.96524192881778        4.53986302822195        6.32418062507955
H           31.97493331227580        2.70335279704671        4.70824069504655
H           33.57805087466347        3.56588274986889        2.81119551775365
H           35.44946031698620        2.09324817164686        1.58047171021384
H           35.41871381468874       -2.10337724955181       -1.63199531431789
H           33.52618641924050       -3.55420647214017       -2.85597857377146
H           31.94897511593171       -2.68183611653478       -4.76039133760719
H           31.91887725222367       -4.53263887369507       -6.35979055347650
H           30.53679131440563       -7.80924586300578       -5.48258695245549
H           31.59535805588334       -6.28019821886990       -7.74481698638084
H           31.55830280478420       -8.03325916977473       -7.49286346367658
H           32.74388064214934       -7.03584404937194       -6.61009585266191
H           29.72071030149597       -6.91852451403912       -3.54036047876726
H           29.75940890021603       -5.04785924058879       -1.94019952460164
H           28.19739150467266       -3.29742901192138       -3.09952632539457
H           26.33383188624043       -1.83211353656814       -1.84648183913727
Zn          68.12701547795709        0.01341190850969       -0.01744826433559
C           71.53550970516608        0.04868712687222       -0.09796486017418
C           70.91057612184089       -0.96767967069341       -0.81064153298071
C           71.58948409491460       -2.00667689416717       -1.53196295244201
C           70.63386372023687       -2.79493681117456       -2.08565756702974
C           69.35836073139046       -2.23887810087282       -1.71974809129950
N           69.56169842918656       -1.13917307087108       -0.93852106953556
C           68.10943445645631       -2.75703525097116       -2.08891161781720
C           68.10530503585814       -3.94573680320933       -2.97523874985002
C           68.69317597210654       -3.89429875549638       -4.24230780601009
C           68.69185316340484       -5.00222630945998       -5.06858139667600
C           68.10669331555785       -6.20271880889039       -4.64787093484891
N           68.18495406232525       -7.30549518897572       -5.48654879927868
C           67.21789978621538       -8.38606428450899       -5.34657594112219
C           67.52840109659479       -6.26369289029735       -3.37690858602192
C           67.52354394208707       -5.14501923173501       -2.56077207864600
C           66.86892478656748       -2.24611479005497       -1.69032547257584
C           65.59112613057539       -2.74255400712083       -2.11987722691094
C           64.64173987790356       -1.97811380660838       -1.52145556999251
N           66.67075756913232       -1.18047006607276       -0.85208027399407
C           65.32853392193734       -1.00156097778874       -0.72890648210714
C           64.69350474364812       -0.01573460520074        0.05464552857301
C           65.34440391520454        0.97727752865961        0.81588518036059
C           64.67520120408338        1.93778869589653        1.64221701233812
C           65.63583652201596        2.71618726189287        2.20360816309538
C           66.90250095541936        2.24568056917862        1.71579892438296
N           66.68734031168017        1.17913761251520        0.88283370430726
C           68.14969581307712        2.78131635685125        2.05753093298688
C           68.16267823874026        3.96808047510724        2.94599702935451
C           67.52846748649416        5.15267859930999        2.56740222208812
C           67.54649159959442        6.26895843428705        3.38655187168181
C           68.19294989336029        6.22056134965018        4.62479695151473
N           68.28505840683950        7.32295532784432        5.46269385687752
C           67.27631390934130        8.37132192850619        5.38495192556246
C           68.83237938719675        5.03557128128626        5.00877832131094
C           68.81876884369154        3.92984627595690        4.17969135485314
C           69.39027835201331        2.29004609923847        1.62789343253342
C           70.66974717191052        2.87382742193522        1.93151236092669
C           71.61422759355744        2.10584765664751        1.33205731901312
C           70.92378387917692        1.05187869704703        0.64429403149370
N           69.57925918389671        1.19455751952345        0.83716321506223
H           72.62090880929905        0.06037300773431       -0.12399274903657
H           72.66117421235958       -2.11584670300894       -1.59214499751184
H           70.77693835686037       -3.68383807707273       -2.67900433900942
H           69.13569396564912       -2.96653966024047       -4.58852811039506
H           69.14590556206130       -4.94611390245869       -6.05242242136918
H           68.33780934740876       -7.04924993740666       -6.45458631387772
H           66.18834240480125       -8.01037286654310       -5.35989335120271
H           67.39139738902632       -8.92444477244005       -4.41391266573690
H           67.36083857621556       -9.07553705567665       -6.17865245081533
H           67.08435144018354       -7.18343739248564       -3.01622962700961
H           67.08087580525448       -5.20855919714837       -1.57251865077290
H           65.44038837271336       -3.56178178947070       -2.80444820704982
H           63.56992166371210       -2.05769456599407       -1.61098475110170
H           63.60703883960495        1.99723287947129        1.77876945240836
H           65.49992574957808        3.52866739279550        2.89921438162802
H           67.03301624264672        5.20712149812392        1.60397017330560
H           67.05932061507720        7.17727263842168        3.05360585505687
H           68.50117565035276        7.06830362694962        6.41907985092047
H           67.37612172939238        8.91749063273244        4.44608088060695
H           67.44555858244074        9.06308400063930        6.21016219108109
H           66.26238119174151        7.96146492970880        5.45765768664413
H           69.34003050992472        4.98948513289054        5.96660313227320
H           69.30326202045397        3.01340383342412        4.49879541481309
H           70.82240799584396        3.76654606364208        2.51666657238854
H           72.68495691191684        2.23824792832238        1.34018680392828
C           35.73265182481991       -0.00051866397010       -0.03423550314390
C           36.95787896042189       -0.00504720938642       -0.03876482964501
C           38.30003834416374       -0.00898781944666       -0.04111970042763
C           39.53129649590502       -0.01009136814227       -0.04574106277321
C           40.86870361394912       -0.00909237849555       -0.04973047227991
C           42.10000815277161       -0.00706847996964       -0.05112763310008
C           43.44198916056977       -0.00459970901224       -0.04972440551421
C           44.66738738687567        0.00066270976527       -0.04670554742714
C           54.35442884482156       -0.00366540662969        0.06719918148806
C           55.57979610073072       -0.00651583086355        0.08009092471135
C           56.92179760012198       -0.00982477105390        0.09076040809732
C           58.15311141289823       -0.01650208638768        0.09707829436942
C           59.49060338389624       -0.01736986755464        0.09984597129261
C           60.72188284973323       -0.02121135791020        0.09677357729365
C           62.06408703425842       -0.02248820543789        0.08821971411387
C           63.28927493374453       -0.02134469510699        0.07604964311264
Zn          49.51047940896819        0.00667413870699       -0.00075173805370
C           46.07110966530738        0.00489649658456       -0.03844025338554
C           46.72380763613477       -1.00590694202878       -0.77415856227850
C           46.05515311122532       -2.04760208385325       -1.49479007669331
C           47.01823988236714       -2.81084731012357       -2.07326205783659
C           48.28483556571642       -2.23528269596226       -1.71849267191660
N           48.06873673952168       -1.14444161224517       -0.91880369344279
C           49.53505951442364       -2.72754945891859       -2.11165193474501
C           49.54720639499877       -3.89941381847851       -3.02026321452048
C           50.15458672838732       -5.09719608860539       -2.63321726294097
C           50.16891070443996       -6.18893345295217       -3.48059460789411
C           49.58610281811985       -6.11103778921095       -4.75135411724131
N           49.58626170452717       -7.24682056832855       -5.54885161792954
C           49.46371769903929       -7.11027349564011       -6.99419191972020
C           48.97047538741549       -4.91812211508803       -5.14058961727428
C           48.95328915127905       -3.83215279954149       -4.28170040910127
C           50.77616199182812       -2.20979921128143       -1.72172185811714
C           52.05225981679726       -2.68534384911610       -2.17635927522400
C           53.00189123791291       -1.92583867232647       -1.57121552834319
N           50.97323506954476       -1.16002257367629       -0.86429336028834
C           52.31536674506201       -0.97314654532930       -0.75127288102912
C           52.95079572734838       -0.00048986776750        0.04842541570271
C           52.29706319860563        0.97591380177581        0.82852258703850
C           52.96378814464414        1.92687542780526        1.66646755339178
C           52.00059568909487        2.69442152872575        2.23930330703415
C           50.73618948929071        2.22503833334741        1.74709324770604
N           50.95315403357191        1.17051160666298        0.90046285090067
C           49.48670662362723        2.75260012935709        2.09570939549712
C           49.47783402231794        3.93584919709489        2.98888040601560
C           48.83327754801781        3.89507231516807        4.22647209569231
C           48.82437399600196        4.99563092639998        5.06670818394974
C           49.46571400629689        6.17681443808222        4.68306719028315
N           49.44061269048581        7.32710760875836        5.45821579589585
C           49.23074778099024        7.22364868114107        6.89593698064780
C           50.10341418856198        6.22698973425030        3.43737003586968
C           50.11320577403806        5.12138942151876        2.60832771927072
C           48.24596597809069        2.26046845316532        1.67266878975379
C           46.97147567340042        2.84075427086139        1.98952446766436
C           46.02202850348773        2.06993530272553        1.39869701071517
C           46.70721753229738        1.02091715127842        0.70494643650948
N           48.04842331234617        1.16149201808171        0.87914094931036
H           44.98560548022665       -2.17769061329393       -1.54160373989087
H           46.88311513538455       -3.69498877598282       -2.67518224465282
H           50.60275873130156       -5.17501530638625       -1.64862413982409
H           50.63450835334773       -7.11610695529260       -3.16317205197046
H           50.30941210797076       -7.90599282941385       -5.28627770438528
H           48.46294538352901       -6.76285727540551       -7.25351176120082
H           50.20446289422409       -6.41002666218629       -7.39721427619141
H           49.61752497189178       -8.09328947028927       -7.43936822445566
H           48.50270230075946       -4.83001165613881       -6.11350055790934
H           48.48862546634015       -2.90613271019439       -4.60292181555451
H           52.20283162421124       -3.48791593797962       -2.88031787754987
H           54.07327822274241       -1.99387397936851       -1.67394548712883
H           54.03189849104619        1.98856991466015        1.80214328173417
H           52.13437145342017        3.49782639912300        2.94570220434430
H           48.34848197497141        2.97838549231617        4.54468227158687
H           48.31601896661396        4.92796314265002        6.02069908725433
H           50.18471942106753        7.97294533745175        5.22313325308005
H           49.93364574077131        6.52021917947514        7.35699091293606
H           49.37520495279183        8.21335593638946        7.32927255499424
H           48.21025893237273        6.89842160352895        7.10209807528939
H           50.59106640511445        7.14428139092854        3.12440853685606
H           50.60176925854780        5.17891924078763        1.64170889466520
H           46.82172828056995        3.73289200608053        2.57592117336357
H           44.95175365248910        2.20083072077623        1.41869251808443

          :  Hamiltonian                  GFN1-xTB          :
         :: total energy            -348.818266388005 Eh    ::
         :: gradient norm              0.000446885022 Eh/a0 ::
         :: HOMO-LUMO gap              0.887570580519 eV    ::
         :: SCC energy              -354.655593000570 Eh    ::
         :: repulsion energy           6.016978218934 Eh    ::

    * Orbital Energies and Occupations

         #    Occupation            Energy/Eh            Energy/eV
      -------------------------------------------------------------
         1        2.0000           -0.7765639             -21.1314
       ...           ...                  ...                  ...
       309        2.0000           -0.3961935             -10.7810
       310        2.0000           -0.3925828             -10.6827
       311        2.0000           -0.3905085             -10.6263
       312        2.0000           -0.3898454             -10.6082
       313        2.0000           -0.3892159             -10.5911
       314        2.0000           -0.3890617             -10.5869
       315        2.0000           -0.3886761             -10.5764
       316        2.0000           -0.3861413             -10.5074
       317        2.0000           -0.3852195             -10.4824
       318        2.0000           -0.3848760             -10.4730
       319        2.0000           -0.3750841             -10.2066
       320        2.0000           -0.3705471             -10.0831
       321        2.0000           -0.3649693              -9.9313 (HOMO)
       322                         -0.3323517              -9.0437 (LUMO)
       323                         -0.3238594              -8.8127
       324                         -0.3184939              -8.6667
       325                         -0.3175684              -8.6415
       326                         -0.3169267              -8.6240
       327                         -0.3165747              -8.6144
       328                         -0.2972359              -8.0882
       329                         -0.2896284              -7.8812
       330                         -0.2893081              -7.8725
       331                         -0.2871400              -7.8135
       332                         -0.2833224              -7.7096
       ...                                ...                  ...
       704                          1.6150922              43.9489
      -------------------------------------------------------------
                  HL-Gap            0.0326176 Eh            0.8876 eV

Wiberg/Mayer (AO) data.
largest (>0.10) Wiberg bond orders for each atom

     #   Z sym  total        # sym  WBO       # sym  WBO       # sym  WBO
 ---------------------------------------------------------------------------
     1  30 Zn   2.000 --    41 N    0.460     7 N    0.460    20 N    0.457
                            27 N    0.457
     2   6 C    3.924 --    40 C    1.356     3 C    1.356    42 H    0.971
     3   6 C    3.923 --     2 C    1.356     7 N    1.232     4 C    1.173
     4   6 C    3.959 --     5 C    1.655     3 C    1.173    43 H    0.976
     5   6 C    3.963 --     4 C    1.655     6 C    1.175    44 H    0.973
     6   6 C    3.916 --     8 C    1.309     7 N    1.246     5 C    1.175
     7   7 N    3.293 --     6 C    1.246     3 C    1.232     1 Zn   0.460
     8   6 C    3.933 --    17 C    1.323     6 C    1.309     9 C    1.034
     9   6 C    3.988 --    16 C    1.385    10 C    1.374     8 C    1.034
    10   6 C    3.987 --    11 C    1.476     9 C    1.374    45 H    0.973
    11   6 C    3.989 --    10 C    1.476    12 C    1.346    46 H    0.971
                            16 C    0.100
    12   6 C    3.952 --    15 C    1.354    11 C    1.346    13 N    1.108
    13   7 N    3.178 --    12 C    1.108    14 C    0.972    47 H    0.931
    14   6 C    3.968 --    50 H    0.990    49 H    0.986    48 H    0.984
                            13 N    0.972
    15   6 C    3.990 --    16 C    1.463    12 C    1.354    51 H    0.970
    16   6 C    3.987 --    15 C    1.463     9 C    1.385    52 H    0.973
                            11 C    0.100
    17   6 C    3.912 --     8 C    1.323    20 N    1.223    18 C    1.181
    18   6 C    3.960 --    19 C    1.643    17 C    1.181    53 H    0.973
    19   6 C    3.961 --    18 C    1.643    21 C    1.188    54 H    0.974
    20   7 N    3.296 --    21 C    1.264    17 C    1.223     1 Zn   0.457
    21   6 C    3.902 --    20 N    1.264    22 C    1.250    19 C    1.188
    22   6 C    3.936 --    21 C    1.250    23 C    1.250   133 C    1.196
    23   6 C    3.902 --    27 N    1.264    22 C    1.250    24 C    1.188
    24   6 C    3.961 --    25 C    1.643    23 C    1.188    55 H    0.974
    25   6 C    3.960 --    24 C    1.643    26 C    1.181    56 H    0.973
    26   6 C    3.912 --    28 C    1.323    27 N    1.223    25 C    1.181
    27   7 N    3.296 --    23 C    1.264    26 C    1.223     1 Zn   0.457
    28   6 C    3.933 --    26 C    1.323    37 C    1.309    29 C    1.034
    29   6 C    3.988 --    30 C    1.385    36 C    1.374    28 C    1.034
    30   6 C    3.987 --    31 C    1.463    29 C    1.385    57 H    0.973
                            35 C    0.100
    31   6 C    3.990 --    30 C    1.463    32 C    1.355    58 H    0.970
    32   6 C    3.952 --    31 C    1.355    35 C    1.346    33 N    1.107
    33   7 N    3.178 --    32 C    1.107    34 C    0.971    59 H    0.931
    34   6 C    3.968 --    61 H    0.990    60 H    0.986    62 H    0.984
                            33 N    0.971
    35   6 C    3.989 --    36 C    1.475    32 C    1.346    63 H    0.971
                            30 C    0.100
    36   6 C    3.987 --    35 C    1.475    29 C    1.374    64 H    0.973
    37   6 C    3.916 --    28 C    1.309    41 N    1.246    38 C    1.175
    38   6 C    3.963 --    39 C    1.655    37 C    1.175    65 H    0.973
    39   6 C    3.959 --    38 C    1.655    40 C    1.173    66 H    0.976
    40   6 C    3.923 --     2 C    1.356    41 N    1.232    39 C    1.173
    41   7 N    3.293 --    37 C    1.246    40 C    1.232     1 Zn   0.460
    42   1 H    1.002 --     2 C    0.971
    43   1 H    0.998 --     4 C    0.976
    44   1 H    1.006 --     5 C    0.973
    45   1 H    1.005 --    10 C    0.973
    46   1 H    0.999 --    11 C    0.971
    47   1 H    0.966 --    13 N    0.931
    48   1 H    1.003 --    14 C    0.984
    49   1 H    1.012 --    14 C    0.986
    50   1 H    1.007 --    14 C    0.990
    51   1 H    1.001 --    15 C    0.970
    52   1 H    1.005 --    16 C    0.973
    53   1 H    1.006 --    18 C    0.973
    54   1 H    1.002 --    19 C    0.974
    55   1 H    1.002 --    24 C    0.974
    56   1 H    1.006 --    25 C    0.973
    57   1 H    1.006 --    30 C    0.973
    58   1 H    1.001 --    31 C    0.970
    59   1 H    0.966 --    33 N    0.931
    60   1 H    1.012 --    34 C    0.986
    61   1 H    1.007 --    34 C    0.990
    62   1 H    1.003 --    34 C    0.984
    63   1 H    0.999 --    35 C    0.971
    64   1 H    1.005 --    36 C    0.973
    65   1 H    1.006 --    38 C    0.973
    66   1 H    0.998 --    39 C    0.976
    67  30 Zn   2.000 --   107 N    0.460    73 N    0.460    93 N    0.457
                            86 N    0.457
    68   6 C    3.924 --    69 C    1.357   106 C    1.356   108 H    0.971
    69   6 C    3.923 --    68 C    1.357    73 N    1.232    70 C    1.173
    70   6 C    3.960 --    71 C    1.655    69 C    1.173   109 H    0.976
    71   6 C    3.963 --    70 C    1.655    72 C    1.175   110 H    0.973
    72   6 C    3.916 --    74 C    1.309    73 N    1.246    71 C    1.175
    73   7 N    3.293 --    72 C    1.246    69 C    1.232    67 Zn   0.460
    74   6 C    3.933 --    83 C    1.323    72 C    1.309    75 C    1.034
    75   6 C    3.988 --    82 C    1.385    76 C    1.374    74 C    1.034
    76   6 C    3.987 --    77 C    1.475    75 C    1.374   111 H    0.973
    77   6 C    3.989 --    76 C    1.475    78 C    1.346   112 H    0.971
                            82 C    0.100
    78   6 C    3.952 --    81 C    1.355    77 C    1.346    79 N    1.107
    79   7 N    3.178 --    78 C    1.107    80 C    0.972   113 H    0.931
    80   6 C    3.968 --   116 H    0.990   115 H    0.986   114 H    0.984
                            79 N    0.972
    81   6 C    3.990 --    82 C    1.463    78 C    1.355   117 H    0.970
    82   6 C    3.988 --    81 C    1.463    75 C    1.385   118 H    0.973
                            77 C    0.100
    83   6 C    3.912 --    74 C    1.323    86 N    1.223    84 C    1.181
    84   6 C    3.960 --    85 C    1.643    83 C    1.181   119 H    0.973
    85   6 C    3.961 --    84 C    1.643    87 C    1.188   120 H    0.974
    86   7 N    3.296 --    87 C    1.264    83 C    1.223    67 Zn   0.457
    87   6 C    3.902 --    86 N    1.264    88 C    1.250    85 C    1.188
    88   6 C    3.936 --    87 C    1.250    89 C    1.250   148 C    1.196
    89   6 C    3.902 --    93 N    1.264    88 C    1.250    90 C    1.188
    90   6 C    3.961 --    91 C    1.643    89 C    1.188   121 H    0.974
    91   6 C    3.960 --    90 C    1.643    92 C    1.181   122 H    0.973
    92   6 C    3.912 --    94 C    1.323    93 N    1.223    91 C    1.181
    93   7 N    3.296 --    89 C    1.264    92 C    1.223    67 Zn   0.457
    94   6 C    3.933 --    92 C    1.323   103 C    1.309    95 C    1.034
    95   6 C    3.988 --    96 C    1.385   102 C    1.374    94 C    1.034
    96   6 C    3.987 --    97 C    1.463    95 C    1.385   123 H    0.973
    97   6 C    3.990 --    96 C    1.463    98 C    1.354   124 H    0.970
    98   6 C    3.952 --    97 C    1.354   101 C    1.346    99 N    1.107
    99   7 N    3.177 --    98 C    1.107   100 C    0.971   125 H    0.932
   100   6 C    3.968 --   127 H    0.990   126 H    0.986   128 H    0.984
                            99 N    0.971
   101   6 C    3.989 --   102 C    1.476    98 C    1.346   129 H    0.971
   102   6 C    3.987 --   101 C    1.476    95 C    1.374   130 H    0.973
   103   6 C    3.916 --    94 C    1.309   107 N    1.246   104 C    1.175
   104   6 C    3.963 --   105 C    1.655   103 C    1.175   131 H    0.973
   105   6 C    3.959 --   104 C    1.655   106 C    1.173   132 H    0.976
   106   6 C    3.923 --    68 C    1.356   107 N    1.232   105 C    1.173
   107   7 N    3.293 --   103 C    1.246   106 C    1.232    67 Zn   0.460
   108   1 H    1.002 --    68 C    0.971
   109   1 H    0.998 --    70 C    0.976
   110   1 H    1.006 --    71 C    0.973
   111   1 H    1.005 --    76 C    0.973
   112   1 H    0.999 --    77 C    0.971
   113   1 H    0.966 --    79 N    0.931
   114   1 H    1.003 --    80 C    0.984
   115   1 H    1.012 --    80 C    0.986
   116   1 H    1.007 --    80 C    0.990
   117   1 H    1.001 --    81 C    0.970
   118   1 H    1.005 --    82 C    0.973
   119   1 H    1.006 --    84 C    0.973
   120   1 H    1.002 --    85 C    0.974
   121   1 H    1.002 --    90 C    0.974
   122   1 H    1.006 --    91 C    0.973
   123   1 H    1.006 --    96 C    0.973
   124   1 H    1.001 --    97 C    0.970
   125   1 H    0.966 --    99 N    0.932
   126   1 H    1.012 --   100 C    0.986
   127   1 H    1.007 --   100 C    0.990
   128   1 H    1.003 --   100 C    0.984
   129   1 H    0.999 --   101 C    0.971
   130   1 H    1.005 --   102 C    0.973
   131   1 H    1.006 --   104 C    0.973
   132   1 H    0.998 --   105 C    0.976
   133   6 C    3.875 --   134 C    2.433    22 C    1.196   136 C    0.186
   134   6 C    3.932 --   133 C    2.433   135 C    1.348
   135   6 C    3.891 --   136 C    2.331   134 C    1.348   138 C    0.181
   136   6 C    3.924 --   135 C    2.331   137 C    1.373   133 C    0.186
   137   6 C    3.923 --   138 C    2.330   136 C    1.373   140 C    0.186
   138   6 C    3.892 --   137 C    2.330   139 C    1.349   135 C    0.181
   139   6 C    3.930 --   140 C    2.430   138 C    1.349
   140   6 C    3.876 --   139 C    2.430   150 C    1.199   137 C    0.186
   141   6 C    3.876 --   142 C    2.430   170 C    1.199   144 C    0.186
   142   6 C    3.930 --   141 C    2.430   143 C    1.349
   143   6 C    3.892 --   144 C    2.330   142 C    1.349   146 C    0.181
   144   6 C    3.923 --   143 C    2.330   145 C    1.373   141 C    0.186
   145   6 C    3.924 --   146 C    2.331   144 C    1.373   148 C    0.186
   146   6 C    3.891 --   145 C    2.331   147 C    1.348   143 C    0.181
   147   6 C    3.932 --   148 C    2.433   146 C    1.348
   148   6 C    3.875 --   147 C    2.433    88 C    1.196   145 C    0.186
   149  30 Zn   1.996 --   189 N    0.457   155 N    0.457   168 N    0.456
                           175 N    0.456
   150   6 C    3.923 --   151 C    1.248   188 C    1.248   140 C    1.199
   151   6 C    3.902 --   155 N    1.264   150 C    1.248   152 C    1.190
   152   6 C    3.959 --   153 C    1.640   151 C    1.190   190 H    0.974
   153   6 C    3.960 --   152 C    1.640   154 C    1.184   191 H    0.973
   154   6 C    3.908 --   156 C    1.317   155 N    1.224   153 C    1.184
   155   7 N    3.291 --   151 C    1.264   154 C    1.224   149 Zn   0.457
   156   6 C    3.928 --   154 C    1.317   165 C    1.316   157 C    1.033
   157   6 C    3.988 --   164 C    1.385   158 C    1.374   156 C    1.033
   158   6 C    3.988 --   159 C    1.476   157 C    1.374   192 H    0.973
   159   6 C    3.989 --   158 C    1.476   160 C    1.346   193 H    0.971
                           164 C    0.100
   160   6 C    3.952 --   163 C    1.354   159 C    1.346   161 N    1.107
   161   7 N    3.178 --   160 C    1.107   162 C    0.972   194 H    0.932
   162   6 C    3.968 --   197 H    0.990   195 H    0.986   196 H    0.984
                           161 N    0.972
   163   6 C    3.990 --   164 C    1.463   160 C    1.354   198 H    0.970
   164   6 C    3.988 --   163 C    1.463   157 C    1.385   199 H    0.973
                           159 C    0.100
   165   6 C    3.909 --   156 C    1.316   168 N    1.224   166 C    1.184
   166   6 C    3.960 --   167 C    1.639   165 C    1.184   200 H    0.973
   167   6 C    3.959 --   166 C    1.639   169 C    1.191   201 H    0.974
   168   7 N    3.291 --   169 C    1.264   165 C    1.224   149 Zn   0.456
   169   6 C    3.902 --   168 N    1.264   170 C    1.248   167 C    1.191
   170   6 C    3.923 --   171 C    1.248   169 C    1.248   141 C    1.199
   171   6 C    3.902 --   175 N    1.264   170 C    1.248   172 C    1.191
   172   6 C    3.959 --   173 C    1.639   171 C    1.191   202 H    0.974
   173   6 C    3.960 --   172 C    1.639   174 C    1.185   203 H    0.973
   174   6 C    3.909 --   176 C    1.316   175 N    1.225   173 C    1.185
   175   7 N    3.291 --   171 C    1.264   174 C    1.225   149 Zn   0.456
   176   6 C    3.929 --   185 C    1.317   174 C    1.316   177 C    1.035
   177   6 C    3.988 --   178 C    1.385   184 C    1.374   176 C    1.035
   178   6 C    3.987 --   179 C    1.463   177 C    1.385   204 H    0.973
   179   6 C    3.989 --   178 C    1.463   180 C    1.354   205 H    0.970
   180   6 C    3.952 --   179 C    1.354   183 C    1.345   181 N    1.108
   181   7 N    3.179 --   180 C    1.108   182 C    0.972   206 H    0.931
   182   6 C    3.968 --   208 H    0.990   209 H    0.986   207 H    0.984
                           181 N    0.972
   183   6 C    3.989 --   184 C    1.476   180 C    1.345   210 H    0.971
   184   6 C    3.987 --   183 C    1.476   177 C    1.374   211 H    0.973
   185   6 C    3.908 --   176 C    1.317   189 N    1.224   186 C    1.184
   186   6 C    3.960 --   187 C    1.639   185 C    1.184   212 H    0.973
   187   6 C    3.959 --   186 C    1.639   188 C    1.191   213 H    0.974
   188   6 C    3.902 --   189 N    1.264   150 C    1.248   187 C    1.191
   189   7 N    3.291 --   188 C    1.264   185 C    1.224   149 Zn   0.457
   190   1 H    1.002 --   152 C    0.974
   191   1 H    1.006 --   153 C    0.973
   192   1 H    1.005 --   158 C    0.973
   193   1 H    0.999 --   159 C    0.971
   194   1 H    0.966 --   161 N    0.932
   195   1 H    1.012 --   162 C    0.986
   196   1 H    1.003 --   162 C    0.984
   197   1 H    1.007 --   162 C    0.990
   198   1 H    1.001 --   163 C    0.970
   199   1 H    1.005 --   164 C    0.973
   200   1 H    1.006 --   166 C    0.973
   201   1 H    1.002 --   167 C    0.974
   202   1 H    1.002 --   172 C    0.974
   203   1 H    1.006 --   173 C    0.973
   204   1 H    1.006 --   178 C    0.973
   205   1 H    1.001 --   179 C    0.970
   206   1 H    0.966 --   181 N    0.931
   207   1 H    1.003 --   182 C    0.984
   208   1 H    1.007 --   182 C    0.990
   209   1 H    1.012 --   182 C    0.986
   210   1 H    0.999 --   183 C    0.971
   211   1 H    1.005 --   184 C    0.973
   212   1 H    1.006 --   186 C    0.973
   213   1 H    1.002 --   187 C    0.974
 ---------------------------------------------------------------------------

           -------------------------------------------------
          | TOTAL ENERGY             -348.818266388005 Eh   |
          | GRADIENT NORM               0.000446885022 Eh/α |
          | HOMO-LUMO GAP               0.887570580519 eV   |
           -------------------------------------------------

 * finished run on 2022/07/30 at 09:21:52.435
