   * xtb version 6.5.1 (b24c23e) compiled by 'conda@728c89f4b128' on 2022-07-12
          program call               : xtb Co_Ph_C6_2.xyz --gfn 1 --opt -T 48

   ID    Z sym.   atoms
    1   27 Co     1, 57
    2    6 C      2-6, 8-11, 13-29, 32-37, 58-62, 64-67, 69-85, 88-93, 113-118
    3    7 N      7, 12, 30, 31, 63, 68, 86, 87
    4    1 H      38-56, 94-112
########################################################################
[WARNING] Please study the warnings concerning your input carefully
-1- prog_main_parseArguments: Unknown option '-T' provided
########################################################################

          :  Hamiltonian                  GFN1-xTB          :
 * total energy  :  -198.7835204 Eh     change        0.4391154E-09 Eh
 * total energy  :  -200.4654866 Eh     change       -0.1681966E+01 Eh
 * total energy  :  -200.6479635 Eh     change       -0.1824770E+00 Eh
 * total energy  :  -200.7245404 Eh     change       -0.7657684E-01 Eh
 * total energy  :  -200.7716528 Eh     change       -0.4711240E-01 Eh
 * total energy  :  -200.7930018 Eh     change       -0.2134898E-01 Eh
 * total energy  :  -200.8074001 Eh     change       -0.1439831E-01 Eh
 * total energy  :  -200.8177341 Eh     change       -0.1033402E-01 Eh
 * total energy  :  -200.8250090 Eh     change       -0.7274953E-02 Eh
 * total energy  :  -200.8303172 Eh     change       -0.5308136E-02 Eh
 * total energy  :  -200.8470023 Eh     change       -0.6098415E-04 Eh
 * total energy  :  -200.8470432 Eh     change       -0.4096078E-04 Eh
 * total energy  :  -200.8470791 Eh     change       -0.3591494E-04 Eh
 * total energy  :  -200.8470988 Eh     change       -0.1962162E-04 Eh
 * total energy  :  -200.8471237 Eh     change       -0.2491316E-04 Eh
 * total energy  :  -200.8471387 Eh     change       -0.1499995E-04 Eh
 * total energy  :  -200.8471495 Eh     change       -0.1081073E-04 Eh
 * total energy  :  -200.8471576 Eh     change       -0.8102442E-05 Eh
 * total energy  :  -200.8471624 Eh     change       -0.4845774E-05 Eh
   *** GEOMETRY OPTIMIZATION CONVERGED AFTER 40 ITERATIONS ***

 final structure:
================
118
 xtb: 6.5.1 (b24c23e)
Co          12.79199445134013       -0.02986872974080       -0.00145434401659
C            9.41874577473393       -0.05898268218612       -0.06644019415801
C           10.08732313065783       -1.22244132680226       -0.38010315686468
C            9.43060149419866       -2.45085383340998       -0.70931585191933
C           10.38876038031918       -3.40613316832437       -0.74187681589851
C           11.63231498145115       -2.75805039035823       -0.44301708205044
N           11.44282216681802       -1.41018481719705       -0.27083980530435
C           12.82098760447791       -3.43335984789137       -0.20205606263349
C           13.99975456021953       -2.76531149757163        0.09058834136300
C           15.25441354990015       -3.41866918967644        0.31368306205226
C           16.19985373968358       -2.44935543108352        0.34755778954491
N           14.17427587358184       -1.40084148364847        0.02763730668100
C           15.52182016901772       -1.20898170917168        0.14181091633936
C           16.18574662834315        0.00516484937339       -0.05340296071724
C           15.49419526043401        1.20716751443461       -0.22196821220380
C           16.13977314926656        2.46094037077661       -0.44973411823420
C           15.17694791446618        3.41147749826008       -0.37879698655283
C           13.94754463362240        2.73349577595357       -0.09739312443602
C           12.75659347583973        3.37589737997770        0.20556306373002
C           12.74109994316399        4.85314174302360        0.31049727137669
C           11.91866510450582        5.61296049508303       -0.52278012887848
C           11.90663847451817        6.99597363102793       -0.42371021624699
C           12.70972810410639        7.63612340145095        0.51046694727306
C           13.52927129396934        6.88724196871192        1.34404806538928
C           13.54868415997429        5.50431848753672        1.24417335053822
C           11.57612192689297        2.67169834356407        0.40502961342165
C           10.32495998690599        3.27942286025235        0.75178144329179
C            9.38120172081972        2.31290911329941        0.65857910943538
C           10.05952778851175        1.11330090115781        0.27355181034668
N           11.41087751395516        1.32967551397297        0.17567005071436
N           14.14625415678130        1.37145413196821       -0.06972971654021
C           12.83216165038333       -4.91570525042503       -0.25925302298333
C           12.61535029860377       -5.57838284954200       -1.46727870314501
C           12.63109182320373       -6.96439442195453       -1.51711244649929
C           12.85878998131696       -7.70206736312726       -0.36336103322630
C           13.07334365617640       -7.04853761543583        0.84244702444813
C           13.06268663564609       -5.66269578776448        0.89602217790432
H            8.33518020767184       -0.06993219267346       -0.07452005474744
H            8.36862479217688       -2.55214713444988       -0.86733979722202
H           10.27516262529315       -4.46154174367461       -0.92923257383176
H           15.38637603782246       -4.48415584974010        0.40765525789473
H           17.26489056558453       -2.55002827092585        0.48107666986358
H           17.19561231288606        2.58131640112252       -0.63152344583364
H           15.27838631825245        4.47732153042607       -0.50275313357903
H           11.30076603006801        5.11530888071613       -1.26191118053975
H           11.26770886582461        7.57663679562564       -1.07979552899931
H           12.69705505273444        8.71733183463293        0.58847096753250
H           14.15637161252764        7.38242341041726        2.07713845259224
H           14.17992482322844        4.92004129115180        1.90440627188569
H           10.19854791227328        4.31430988785415        1.02564139876319
H            8.31879173192886        2.38640444928385        0.82849610413707
H           12.44979677296465       -5.00268357416084       -2.37107088728029
H           12.46626524984906       -7.47046002349364       -2.46184871246295
H           12.86966936319632       -8.78533495861365       -0.40395312928963
H           13.24960450344594       -7.62043303398303        1.74673069962835
H           13.21968211336534       -5.15279157429438        1.83995850734061
Co          28.74675271906360        0.02943749099305       -0.00316853806634
C           32.12007058534773        0.06186858541480       -0.06356826507306
C           31.45130526527912        1.23778101777643       -0.32630208450953
C           32.10786358568088        2.47940074387279       -0.60180422580275
C           31.14964231846469        3.43514193373609       -0.59256226988780
C           29.90617403109591        2.77457878497049       -0.32216748393077
N           30.09586415630923        1.42056524867554       -0.20846814780747
C           28.71721495415951        3.43852942744350       -0.05262271630804
C           27.53842651759011        2.75812473220286        0.20967825460961
C           26.28342213119856        3.40099106040805        0.45971740440899
C           25.33817427092188        2.43096860667983        0.45094639632891
N           27.36433013678651        1.39751786893767        0.08820015389703
C           26.01664886599575        1.20066656953900        0.19283671182481
C           25.35313255861285       -0.00415779756359       -0.05425434608720
C           26.04494347141106       -1.19751142116198       -0.27493790349800
C           25.39984587590740       -2.44024347015974       -0.55789994470635
C           26.36287668728415       -3.39274965451086       -0.52787151574833
C           27.59197175866112       -2.72741203826167       -0.21644709235783
C           28.78288671613233       -3.38213605511059        0.05897370099746
C           28.79847597478137       -4.86254254744899        0.09978900023847
C           29.62109570771930       -5.58559582746567       -0.76539726988415
C           29.63305601894227       -6.97160392524701       -0.72628323048472
C           28.82968611170986       -7.65156159126856        0.17908325094879
C           28.00990231577313       -6.93944292613927        1.04405445508763
C           27.99057478059096       -5.55349405834080        1.00414025779170
C           29.96311432213274       -2.68699733049145        0.28903276146849
C           31.21443671596987       -3.30902234022108        0.60888339332155
C           32.15803078947025       -2.33924770722045        0.55759026985925
C           31.47945856913571       -1.12412135154414        0.22518438530961
N           30.12805927647256       -1.33614626645752        0.11860538119270
N           27.39279860662015       -1.36799731250233       -0.12916419502221
C           28.70592695597338        4.92198563891730       -0.04522277057857
C           28.92389175678829        5.63662902704467       -1.22304471137213
C           28.90861830006775        7.02350384855432       -1.21245389951123
C           28.68016882299809        7.71026921691211       -0.02784180763134
C           28.46428427809038        7.00487104929181        1.14813569784438
C           28.47451652568426        5.61800334601709        1.14128570753967
H           33.20362975256445        0.07323479043253       -0.07134787896526
H           33.16979097328161        2.58751108960108       -0.75554150897304
H           31.26318699658225        4.49770945648246       -0.73377991249557
H           26.15120012679141        4.46144285846415        0.59925061943633
H           24.27298189946818        2.52549190705337        0.58772504750035
H           24.34417094231092       -2.55289418175490       -0.74550554287777
H           26.26178593300598       -4.45216333190026       -0.69849496345714
H           30.23918408838149       -5.05644204063597       -1.48214853567303
H           30.27212991727680       -7.52335125471564       -1.40673338930026
H           28.84232259595708       -8.73513433793709        0.21021849503681
H           27.38256098130667       -7.46587626799380        1.75481928434123
H           27.35912056181926       -4.99829430587340        1.68880890877871
H           31.34100724340725       -4.35483318152138        0.83744893283062
H           33.22050179527923       -2.41991635934308        0.72385855241943
H           29.09007171010478        5.10081288115411       -2.15092520036799
H           29.07445525791926        7.57018729908707       -2.13410071723003
H           28.66974309961913        8.79428054145428       -0.02117388537261
H           28.28738732638331        7.53688738489179        2.07632368982628
H           28.31655591603530        5.06752031960414        2.06197733878532
C           21.38378845288141       -0.00709513368350       -0.08970274406829
C           20.15499952465224        0.00569727833518       -0.08846636313390
C           18.81202104758294        0.00787531954041       -0.08396736465190
C           17.58777621546900        0.01632392920352       -0.07128719360274
C           22.72679637242524       -0.00835412532594       -0.08352328286040
C           23.95107678560533       -0.01458782048757       -0.07356939736686

          :  Hamiltonian                  GFN1-xTB          :
         :: total energy            -200.847162431067 Eh    ::
         :: gradient norm              0.000738745834 Eh/a0 ::
         :: HOMO-LUMO gap              0.007216500452 eV    ::
         :: SCC energy              -204.215068997514 Eh    ::
         :: repulsion energy           3.472313352465 Eh    ::

    * Orbital Energies and Occupations

         #    Occupation            Energy/Eh            Energy/eV
      -------------------------------------------------------------
         1        2.0000           -0.7712508             -20.9868
       ...           ...                  ...                  ...
       176        2.0000           -0.4225273             -11.4976
       177        2.0000           -0.4165970             -11.3362
       178        2.0000           -0.3969364             -10.8012
       179        2.0000           -0.3968619             -10.7992
       180        2.0000           -0.3957485             -10.7689
       181        2.0000           -0.3954832             -10.7616
       182        2.0000           -0.3951499             -10.7526
       183        1.9998           -0.3920970             -10.6695
       184        1.9998           -0.3920736             -10.6689
       185        1.9998           -0.3920410             -10.6680
       186        1.9998           -0.3920167             -10.6673
       187        1.8809           -0.3859350             -10.5018
       188        1.1294           -0.3835602             -10.4372 (HOMO)
       189        0.9905           -0.3832950             -10.4300 (LUMO)
       190                         -0.3389678              -9.2238
       191                         -0.3277089              -8.9174
       192                         -0.3276240              -8.9151
       193                         -0.3274181              -8.9095
       194                         -0.3003858              -8.1739
       195                         -0.2941126              -8.0032
       196                         -0.2940327              -8.0010
       197                         -0.2937020              -7.9920
       198                         -0.2864060              -7.7935
       199                         -0.2681494              -7.2967
       ...                                ...                  ...
       406                          1.5773374              42.9215
      -------------------------------------------------------------
                  HL-Gap            0.0002652 Eh            0.0072 eV

Wiberg/Mayer (AO) data.
largest (>0.10) Wiberg bond orders for each atom

     #   Z sym  total        # sym  WBO       # sym  WBO       # sym  WBO
 ---------------------------------------------------------------------------
     1  27 Co   3.048 --     7 N    0.641    30 N    0.637    31 N    0.635
                            12 N    0.633
     2   6 C    3.928 --     3 C    1.367    29 C    1.363    38 H    0.970
     3   6 C    3.925 --     2 C    1.367     7 N    1.200     4 C    1.174
     4   6 C    3.960 --     5 C    1.650     3 C    1.174    39 H    0.975
     5   6 C    3.963 --     4 C    1.650     6 C    1.176    40 H    0.973
     6   6 C    3.920 --     8 C    1.321     7 N    1.212     5 C    1.176
     7   7 N    3.345 --     6 C    1.212     3 C    1.200     1 Co   0.641
     8   6 C    3.932 --     9 C    1.335     6 C    1.321    32 C    1.021
     9   6 C    3.916 --     8 C    1.335    12 N    1.191    10 C    1.181
    10   6 C    3.958 --    11 C    1.638     9 C    1.181    41 H    0.973
    11   6 C    3.962 --    10 C    1.638    13 C    1.190    42 H    0.973
    12   7 N    3.349 --    13 C    1.233     9 C    1.191     1 Co   0.633
    13   6 C    3.903 --    14 C    1.256    12 N    1.233    11 C    1.190
    14   6 C    3.933 --    15 C    1.259    13 C    1.256   116 C    1.194
    15   6 C    3.904 --    14 C    1.259    31 N    1.231    16 C    1.190
    16   6 C    3.961 --    17 C    1.636    15 C    1.190    43 H    0.973
    17   6 C    3.959 --    16 C    1.636    18 C    1.182    44 H    0.973
    18   6 C    3.917 --    19 C    1.332    31 N    1.193    17 C    1.182
    19   6 C    3.932 --    18 C    1.332    26 C    1.317    20 C    1.030
    20   6 C    3.988 --    25 C    1.394    21 C    1.393    19 C    1.030
                            23 C    0.107
    21   6 C    3.987 --    22 C    1.448    20 C    1.393    45 H    0.973
                            24 C    0.109
    22   6 C    3.995 --    21 C    1.448    23 C    1.437    46 H    0.973
                            25 C    0.109
    23   6 C    3.989 --    24 C    1.437    22 C    1.437    47 H    0.974
                            20 C    0.107
    24   6 C    3.995 --    25 C    1.448    23 C    1.437    48 H    0.973
                            21 C    0.109
    25   6 C    3.987 --    24 C    1.448    20 C    1.394    49 H    0.973
                            22 C    0.109
    26   6 C    3.920 --    19 C    1.317    30 N    1.213    27 C    1.178
    27   6 C    3.963 --    28 C    1.646    26 C    1.178    50 H    0.973
    28   6 C    3.959 --    27 C    1.646    29 C    1.176    51 H    0.975
    29   6 C    3.925 --     2 C    1.363    30 N    1.202    28 C    1.176
    30   7 N    3.347 --    26 C    1.213    29 C    1.202     1 Co   0.637
    31   7 N    3.346 --    15 C    1.231    18 C    1.193     1 Co   0.635
    32   6 C    3.988 --    33 C    1.398    37 C    1.397     8 C    1.021
                            35 C    0.109
    33   6 C    3.988 --    34 C    1.446    32 C    1.398    52 H    0.973
                            36 C    0.110
    34   6 C    3.995 --    33 C    1.446    35 C    1.438    53 H    0.973
                            37 C    0.110
    35   6 C    3.991 --    34 C    1.438    36 C    1.438    54 H    0.974
                            32 C    0.109
    36   6 C    3.995 --    37 C    1.446    35 C    1.438    55 H    0.973
                            33 C    0.110
    37   6 C    3.988 --    36 C    1.446    32 C    1.397    56 H    0.973
                            34 C    0.110
    38   1 H    1.000 --     2 C    0.970
    39   1 H    0.998 --     4 C    0.975
    40   1 H    1.005 --     5 C    0.973
    41   1 H    1.005 --    10 C    0.973
    42   1 H    1.001 --    11 C    0.973
    43   1 H    1.001 --    16 C    0.973
    44   1 H    1.004 --    17 C    0.973
    45   1 H    1.005 --    21 C    0.973
    46   1 H    1.003 --    22 C    0.973
    47   1 H    1.003 --    23 C    0.974
    48   1 H    1.003 --    24 C    0.973
    49   1 H    1.005 --    25 C    0.973
    50   1 H    1.004 --    27 C    0.973
    51   1 H    0.998 --    28 C    0.975
    52   1 H    1.004 --    33 C    0.973
    53   1 H    1.002 --    34 C    0.973
    54   1 H    1.003 --    35 C    0.974
    55   1 H    1.003 --    36 C    0.973
    56   1 H    1.004 --    37 C    0.973
    57  27 Co   3.044 --    63 N    0.640    86 N    0.637    87 N    0.634
                            68 N    0.633
    58   6 C    3.928 --    59 C    1.367    85 C    1.363    94 H    0.970
    59   6 C    3.925 --    58 C    1.367    63 N    1.200    60 C    1.174
    60   6 C    3.960 --    61 C    1.650    59 C    1.174    95 H    0.975
    61   6 C    3.963 --    60 C    1.650    62 C    1.176    96 H    0.973
    62   6 C    3.920 --    64 C    1.320    63 N    1.212    61 C    1.176
    63   7 N    3.345 --    62 C    1.212    59 C    1.200    57 Co   0.640
    64   6 C    3.932 --    65 C    1.335    62 C    1.320    88 C    1.021
    65   6 C    3.916 --    64 C    1.335    68 N    1.191    66 C    1.181
    66   6 C    3.958 --    67 C    1.638    65 C    1.181    97 H    0.973
    67   6 C    3.962 --    66 C    1.638    69 C    1.190    98 H    0.973
    68   7 N    3.349 --    69 C    1.233    65 C    1.191    57 Co   0.633
    69   6 C    3.903 --    70 C    1.257    68 N    1.233    67 C    1.190
    70   6 C    3.933 --    71 C    1.259    69 C    1.257   118 C    1.193
    71   6 C    3.904 --    70 C    1.259    87 N    1.231    72 C    1.190
    72   6 C    3.961 --    73 C    1.636    71 C    1.190    99 H    0.973
    73   6 C    3.959 --    72 C    1.636    74 C    1.182   100 H    0.973
    74   6 C    3.917 --    75 C    1.332    87 N    1.193    73 C    1.182
    75   6 C    3.932 --    74 C    1.332    82 C    1.317    76 C    1.030
    76   6 C    3.988 --    81 C    1.394    77 C    1.394    75 C    1.030
                            79 C    0.107
    77   6 C    3.987 --    78 C    1.448    76 C    1.394   101 H    0.973
                            80 C    0.109
    78   6 C    3.995 --    77 C    1.448    79 C    1.437   102 H    0.973
                            81 C    0.109
    79   6 C    3.989 --    80 C    1.437    78 C    1.437   103 H    0.974
                            76 C    0.107
    80   6 C    3.995 --    81 C    1.448    79 C    1.437   104 H    0.973
                            77 C    0.109
    81   6 C    3.987 --    80 C    1.448    76 C    1.394   105 H    0.973
                            78 C    0.109
    82   6 C    3.920 --    75 C    1.317    86 N    1.212    83 C    1.178
    83   6 C    3.963 --    84 C    1.647    82 C    1.178   106 H    0.973
    84   6 C    3.959 --    83 C    1.647    85 C    1.176   107 H    0.975
    85   6 C    3.925 --    58 C    1.363    86 N    1.202    84 C    1.176
    86   7 N    3.346 --    82 C    1.212    85 C    1.202    57 Co   0.637
    87   7 N    3.346 --    71 C    1.231    74 C    1.193    57 Co   0.634
    88   6 C    3.988 --    89 C    1.398    93 C    1.397    64 C    1.021
                            91 C    0.109
    89   6 C    3.988 --    90 C    1.446    88 C    1.398   108 H    0.973
                            92 C    0.110
    90   6 C    3.995 --    89 C    1.446    91 C    1.438   109 H    0.973
                            93 C    0.110
    91   6 C    3.991 --    90 C    1.438    92 C    1.438   110 H    0.974
                            88 C    0.109
    92   6 C    3.995 --    93 C    1.446    91 C    1.438   111 H    0.973
                            89 C    0.110
    93   6 C    3.988 --    92 C    1.446    88 C    1.397   112 H    0.973
                            90 C    0.110
    94   1 H    1.000 --    58 C    0.970
    95   1 H    0.998 --    60 C    0.975
    96   1 H    1.005 --    61 C    0.973
    97   1 H    1.005 --    66 C    0.973
    98   1 H    1.001 --    67 C    0.973
    99   1 H    1.001 --    72 C    0.973
   100   1 H    1.004 --    73 C    0.973
   101   1 H    1.005 --    77 C    0.973
   102   1 H    1.003 --    78 C    0.973
   103   1 H    1.003 --    79 C    0.974
   104   1 H    1.003 --    80 C    0.973
   105   1 H    1.005 --    81 C    0.973
   106   1 H    1.004 --    83 C    0.973
   107   1 H    0.998 --    84 C    0.975
   108   1 H    1.004 --    89 C    0.973
   109   1 H    1.003 --    90 C    0.973
   110   1 H    1.003 --    91 C    0.974
   111   1 H    1.003 --    92 C    0.973
   112   1 H    1.004 --    93 C    0.973
   113   6 C    3.920 --   114 C    2.358   117 C    1.341   116 C    0.189
   114   6 C    3.920 --   113 C    2.358   115 C    1.341   118 C    0.189
   115   6 C    3.930 --   116 C    2.440   114 C    1.341
   116   6 C    3.884 --   115 C    2.440    14 C    1.194   113 C    0.189
   117   6 C    3.930 --   118 C    2.440   113 C    1.341
   118   6 C    3.884 --   117 C    2.440    70 C    1.193   114 C    0.189
 ---------------------------------------------------------------------------

           -------------------------------------------------
          | TOTAL ENERGY             -200.847162431067 Eh   |
          | GRADIENT NORM               0.000738745834 Eh/α |
          | HOMO-LUMO GAP               0.007216500452 eV   |
           -------------------------------------------------

 * finished run on 2022/07/30 at 01:45:02.097
