   * xtb version 6.5.1 (b24c23e) compiled by 'conda@728c89f4b128' on 2022-07-12
          program call               : xtb Zn_p-CP_C4_3.xyz --gfn 1 --opt -T 48

   ID    Z sym.   atoms
    1   30 Zn     1, 63, 133
    2    6 C      2-6, 8-11, 13-24, 27-32, 35-39, 42, 43, 64-68, 70-73,
                  75-86, 89-94, 97-101, 104, 105, 125-132, 134-138, 140-143,
                  145-156, 159-164, 167-171, 174, 175
    3    7 N      7, 12, 33, 34, 69, 74, 95, 96, 139, 144, 165, 166
    4    8 O      25, 26, 40, 41, 87, 88, 102, 103, 157, 158, 172, 173
    5    1 H      44-62, 106-124, 176-193

          :  Hamiltonian                  GFN1-xTB          :
 * total energy  :  -358.8774051 Eh     change       -0.1714398E-09 Eh
 * total energy  :  -359.1234057 Eh     change       -0.2460006E+00 Eh
 * total energy  :  -359.2200876 Eh     change       -0.9668192E-01 Eh
 * total energy  :  -359.2697804 Eh     change       -0.4969284E-01 Eh
 * total energy  :  -359.3020307 Eh     change       -0.3225026E-01 Eh
 * total energy  :  -359.3371137 Eh     change       -0.3508298E-01 Eh
 * total energy  :  -359.3754290 Eh     change       -0.3831534E-01 Eh
 * total energy  :  -359.4101744 Eh     change       -0.3474535E-01 Eh
 * total energy  :  -359.4383361 Eh     change       -0.2816174E-01 Eh
 * total energy  :  -359.4626139 Eh     change       -0.2427783E-01 Eh
 * total energy  :  -359.7026188 Eh     change       -0.1841054E-04 Eh
 * total energy  :  -359.7026342 Eh     change       -0.1545133E-04 Eh
 * total energy  :  -359.7026477 Eh     change       -0.1349448E-04 Eh
 * total energy  :  -359.7026625 Eh     change       -0.1481635E-04 Eh
 * total energy  :  -359.7026707 Eh     change       -0.8206862E-05 Eh
 * total energy  :  -359.7026763 Eh     change       -0.5577294E-05 Eh
 * total energy  :  -359.7026832 Eh     change       -0.6882305E-05 Eh
 * total energy  :  -359.7026913 Eh     change       -0.8070095E-05 Eh
 * total energy  :  -359.7026947 Eh     change       -0.3382647E-05 Eh
   *** GEOMETRY OPTIMIZATION CONVERGED AFTER 81 ITERATIONS ***

 final structure:
================
193
 xtb: 6.5.1 (b24c23e)
Zn          35.94129047577136       -0.04495536118544        0.01585320702107
C           32.53356334104416       -0.10200989200914        0.02201507806213
C           33.15529770480481       -0.14739439500442        1.26387410177788
C           32.47259748619975       -0.18069075707600        2.52720424791209
C           33.42475970182765       -0.20262947569092        3.49265071833561
C           34.70255732289079       -0.19278087912385        2.82983293158399
N           34.50342580328658       -0.15140501032608        1.48110346895605
C           35.94962982843911       -0.19066678351393        3.46663930782421
C           37.19342600467571       -0.13760966495234        2.82684120900597
C           38.46941069355665       -0.18986941507970        3.48667949897416
C           39.42158065007261       -0.13380938644698        2.52132764737188
N           37.39473845040003       -0.06360387580178        1.47539242276851
C           38.73894461838947       -0.05463931079654        1.26274640151465
C           39.37577100610054        0.01175202773040        0.00942411730234
C           38.73234395133217        0.06280709278648       -1.24130973170886
C           39.40866339765891        0.10053465014508       -2.50520658553365
C           38.45169157827926        0.12763170030637       -3.46706623864867
C           37.17902038485180        0.11526500679967       -2.79896871771356
C           35.93198633511155        0.11386134213218       -3.43451260133103
C           35.92547651345718        0.18039513761146       -4.91621913056527
C           35.38145925552803       -0.86465129612455       -5.66811974650745
C           35.37374519766294       -0.80173240477009       -7.04919410349550
C           35.90514168135626        0.31012137611613       -7.70590524422055
C           35.86905020222372        0.33415362724253       -9.18700691821639
O           36.39889589837168        1.44620068438069       -9.72006464747910
O           35.41184028617440       -0.54598693450034       -9.87153163092152
C           36.44835015599477        1.35708225777364       -6.96028219733487
C           36.45969124285504        1.28901060183090       -5.57812715459589
C           34.68828636695393        0.05389448014538       -2.79381015029667
C           33.40715191398526        0.10081050879281       -3.44861643136860
C           32.45984833044097        0.03824410281813       -2.48018798893919
C           33.14888048591070       -0.03832933003015       -1.22219613057982
N           34.49594095852152       -0.02245230715722       -1.44569895259158
N           37.38710729115436        0.06867206959148       -1.44729341581636
C           35.95236213755035       -0.24992783477137        4.94869627988327
C           35.41160793697530       -1.35355686759139        5.61424093090084
C           35.41607649281270       -1.40754744579486        6.99573576844648
C           35.95642717501538       -0.35643678490038        7.73945890469580
C           35.93536904438282       -0.45830645331778        9.21755852820785
O           36.48234479202919        0.59945785671339        9.83687143052998
O           35.47839739397111       -1.39000623388761        9.83005684659767
C           36.49535106549588        0.74902002969254        7.08029166659569
C           36.49443782630601        0.79805135854751        5.69729695473251
H           31.44796216082757       -0.10671332971467        0.02463548465819
H           31.40063647914683       -0.17952568563224        2.64784203440047
H           33.27953845832685       -0.21207656056134        4.56102114541532
H           38.61602379885619       -0.27323533545028        4.55150933332927
H           40.49305283785941       -0.15111523775745        2.64204244938942
H           40.47955525780396        0.09862547675319       -2.63221797159857
H           38.59308789601508        0.14111927649013       -4.53578539072107
H           34.97909063987166       -1.73412602166497       -5.16069825386047
H           34.95784497247380       -1.61181373154393       -7.63820905391449
H           36.33409802524724        1.38332291534832      -10.68676899140977
H           36.85877036854137        2.22347664737975       -7.46545125612608
H           36.87017487158023        2.10864868117938       -4.99906068142927
H           33.25661596950702        0.18451505499820       -4.51300929142354
H           31.38731221677339        0.04956699422837       -2.59504845453607
H           35.00292669762519       -2.17640069760495        5.03868418338530
H           35.00329414151413       -2.26375161489384        7.51793067039480
H           36.43011859419813        0.45468330747937       10.79550686052537
H           36.91228941231943        1.56892547826800        7.65311133203595
H           36.90218249373857        1.66289624634025        5.18603477493257
Zn          62.91569827698475       -0.02733495636745       -0.04708542820886
C           66.32313079127526       -0.08923893617191       -0.06514083989828
C           65.69987295506574        0.01309969981093       -1.30285027853937
C           66.38092445673266        0.12556346820267       -2.56251164734576
C           65.42752132962119        0.22075572550898       -3.52229655579333
C           64.15061381269409        0.15875585300451       -2.86065023746713
N           64.35148666979197        0.03977591013811       -1.51681560802956
C           62.90301843108092        0.24491946621147       -3.49044445514166
C           61.66023359290701        0.22990761252187       -2.84679987122616
C           60.38335746050099        0.26861278006491       -3.50573921744191
C           59.43250553961602        0.21093091468298       -2.53916341709092
N           61.46070894648133        0.13801466586879       -1.49613939688276
C           60.11686401144103        0.12823994557423       -1.28175085587896
C           59.48133715406868        0.03344234632452       -0.02951749491825
C           60.12597998139181       -0.07817648990566        1.21661749239790
C           59.45121395953198       -0.20085830277830        2.47594510917475
C           60.40938885772540       -0.29126975262122        3.43272599794188
C           61.68122148171112       -0.21665502812471        2.76704691225619
C           62.92906176486077       -0.29125522214428        3.39663715816332
C           62.93707922036413       -0.40215702639168        4.87568711828635
C           63.48573410743879       -1.52698482657532        5.49786897678879
C           63.49520544430315       -1.62806696535297        6.87670032823176
C           62.96100988165873       -0.60375013492541        7.66106198894595
C           62.99965916929440       -0.75489469738542        9.13465211148728
O           62.46751796988109        0.28472349838248        9.79600751659347
O           63.46066573341572       -1.70838298326886        9.70958339354141
C           62.41284700336809        0.52207858569779        7.04531043991671
C           62.39970375545901        0.61815859611239        5.66484829081258
C           64.17204277315246       -0.27031959276749        2.75206922169468
C           65.45405303650233       -0.30085559901984        3.40612523930546
C           66.40006904914289       -0.24657690698020        2.43594706902744
C           65.70938198165376       -0.17274745905418        1.17868810307387
N           64.36262489132318       -0.18425195584063        1.40425109641309
N           61.47148129153926       -0.09561849673083        1.42026998738195
C           62.89836426525007        0.36060611743541       -4.96924837070036
C           63.42603904388854       -0.66354646807681       -5.76042105048075
C           63.41845370857153       -0.55623959963900       -7.13877361067740
C           62.88855552547420        0.58017961770848       -7.75329428479601
C           62.90607996246618        0.65045358882042       -9.23336694451250
O           62.37330864187184        1.78012165316147       -9.72445738793398
O           63.34944950663613       -0.21047119191034       -9.95060862315789
C           62.36335694239479        1.60723821114240       -6.96822375474233
C           62.36686787690992        1.49460142484414       -5.58892673069855
H           67.40871826916589       -0.09510123769298       -0.06975422902118
H           67.45273374836532        0.13641674167106       -2.68402410025463
H           65.57124800309599        0.33562665495791       -4.58472901650212
H           60.23510685965949        0.31908141551547       -4.57241647213973
H           58.36082800528220        0.21591402677683       -2.65921259340023
H           58.38049313767172       -0.22121948091336        2.60274872632749
H           60.26950962744417       -0.41161238247563        4.49493061572965
H           63.89036034949404       -2.32881156493775        4.89064472307942
H           63.91482399204262       -2.50069375478904        7.36516260965634
H           62.53372471391407        0.10840350626770       10.74847515604536
H           62.00003552244531        1.32096729551588        7.64998722512168
H           61.98537171309399        1.49904231486678        5.18737019767564
H           65.60604674156234       -0.34503941804485        4.47267904113305
H           67.47275822072257       -0.24844416009167        2.54992763588919
H           63.82692968698656       -1.55205836061448       -5.28587131692244
H           63.82072559327435       -1.35020400252803       -7.75839276319753
H           62.42381655676878        1.74752050408399      -10.69353065044334
H           61.95476672125300        2.49284515979578       -7.44043498418725
H           61.96941316513889        2.29815976108476       -4.97908596429544
C           42.00688862036105        0.02433178929840        0.00085014551833
C           40.78608360931217        0.01832216798805        0.00527297318578
C           43.35987783528604        0.03071273028606       -0.00414913840995
C           44.58075504216755        0.03395312725650       -0.00454290165239
C           55.49739337282823        0.04660744376639       -0.01900480616828
C           54.27650968704802        0.04674140850399       -0.01771185332636
C           56.85030855936439        0.04413556469165       -0.02168094272507
C           58.07113499431006        0.03976024545741       -0.02428378660637
Zn          49.42872054984571        0.04072138237052       -0.01135733207482
C           45.99071699069400        0.03646016859478       -0.00797124284668
C           46.63393291334829       -1.21460700749076        0.03730303466125
C           45.95778373438393       -2.47861754251710        0.05347165011587
C           46.91458290799787       -3.44005073162208        0.10051984094311
C           48.18593152217901       -2.77083345615464        0.12407946573359
N           47.97889776992102       -1.41921937733166        0.07485356546596
C           49.43326858552336       -3.40416978801565        0.16312472283655
C           50.67867399222087       -2.76607267082577        0.14070239475594
C           51.95153268407791       -3.42580267846942        0.23656104399614
C           52.90585367354468       -2.46189859625701        0.18821919361834
N           50.88221750384812       -1.41600466010793        0.05174885979797
C           52.22656504966791       -1.20492714809015        0.07159687659591
C           52.86665928752846        0.04549091888421       -0.01636834694594
C           52.22333791716338        1.29429053282618       -0.10309849403425
C           52.89932160129840        2.55288929787255       -0.22128311051551
C           51.94255460668676        3.51442658819641       -0.26829179973258
C           50.67142982843883        2.85162103864230       -0.16949056766678
C           49.42413247287706        3.48628705740728       -0.18840769323088
C           49.42277749442590        4.96793100361520       -0.26048837065518
C           50.00284356827004        5.72637623878324        0.76014085788687
C           50.00026404833637        7.10727409011615        0.69233432231366
C           49.42118849569148        7.75718713388333       -0.39948969061495
C           49.44624665202251        9.23864169214460       -0.42885746343110
O           48.85674071384906        9.76488063742253       -1.51342940079874
O           49.94305330406478        9.92821913451461        0.42546301063606
C           48.84214803638672        7.00498361191831       -1.42218513723970
C           48.84232654991155        5.62300643640366       -1.34974447941759
C           48.17853783594948        2.84947782506225       -0.14430392106072
C           46.90562910247241        3.51539314907937       -0.11328773208019
C           45.95137866899901        2.55141220854771       -0.06409035593501
C           46.63072036351024        1.28912704247542       -0.05417223954284
N           47.97503371934110        1.49728066269258       -0.09708377885819
N           50.87849229617400        1.50206237561332       -0.08101316200522
C           49.43633064389276       -4.88602114541507        0.23330372045942
C           48.86666775411030       -5.54535477423085        1.32586500115663
C           48.87286649874669       -6.92655018944237        1.38893538065266
C           49.44431568772652       -7.67562281349139        0.35842256214942
C           49.42359644806506       -9.15340570051857        0.46967099096874
O           50.00249179062600       -9.77847481307004       -0.56708450332888
O           48.93992265894554       -9.75984553299342        1.39172554099919
C           50.01251521455796       -7.02253484548243       -0.73588393796175
C           50.00949521123236       -5.63991914687114       -0.79412831346033
H           44.88739074567466       -2.60611494330857        0.02457100371528
H           46.77375610214614       -4.50883753932743        0.10715695246834
H           52.09483372145250       -4.48921781180208        0.34073560914172
H           53.97644649432944       -2.58271031843383        0.23386425559664
H           53.96956307305467        2.67630791442099       -0.26858900783888
H           52.08332354859720        4.57812363106248       -0.37298409862677
H           50.44163841063549        5.22434750541709        1.61499084177175
H           50.44428678449218        7.70143048575916        1.48351361896605
H           48.91717547996622       10.73227933187867       -1.45699064086518
H           48.39485758510558        7.50478459461845       -2.27326705605961
H           48.40399035935559        5.03879798615411       -2.15108640877726
H           46.76206159312783        4.58387094096670       -0.11546996420386
H           44.88078578832859        2.67607666925161       -0.02961421308257
H           48.43354032066120       -4.96557493659685        2.13306025884965
H           48.43731243175971       -7.44416751035334        2.23658859481387
H           49.94697685824265      -10.73633376088169       -0.41819253707155
H           50.45396223350032       -7.59967229298984       -1.53977257337018
H           50.44016984582731       -5.13298481400980       -1.65035149223241

          :  Hamiltonian                  GFN1-xTB          :
         :: total energy            -359.702694666262 Eh    ::
         :: gradient norm              0.000589802729 Eh/a0 ::
         :: HOMO-LUMO gap              1.253044220550 eV    ::
         :: SCC energy              -364.998350342233 Eh    ::
         :: repulsion energy           5.467786610801 Eh    ::

    * Orbital Energies and Occupations

         #    Occupation            Energy/Eh            Energy/eV
      -------------------------------------------------------------
         1        2.0000           -0.8325700             -22.6554
       ...           ...                  ...                  ...
       305        2.0000           -0.4296414             -11.6911
       306        2.0000           -0.4296071             -11.6902
       307        2.0000           -0.4293540             -11.6833
       308        2.0000           -0.4293388             -11.6829
       309        2.0000           -0.4273838             -11.6297
       310        2.0000           -0.4273449             -11.6286
       311        2.0000           -0.4235044             -11.5241
       312        2.0000           -0.4036515             -10.9839
       313        2.0000           -0.4020079             -10.9392
       314        2.0000           -0.4019946             -10.9388
       315        2.0000           -0.3912460             -10.6463
       316        2.0000           -0.3907360             -10.6325
       317        2.0000           -0.3888817             -10.5820 (HOMO)
       318                         -0.3428332              -9.3290 (LUMO)
       319                         -0.3383121              -9.2059
       320                         -0.3380956              -9.2000
       321                         -0.3380187              -9.1980
       322                         -0.3367625              -9.1638
       323                         -0.3367313              -9.1629
       324                         -0.3156170              -8.5884
       325                         -0.3129334              -8.5153
       326                         -0.3128815              -8.5139
       327                         -0.3077502              -8.3743
       328                         -0.3068604              -8.3501
       ...                                ...                  ...
       660                          1.5104243              41.1007
      -------------------------------------------------------------
                  HL-Gap            0.0460485 Eh            1.2530 eV

Wiberg/Mayer (AO) data.
largest (>0.10) Wiberg bond orders for each atom

     #   Z sym  total        # sym  WBO       # sym  WBO       # sym  WBO
 ---------------------------------------------------------------------------
     1  30 Zn   1.995 --     7 N    0.460    33 N    0.460    12 N    0.455
                            34 N    0.455
     2   6 C    3.932 --    32 C    1.358     3 C    1.358    44 H    0.971
     3   6 C    3.921 --     2 C    1.358     7 N    1.232     4 C    1.170
     4   6 C    3.961 --     5 C    1.661     3 C    1.170    45 H    0.975
     5   6 C    3.963 --     4 C    1.661     6 C    1.170    46 H    0.973
     6   6 C    3.919 --     8 C    1.314     7 N    1.245     5 C    1.170
     7   7 N    3.296 --     6 C    1.245     3 C    1.232     1 Zn   0.460
     8   6 C    3.934 --     9 C    1.320     6 C    1.314    35 C    1.031
     9   6 C    3.913 --     8 C    1.320    12 N    1.230    10 C    1.177
    10   6 C    3.961 --    11 C    1.649     9 C    1.177    47 H    0.973
    11   6 C    3.962 --    10 C    1.649    13 C    1.183    48 H    0.974
    12   7 N    3.298 --    13 C    1.257     9 C    1.230     1 Zn   0.455
    13   6 C    3.906 --    14 C    1.264    12 N    1.257    11 C    1.183
    14   6 C    3.941 --    13 C    1.264    15 C    1.264   126 C    1.171
    15   6 C    3.906 --    14 C    1.264    34 N    1.257    16 C    1.184
    16   6 C    3.962 --    17 C    1.649    15 C    1.184    49 H    0.974
    17   6 C    3.961 --    16 C    1.649    18 C    1.177    50 H    0.973
    18   6 C    3.914 --    19 C    1.320    34 N    1.230    17 C    1.177
    19   6 C    3.934 --    18 C    1.320    29 C    1.314    20 C    1.031
    20   6 C    3.986 --    28 C    1.386    21 C    1.384    19 C    1.031
    21   6 C    3.987 --    22 C    1.465    20 C    1.384    51 H    0.972
                            27 C    0.102
    22   6 C    3.990 --    21 C    1.465    23 C    1.384    52 H    0.968
                            28 C    0.102
    23   6 C    3.982 --    27 C    1.388    22 C    1.384    24 C    1.011
    24   6 C    3.835 --    26 O    1.688    25 O    1.087    23 C    1.011
    25   8 O    2.095 --    24 C    1.087    53 H    0.839    26 O    0.128
    26   8 O    1.956 --    24 C    1.688    25 O    0.128
    27   6 C    3.991 --    28 C    1.462    23 C    1.388    54 H    0.970
                            21 C    0.102
    28   6 C    3.987 --    27 C    1.462    20 C    1.386    55 H    0.972
                            22 C    0.102
    29   6 C    3.919 --    19 C    1.314    33 N    1.245    30 C    1.170
    30   6 C    3.963 --    31 C    1.661    29 C    1.170    56 H    0.973
    31   6 C    3.961 --    30 C    1.661    32 C    1.170    57 H    0.975
    32   6 C    3.921 --     2 C    1.358    33 N    1.232    31 C    1.170
    33   7 N    3.296 --    29 C    1.245    32 C    1.232     1 Zn   0.460
    34   7 N    3.297 --    15 C    1.257    18 C    1.230     1 Zn   0.455
    35   6 C    3.986 --    43 C    1.386    36 C    1.384     8 C    1.031
    36   6 C    3.987 --    37 C    1.465    35 C    1.384    58 H    0.972
                            42 C    0.102
    37   6 C    3.990 --    36 C    1.465    38 C    1.384    59 H    0.968
                            43 C    0.102
    38   6 C    3.982 --    42 C    1.388    37 C    1.384    39 C    1.011
    39   6 C    3.835 --    41 O    1.689    40 O    1.087    38 C    1.011
    40   8 O    2.095 --    39 C    1.087    60 H    0.839    41 O    0.128
    41   8 O    1.957 --    39 C    1.689    40 O    0.128
    42   6 C    3.991 --    43 C    1.462    38 C    1.388    61 H    0.970
                            36 C    0.102
    43   6 C    3.987 --    42 C    1.462    35 C    1.386    62 H    0.972
                            37 C    0.102
    44   1 H    1.001 --     2 C    0.971
    45   1 H    0.998 --     4 C    0.975
    46   1 H    1.004 --     5 C    0.973
    47   1 H    1.004 --    10 C    0.973
    48   1 H    1.002 --    11 C    0.974
    49   1 H    1.002 --    16 C    0.974
    50   1 H    1.004 --    17 C    0.973
    51   1 H    1.004 --    21 C    0.972
    52   1 H    1.005 --    22 C    0.968
    53   1 H    0.874 --    25 O    0.839
    54   1 H    1.005 --    27 C    0.970
    55   1 H    1.004 --    28 C    0.972
    56   1 H    1.004 --    30 C    0.973
    57   1 H    0.998 --    31 C    0.975
    58   1 H    1.004 --    36 C    0.972
    59   1 H    1.005 --    37 C    0.968
    60   1 H    0.874 --    40 O    0.839
    61   1 H    1.005 --    42 C    0.970
    62   1 H    1.004 --    43 C    0.972
    63  30 Zn   1.995 --    95 N    0.460    69 N    0.460    96 N    0.455
                            74 N    0.455
    64   6 C    3.932 --    94 C    1.358    65 C    1.358   106 H    0.971
    65   6 C    3.921 --    64 C    1.358    69 N    1.232    66 C    1.170
    66   6 C    3.961 --    67 C    1.661    65 C    1.170   107 H    0.975
    67   6 C    3.963 --    66 C    1.661    68 C    1.170   108 H    0.973
    68   6 C    3.919 --    70 C    1.314    69 N    1.245    67 C    1.170
    69   7 N    3.296 --    68 C    1.245    65 C    1.232    63 Zn   0.460
    70   6 C    3.934 --    71 C    1.320    68 C    1.314    97 C    1.031
    71   6 C    3.913 --    70 C    1.320    74 N    1.230    72 C    1.177
    72   6 C    3.961 --    73 C    1.649    71 C    1.177   109 H    0.973
    73   6 C    3.962 --    72 C    1.649    75 C    1.184   110 H    0.974
    74   7 N    3.297 --    75 C    1.258    71 C    1.230    63 Zn   0.455
    75   6 C    3.906 --    76 C    1.264    74 N    1.258    73 C    1.184
    76   6 C    3.941 --    77 C    1.264    75 C    1.264   132 C    1.171
    77   6 C    3.906 --    76 C    1.264    96 N    1.257    78 C    1.183
    78   6 C    3.962 --    79 C    1.649    77 C    1.183   111 H    0.974
    79   6 C    3.961 --    78 C    1.649    80 C    1.177   112 H    0.973
    80   6 C    3.913 --    81 C    1.320    96 N    1.230    79 C    1.177
    81   6 C    3.934 --    80 C    1.320    91 C    1.314    82 C    1.031
    82   6 C    3.986 --    90 C    1.386    83 C    1.384    81 C    1.031
    83   6 C    3.987 --    84 C    1.465    82 C    1.384   113 H    0.972
                            89 C    0.102
    84   6 C    3.990 --    83 C    1.465    85 C    1.384   114 H    0.968
                            90 C    0.102
    85   6 C    3.982 --    89 C    1.388    84 C    1.384    86 C    1.011
    86   6 C    3.835 --    88 O    1.689    87 O    1.087    85 C    1.011
    87   8 O    2.096 --    86 C    1.087   115 H    0.839    88 O    0.128
    88   8 O    1.957 --    86 C    1.689    87 O    0.128
    89   6 C    3.991 --    90 C    1.462    85 C    1.388   116 H    0.970
                            83 C    0.102
    90   6 C    3.987 --    89 C    1.462    82 C    1.386   117 H    0.972
                            84 C    0.102
    91   6 C    3.919 --    81 C    1.314    95 N    1.245    92 C    1.170
    92   6 C    3.963 --    93 C    1.661    91 C    1.170   118 H    0.973
    93   6 C    3.961 --    92 C    1.661    94 C    1.170   119 H    0.975
    94   6 C    3.921 --    64 C    1.358    95 N    1.232    93 C    1.170
    95   7 N    3.296 --    91 C    1.245    94 C    1.232    63 Zn   0.460
    96   7 N    3.297 --    77 C    1.257    80 C    1.230    63 Zn   0.455
    97   6 C    3.986 --   105 C    1.386    98 C    1.384    70 C    1.031
    98   6 C    3.987 --    99 C    1.465    97 C    1.384   120 H    0.972
                           104 C    0.102
    99   6 C    3.990 --    98 C    1.465   100 C    1.384   121 H    0.968
                           105 C    0.102
   100   6 C    3.982 --   104 C    1.388    99 C    1.384   101 C    1.011
   101   6 C    3.835 --   103 O    1.688   102 O    1.087   100 C    1.011
   102   8 O    2.095 --   101 C    1.087   122 H    0.839   103 O    0.128
   103   8 O    1.956 --   101 C    1.688   102 O    0.128
   104   6 C    3.991 --   105 C    1.462   100 C    1.388   123 H    0.970
                            98 C    0.102
   105   6 C    3.987 --   104 C    1.462    97 C    1.386   124 H    0.972
                            99 C    0.102
   106   1 H    1.001 --    64 C    0.971
   107   1 H    0.998 --    66 C    0.975
   108   1 H    1.004 --    67 C    0.973
   109   1 H    1.004 --    72 C    0.973
   110   1 H    1.002 --    73 C    0.974
   111   1 H    1.002 --    78 C    0.974
   112   1 H    1.004 --    79 C    0.973
   113   1 H    1.004 --    83 C    0.972
   114   1 H    1.005 --    84 C    0.968
   115   1 H    0.874 --    87 O    0.839
   116   1 H    1.005 --    89 C    0.970
   117   1 H    1.004 --    90 C    0.972
   118   1 H    1.004 --    92 C    0.973
   119   1 H    0.998 --    93 C    0.975
   120   1 H    1.004 --    98 C    0.972
   121   1 H    1.005 --    99 C    0.968
   122   1 H    0.874 --   102 O    0.839
   123   1 H    1.005 --   104 C    0.970
   124   1 H    1.004 --   105 C    0.972
   125   6 C    3.933 --   126 C    2.493   127 C    1.291
   126   6 C    3.918 --   125 C    2.493    14 C    1.171   128 C    0.196
   127   6 C    3.931 --   128 C    2.492   125 C    1.291
   128   6 C    3.919 --   127 C    2.492   134 C    1.172   126 C    0.196
   129   6 C    3.931 --   130 C    2.492   131 C    1.291
   130   6 C    3.919 --   129 C    2.492   146 C    1.173   132 C    0.196
   131   6 C    3.933 --   132 C    2.492   129 C    1.291
   132   6 C    3.918 --   131 C    2.492    76 C    1.171   130 C    0.196
   133  30 Zn   1.993 --   144 N    0.457   139 N    0.457   166 N    0.456
                           165 N    0.456
   134   6 C    3.932 --   135 C    1.262   164 C    1.262   128 C    1.172
   135   6 C    3.906 --   134 C    1.262   139 N    1.257   136 C    1.185
   136   6 C    3.961 --   137 C    1.647   135 C    1.185   176 H    0.974
   137   6 C    3.962 --   136 C    1.647   138 C    1.178   177 H    0.973
   138   6 C    3.912 --   140 C    1.318   139 N    1.229   137 C    1.178
   139   7 N    3.294 --   135 C    1.257   138 C    1.229   133 Zn   0.457
   140   6 C    3.930 --   138 C    1.318   141 C    1.318   167 C    1.030
   141   6 C    3.912 --   140 C    1.318   144 N    1.229   142 C    1.179
   142   6 C    3.962 --   143 C    1.647   141 C    1.179   178 H    0.973
   143   6 C    3.961 --   142 C    1.647   145 C    1.185   179 H    0.974
   144   7 N    3.294 --   145 C    1.257   141 C    1.229   133 Zn   0.457
   145   6 C    3.906 --   146 C    1.262   144 N    1.257   143 C    1.185
   146   6 C    3.932 --   147 C    1.262   145 C    1.262   130 C    1.173
   147   6 C    3.906 --   146 C    1.262   166 N    1.257   148 C    1.185
   148   6 C    3.961 --   149 C    1.647   147 C    1.185   180 H    0.974
   149   6 C    3.962 --   148 C    1.647   150 C    1.179   181 H    0.973
   150   6 C    3.912 --   151 C    1.317   166 N    1.229   149 C    1.179
   151   6 C    3.930 --   150 C    1.317   161 C    1.317   152 C    1.031
   152   6 C    3.986 --   160 C    1.386   153 C    1.384   151 C    1.031
   153   6 C    3.987 --   154 C    1.465   152 C    1.384   182 H    0.972
                           159 C    0.102
   154   6 C    3.990 --   153 C    1.465   155 C    1.384   183 H    0.968
                           160 C    0.102
   155   6 C    3.982 --   159 C    1.388   154 C    1.384   156 C    1.011
   156   6 C    3.835 --   158 O    1.689   157 O    1.087   155 C    1.011
   157   8 O    2.096 --   156 C    1.087   184 H    0.839   158 O    0.128
   158   8 O    1.957 --   156 C    1.689   157 O    0.128
   159   6 C    3.991 --   160 C    1.462   155 C    1.388   185 H    0.970
                           153 C    0.102
   160   6 C    3.987 --   159 C    1.462   152 C    1.386   186 H    0.972
                           154 C    0.102
   161   6 C    3.912 --   151 C    1.317   165 N    1.229   162 C    1.179
   162   6 C    3.962 --   163 C    1.647   161 C    1.179   187 H    0.973
   163   6 C    3.961 --   162 C    1.647   164 C    1.185   188 H    0.974
   164   6 C    3.906 --   134 C    1.262   165 N    1.257   163 C    1.185
   165   7 N    3.294 --   164 C    1.257   161 C    1.229   133 Zn   0.456
   166   7 N    3.294 --   147 C    1.257   150 C    1.229   133 Zn   0.456
   167   6 C    3.986 --   175 C    1.386   168 C    1.385   140 C    1.030
   168   6 C    3.987 --   169 C    1.465   167 C    1.385   189 H    0.972
                           174 C    0.102
   169   6 C    3.990 --   168 C    1.465   170 C    1.384   190 H    0.968
                           175 C    0.102
   170   6 C    3.982 --   174 C    1.388   169 C    1.384   171 C    1.010
   171   6 C    3.835 --   173 O    1.689   172 O    1.087   170 C    1.010
   172   8 O    2.096 --   171 C    1.087   191 H    0.839   173 O    0.128
   173   8 O    1.957 --   171 C    1.689   172 O    0.128
   174   6 C    3.991 --   175 C    1.462   170 C    1.388   192 H    0.970
                           168 C    0.102
   175   6 C    3.987 --   174 C    1.462   167 C    1.386   193 H    0.972
                           169 C    0.102
   176   1 H    1.002 --   136 C    0.974
   177   1 H    1.004 --   137 C    0.973
   178   1 H    1.004 --   142 C    0.973
   179   1 H    1.002 --   143 C    0.974
   180   1 H    1.002 --   148 C    0.974
   181   1 H    1.004 --   149 C    0.973
   182   1 H    1.004 --   153 C    0.972
   183   1 H    1.005 --   154 C    0.968
   184   1 H    0.874 --   157 O    0.839
   185   1 H    1.005 --   159 C    0.970
   186   1 H    1.004 --   160 C    0.972
   187   1 H    1.004 --   162 C    0.973
   188   1 H    1.002 --   163 C    0.974
   189   1 H    1.004 --   168 C    0.972
   190   1 H    1.005 --   169 C    0.968
   191   1 H    0.873 --   172 O    0.839
   192   1 H    1.005 --   174 C    0.970
   193   1 H    1.004 --   175 C    0.972
 ---------------------------------------------------------------------------

           -------------------------------------------------
          | TOTAL ENERGY             -359.702694666262 Eh   |
          | GRADIENT NORM               0.000589802729 Eh/α |
          | HOMO-LUMO GAP               1.253044220550 eV   |
           -------------------------------------------------

 * finished run on 2022/07/30 at 12:03:34.135
