   * xtb version 6.5.1 (b24c23e) compiled by 'conda@728c89f4b128' on 2022-07-12
          program call               : xtb Fe_Ph3OH_C8_2.xyz --gfn 1 --opt -T 48

   ID    Z sym.   atoms
    1   26 Fe     1, 63
    2    6 C      2-6, 8-11, 13, 15, 17-20, 22-27, 29-32, 34, 36, 38-42,
                  64-68, 70-73, 75, 77, 79-82, 84-89, 91-94, 96, 98, 100-104,
                  125-132
    3    7 N      7, 21, 28, 43, 69, 83, 90, 105
    4    8 O      12, 14, 16, 33, 35, 37, 74, 76, 78, 95, 97, 99
    5    1 H      44-62, 106-124
########################################################################
[WARNING] Please study the warnings concerning your input carefully
-1- prog_main_parseArguments: Unknown option '-T' provided
########################################################################

          :  Hamiltonian                  GFN1-xTB          :
 * total energy  :  -259.9532078 Eh     change        0.2541572E-07 Eh
 * total energy  :  -260.2980919 Eh     change       -0.3448841E+00 Eh
 * total energy  :  -260.3985371 Eh     change       -0.1004452E+00 Eh
 * total energy  :  -260.4444185 Eh     change       -0.4588141E-01 Eh
 * total energy  :  -260.4640173 Eh     change       -0.1959882E-01 Eh
 * total energy  :  -260.4737498 Eh     change       -0.9732529E-02 Eh
 * total energy  :  -260.4787509 Eh     change       -0.5001048E-02 Eh
 * total energy  :  -260.4806340 Eh     change       -0.1883176E-02 Eh
 * total energy  :  -260.4823515 Eh     change       -0.1717433E-02 Eh
 * total energy  :  -260.4833853 Eh     change       -0.1033860E-02 Eh
 * total energy  :  -260.4886725 Eh     change       -0.3904906E-04 Eh
 * total energy  :  -260.4887007 Eh     change       -0.2813945E-04 Eh
 * total energy  :  -260.4887299 Eh     change       -0.2924016E-04 Eh
 * total energy  :  -260.4887510 Eh     change       -0.2108435E-04 Eh
 * total energy  :  -260.4887668 Eh     change       -0.1585835E-04 Eh
 * total energy  :  -260.4887750 Eh     change       -0.8130989E-05 Eh
 * total energy  :  -260.4887805 Eh     change       -0.5578296E-05 Eh
 * total energy  :  -260.4887858 Eh     change       -0.5216556E-05 Eh
 * total energy  :  -260.4887893 Eh     change       -0.3559033E-05 Eh
   *** GEOMETRY OPTIMIZATION CONVERGED AFTER 58 ITERATIONS ***

 final structure:
================
132
 xtb: 6.5.1 (b24c23e)
Fe          13.44433585277937        0.05361837974994       -0.04644357879561
C           10.05486731480420        0.07988752193375       -0.19404929975007
C           10.70174377770398        1.29224402491492       -0.07813398153632
C           10.01618998373676        2.54692384954907       -0.00342065738179
C           10.96906918480287        3.50431232631444        0.08018648616780
C           12.23628935654322        2.83274742200662        0.04332610473041
N           12.05861327703147        1.47712193012129       -0.02656406960966
C           13.46137123502228        3.48970522813119        0.07627250818581
C           13.46898884847966        4.97289395980946        0.11492977476383
C           12.93795230893619        5.70335891851227       -0.94812804447898
C           12.94937167740811        7.09283491438407       -0.91289982688978
O           12.44471588915332        7.81302566014611       -1.94377456094684
C           13.48369888844510        7.75574206455583        0.19346538906531
O           13.47631079735281        9.12553468651877        0.20283256944410
C           14.00923799915940        7.02545540333110        1.25648123159368
O           14.51063223921215        7.74609561503461        2.30823944792038
C           14.00954647612649        5.63658212186462        1.21938243426155
C           14.67679883755928        2.82020686950872        0.06534802764292
C           15.94786893423511        3.48040691536629        0.03387728793581
C           16.89281211750539        2.50989032023970        0.03896186195163
N           14.84754732343755        1.45594588302650        0.07193932268295
C           16.19677614968335        1.26206924321961        0.06790981506181
C           16.85305529904419        0.02583671408302        0.11096750345140
C           16.17567439342254       -1.19954513898053        0.12662442331414
C           16.85098755562869       -2.45827620645081        0.17554787535614
C           15.89243027582040       -3.41396470205116        0.13471393399555
C           14.63302278958013       -2.73412469427643        0.06558413710895
N           14.82469153649529       -1.37214989635312        0.07016018408380
C           13.41417578379568       -3.38450001943434       -0.06117535434164
C           13.40157405133046       -4.86844473536543       -0.08839096606151
C           13.80442530028517       -5.59380465589445        1.03250743746221
C           13.78766761440677       -6.98357615941348        1.00507264304230
O           14.16810539761511       -7.69947807719881        2.09091732988551
C           13.37678675644962       -7.65152638299999       -0.14979282863063
O           13.37539846671835       -9.02151384888309       -0.14915031371035
C           12.97980557281224       -6.92602460515332       -1.27021472111433
O           12.59475129190349       -7.65091178061031       -2.36713993334303
C           12.98561827576476       -5.53695423967735       -1.24267657504295
C           12.20395223344471       -2.70896016897064       -0.17682190020725
C           10.93227779066754       -3.36349657113097       -0.28846573591288
C            9.99296990998766       -2.38987056660581       -0.33228319217433
C           10.69045733587639       -1.14357855209050       -0.23584301821188
N           12.04172418427003       -1.35021985926334       -0.14216368117704
H            8.97194189885738        0.08844171484104       -0.24775590325486
H            8.94363908808577        2.65914164809085       -0.01079611239999
H           10.83837645275826        4.57084714967011        0.16436494536068
H           12.53243062572679        5.19894489876591       -1.81562130345419
H           12.54455325754019        8.75658671658933       -1.73525264711084
H           13.87988005068866        9.42122818186779        1.03445967750906
H           14.84902438049706        7.15958917925243        2.99744568243094
H           14.40992881939466        5.07390613585502        2.05445324761574
H           16.08896267037920        4.54833566738222       -0.00133240444439
H           17.96570541862786        2.61392753774808        0.02076626588143
H           17.92104964970064       -2.57881912707793        0.22670269604015
H           16.01754840337290       -4.48432360557689        0.13589815088040
H           14.11395368820407       -5.08541512965630        1.93642078983465
H           14.08738437649065       -8.64380166256998        1.87756269682750
H           13.06822878422361       -9.32047030981957       -1.01991014622138
H           12.34170571950089       -7.06681895649959       -3.09399798432690
H           12.68693013775139       -4.97811387413881       -2.12173373543647
H           10.78791803735340       -4.43133751276740       -0.31609494780526
H            8.92188141017275       -2.48702648012307       -0.41212242674735
Fe          31.99353860973039       -0.05003625067389       -0.06022110997934
C           35.38316135809215       -0.05819784108660       -0.20458847839640
C           34.73667034986070       -1.27607434791963       -0.22721580901561
C           35.42304838834364       -2.53075150957501       -0.29406466799404
C           34.47082273288913       -3.49209973078275       -0.31792461501145
C           33.20313140797614       -2.82145458717957       -0.27944671131770
N           33.37991897163423       -1.46637261571288       -0.19637560727808
C           31.97849761231109       -3.47871125735628       -0.32181781717262
C           31.97112837007451       -4.95680418913457       -0.44934948412422
C           32.50748937028472       -5.56453901033611       -1.58452873559160
C           32.49552007993173       -6.94927861969452       -1.70458505883134
O           33.00559257353824       -7.55034602622795       -2.80666615527438
C           31.95481525340136       -7.73104756231125       -0.68212457656570
O           31.96151569644247       -9.09332372101958       -0.82572351826386
C           31.42350089820800       -7.12350198798746        0.45285371840719
O           30.91536760804679       -7.95649354925179        1.41447757803906
C           31.42428376314481       -5.73922352117455        0.57116441449109
C           30.76256522657868       -2.81269360522548       -0.26011349325223
C           29.49196281760036       -3.46546356984717       -0.36927495145892
C           28.54646926917864       -2.50191581915090       -0.25745139279086
N           30.59104526992700       -1.45798944288112       -0.10021245955045
C           29.24178465905069       -1.26521506833301       -0.08616561681322
C           28.58490053880076       -0.04175266670605        0.09445304403920
C           29.26166735977861        1.17419567643864        0.24900770341610
C           28.58545642352102        2.41923528718066        0.43672879439532
C           29.54360095866107        3.37360492923391        0.50734202844741
C           30.80364856285468        2.70609477957733        0.36687631806435
N           30.61290821872598        1.35226045762086        0.21709575561979
C           32.02247877019366        3.36725740372866        0.31966651010872
C           32.03415301779811        4.84443174477515        0.46286072119993
C           31.62362605349900        5.43606852886775        1.65719632840270
C           31.64028175929983        6.81969600484806        1.79027183315558
O           31.25267225798454        7.40581524707072        2.94894072473207
C           32.05873603828140        7.61606577546180        0.72281763798256
O           32.06001430940284        8.97680705515326        0.88147576083580
C           32.46312657379291        7.02431913928848       -0.47119097070940
O           32.85527590269835        7.87057838686905       -1.47468418027091
C           32.45742294668729        5.64133333616297       -0.60397972226622
C           33.23353301291808        2.70988801236043        0.13104812533302
C           34.50523633424029        3.37305880989478        0.09752582686549
C           35.44478936553990        2.41113432352618       -0.05760045408269
C           34.74745726494643        1.16195662059478       -0.10618712354485
N           33.39614599780064        1.35617167678318        0.00981863315611
H           36.46609167326466       -0.06047579315371       -0.25889635702293
H           36.49566630377929       -2.64067015155154       -0.31425567334754
H           34.60225896248134       -4.56126314765455       -0.35351116359993
H           32.91745082978721       -4.96693313981871       -2.38840712339309
H           32.90434497606086       -8.51120829940529       -2.70542503773991
H           31.55281564143943       -9.47950904449188       -0.03468882153532
H           30.57323581322935       -7.45020600961624        2.16289283271595
H           31.01968278100984       -5.27281477635667        1.46167712814104
H           29.35137642447150       -4.52256301764889       -0.52541244308061
H           27.47370757829372       -2.60363497756140       -0.29023061150465
H           27.51511740685619        2.53289296475671        0.49711356054912
H           29.41796817513660        4.43704570142429        0.62817439812707
H           31.30835012635785        4.82696992032553        2.49441650211106
H           31.33441293452669        8.36840695494073        2.84651335901219
H           32.37377966660023        9.37407027065776        0.05345672915117
H           33.11473371658408        7.37406508780800       -2.26184551384723
H           32.76189802394648        5.18747526343429       -1.53969460498417
H           34.64959263245559        4.43690046591714        0.19386721548551
H           36.51592647027480        2.51703818869243       -0.12461291405985
C           18.25324502103912        0.01477396604746        0.13369638898045
C           19.47971545840796        0.00511366563736        0.14661344551308
C           20.81894241494939       -0.00308048945754        0.15292853091634
C           22.05174279963564       -0.01062443157749        0.15462826818040
C           23.38617638337974       -0.01742161159066        0.15175075944521
C           24.61901018090526       -0.02450138519674        0.14440744137080
C           25.95822202644736       -0.03036915931498        0.13194469204788
C           27.18469647155453       -0.03434999504283        0.11739923428875

          :  Hamiltonian                  GFN1-xTB          :
         :: total energy            -260.488789324124 Eh    ::
         :: gradient norm              0.000502793622 Eh/a0 ::
         :: HOMO-LUMO gap              0.088361952132 eV    ::
         :: SCC energy              -264.095433715705 Eh    ::
         :: repulsion energy           3.721893913798 Eh    ::

    * Orbital Energies and Occupations

         #    Occupation            Energy/Eh            Energy/eV
      -------------------------------------------------------------
         1        2.0000           -0.8138242             -22.1453
       ...           ...                  ...                  ...
       215        2.0000           -0.4124633             -11.2237
       216        2.0000           -0.4122700             -11.2184
       217        2.0000           -0.4114675             -11.1966
       218        2.0000           -0.3980863             -10.8325
       219        2.0000           -0.3980207             -10.8307
       220        2.0000           -0.3948204             -10.7436
       221        1.9913           -0.3898873             -10.6094
       222        1.9911           -0.3898689             -10.6089
       223        1.9499           -0.3882031             -10.5635
       224        1.9491           -0.3881860             -10.5631
       225        1.9444           -0.3881006             -10.5608
       226        1.9437           -0.3880891             -10.5604
       227        1.6881           -0.3863280             -10.5125 (HOMO)
       228        0.3014           -0.3830808             -10.4242 (LUMO)
       229        0.2410           -0.3828352             -10.4175
       230                         -0.3414484              -9.2913
       231                         -0.3300832              -8.9820
       232                         -0.3286078              -8.9419
       233                         -0.3285214              -8.9395
       234                         -0.3069078              -8.3514
       235                         -0.3042353              -8.2787
       236                         -0.3034862              -8.2583
       237                         -0.3034323              -8.2568
       238                         -0.2942349              -8.0065
       ...                                ...                  ...
       462                          1.5977123              43.4760
      -------------------------------------------------------------
                  HL-Gap            0.0032472 Eh            0.0884 eV

Wiberg/Mayer (AO) data.
largest (>0.10) Wiberg bond orders for each atom

     #   Z sym  total        # sym  WBO       # sym  WBO       # sym  WBO
 ---------------------------------------------------------------------------
     1  26 Fe   3.131 --     7 N    0.668    43 N    0.665    28 N    0.661
                            21 N    0.658
     2   6 C    3.923 --     3 C    1.364    42 C    1.362    44 H    0.970
     3   6 C    3.925 --     2 C    1.364     7 N    1.210     4 C    1.173
     4   6 C    3.959 --     5 C    1.650     3 C    1.173    45 H    0.975
     5   6 C    3.962 --     4 C    1.650     6 C    1.175    46 H    0.973
     6   6 C    3.920 --     8 C    1.315     7 N    1.225     5 C    1.175
     7   7 N    3.381 --     6 C    1.225     3 C    1.210     1 Fe   0.668
     8   6 C    3.925 --    18 C    1.333     6 C    1.315     9 C    1.026
     9   6 C    3.988 --    10 C    1.398    17 C    1.386     8 C    1.026
    10   6 C    3.977 --     9 C    1.398    11 C    1.380    47 H    0.970
    11   6 C    3.917 --    10 C    1.380    13 C    1.323    12 O    1.053
    12   8 O    2.049 --    11 C    1.053    48 H    0.847
    13   6 C    3.903 --    15 C    1.340    11 C    1.323    14 O    1.022
    14   8 O    2.021 --    13 C    1.022    49 H    0.846
    15   6 C    3.905 --    17 C    1.384    13 C    1.340    16 O    1.014
    16   8 O    2.025 --    15 C    1.014    50 H    0.860
    17   6 C    3.973 --     9 C    1.386    15 C    1.384    51 H    0.969
    18   6 C    3.917 --     8 C    1.333    21 N    1.201    19 C    1.180
    19   6 C    3.957 --    20 C    1.637    18 C    1.180    52 H    0.973
    20   6 C    3.960 --    19 C    1.637    22 C    1.189    53 H    0.973
    21   7 N    3.379 --    22 C    1.247    18 C    1.201     1 Fe   0.658
    22   6 C    3.904 --    23 C    1.249    21 N    1.247    20 C    1.189
    23   6 C    3.923 --    24 C    1.249    22 C    1.249   125 C    1.206
    24   6 C    3.903 --    23 C    1.249    28 N    1.247    25 C    1.188
    25   6 C    3.960 --    26 C    1.639    24 C    1.188    54 H    0.973
    26   6 C    3.957 --    25 C    1.639    27 C    1.179    55 H    0.973
    27   6 C    3.916 --    29 C    1.336    28 N    1.200    26 C    1.179
    28   7 N    3.380 --    24 C    1.247    27 C    1.200     1 Fe   0.661
    29   6 C    3.925 --    27 C    1.336    39 C    1.313    30 C    1.024
    30   6 C    3.988 --    31 C    1.399    38 C    1.387    29 C    1.024
    31   6 C    3.977 --    30 C    1.399    32 C    1.379    56 H    0.970
    32   6 C    3.917 --    31 C    1.379    34 C    1.324    33 O    1.053
    33   8 O    2.049 --    32 C    1.053    57 H    0.847
    34   6 C    3.904 --    36 C    1.340    32 C    1.324    35 O    1.021
    35   8 O    2.021 --    34 C    1.021    58 H    0.846
    36   6 C    3.905 --    38 C    1.384    34 C    1.340    37 O    1.014
    37   8 O    2.025 --    36 C    1.014    59 H    0.860
    38   6 C    3.973 --    30 C    1.387    36 C    1.384    60 H    0.970
    39   6 C    3.920 --    29 C    1.313    43 N    1.226    40 C    1.176
    40   6 C    3.962 --    41 C    1.648    39 C    1.176    61 H    0.973
    41   6 C    3.959 --    40 C    1.648    42 C    1.174    62 H    0.975
    42   6 C    3.925 --     2 C    1.362    43 N    1.211    41 C    1.174
    43   7 N    3.380 --    39 C    1.226    42 C    1.211     1 Fe   0.665
    44   1 H    1.001 --     2 C    0.970
    45   1 H    0.997 --     4 C    0.975
    46   1 H    1.005 --     5 C    0.973
    47   1 H    0.999 --    10 C    0.970
    48   1 H    0.877 --    12 O    0.847
    49   1 H    0.876 --    14 O    0.846
    50   1 H    0.881 --    16 O    0.860
    51   1 H    1.000 --    17 C    0.969
    52   1 H    1.005 --    19 C    0.973
    53   1 H    1.002 --    20 C    0.973
    54   1 H    1.002 --    25 C    0.973
    55   1 H    1.005 --    26 C    0.973
    56   1 H    0.999 --    31 C    0.970
    57   1 H    0.877 --    33 O    0.847
    58   1 H    0.876 --    35 O    0.846
    59   1 H    0.881 --    37 O    0.860
    60   1 H    1.000 --    38 C    0.970
    61   1 H    1.006 --    40 C    0.973
    62   1 H    0.998 --    41 C    0.975
    63  26 Fe   3.138 --    69 N    0.668   105 N    0.665    90 N    0.661
                            83 N    0.659
    64   6 C    3.923 --    65 C    1.364   104 C    1.362   106 H    0.970
    65   6 C    3.925 --    64 C    1.364    69 N    1.210    66 C    1.173
    66   6 C    3.959 --    67 C    1.650    65 C    1.173   107 H    0.975
    67   6 C    3.962 --    66 C    1.650    68 C    1.175   108 H    0.973
    68   6 C    3.920 --    70 C    1.315    69 N    1.225    67 C    1.175
    69   7 N    3.381 --    68 C    1.225    65 C    1.210    63 Fe   0.668
    70   6 C    3.926 --    80 C    1.333    68 C    1.315    71 C    1.026
    71   6 C    3.988 --    72 C    1.398    79 C    1.386    70 C    1.026
    72   6 C    3.977 --    71 C    1.398    73 C    1.380   109 H    0.970
    73   6 C    3.917 --    72 C    1.380    75 C    1.323    74 O    1.053
    74   8 O    2.049 --    73 C    1.053   110 H    0.847
    75   6 C    3.903 --    77 C    1.340    73 C    1.323    76 O    1.022
    76   8 O    2.021 --    75 C    1.022   111 H    0.846
    77   6 C    3.905 --    79 C    1.384    75 C    1.340    78 O    1.014
    78   8 O    2.025 --    77 C    1.014   112 H    0.860
    79   6 C    3.973 --    71 C    1.386    77 C    1.384   113 H    0.969
    80   6 C    3.917 --    70 C    1.333    83 N    1.201    81 C    1.181
    81   6 C    3.957 --    82 C    1.637    80 C    1.181   114 H    0.973
    82   6 C    3.960 --    81 C    1.637    84 C    1.189   115 H    0.973
    83   7 N    3.379 --    84 C    1.247    80 C    1.201    63 Fe   0.659
    84   6 C    3.904 --    85 C    1.248    83 N    1.247    82 C    1.189
    85   6 C    3.924 --    86 C    1.250    84 C    1.248   132 C    1.206
    86   6 C    3.903 --    85 C    1.250    90 N    1.247    87 C    1.188
    87   6 C    3.960 --    88 C    1.639    86 C    1.188   116 H    0.973
    88   6 C    3.957 --    87 C    1.639    89 C    1.179   117 H    0.973
    89   6 C    3.916 --    91 C    1.336    90 N    1.200    88 C    1.179
    90   7 N    3.380 --    86 C    1.247    89 C    1.200    63 Fe   0.661
    91   6 C    3.926 --    89 C    1.336   101 C    1.313    92 C    1.024
    92   6 C    3.988 --    93 C    1.399   100 C    1.387    91 C    1.024
    93   6 C    3.977 --    92 C    1.399    94 C    1.379   118 H    0.970
    94   6 C    3.917 --    93 C    1.379    96 C    1.324    95 O    1.053
    95   8 O    2.049 --    94 C    1.053   119 H    0.847
    96   6 C    3.904 --    98 C    1.340    94 C    1.324    97 O    1.021
    97   8 O    2.021 --    96 C    1.021   120 H    0.846
    98   6 C    3.905 --   100 C    1.384    96 C    1.340    99 O    1.014
    99   8 O    2.025 --    98 C    1.014   121 H    0.860
   100   6 C    3.973 --    92 C    1.387    98 C    1.384   122 H    0.969
   101   6 C    3.920 --    91 C    1.313   105 N    1.226   102 C    1.176
   102   6 C    3.962 --   103 C    1.648   101 C    1.176   123 H    0.973
   103   6 C    3.959 --   102 C    1.648   104 C    1.174   124 H    0.975
   104   6 C    3.925 --    64 C    1.362   105 N    1.211   103 C    1.174
   105   7 N    3.380 --   101 C    1.226   104 C    1.211    63 Fe   0.665
   106   1 H    1.001 --    64 C    0.970
   107   1 H    0.997 --    66 C    0.975
   108   1 H    1.005 --    67 C    0.973
   109   1 H    0.999 --    72 C    0.970
   110   1 H    0.877 --    74 O    0.847
   111   1 H    0.876 --    76 O    0.846
   112   1 H    0.881 --    78 O    0.860
   113   1 H    1.000 --    79 C    0.969
   114   1 H    1.005 --    81 C    0.973
   115   1 H    1.002 --    82 C    0.973
   116   1 H    1.002 --    87 C    0.973
   117   1 H    1.005 --    88 C    0.973
   118   1 H    0.999 --    93 C    0.970
   119   1 H    0.877 --    95 O    0.847
   120   1 H    0.876 --    97 O    0.846
   121   1 H    0.881 --    99 O    0.860
   122   1 H    1.000 --   100 C    0.969
   123   1 H    1.006 --   102 C    0.973
   124   1 H    0.998 --   103 C    0.975
   125   6 C    3.865 --   126 C    2.411    23 C    1.206   128 C    0.182
   126   6 C    3.923 --   125 C    2.411   127 C    1.363
   127   6 C    3.881 --   128 C    2.306   126 C    1.363   130 C    0.178
   128   6 C    3.914 --   127 C    2.306   129 C    1.389   125 C    0.182
   129   6 C    3.914 --   130 C    2.306   128 C    1.389   132 C    0.182
   130   6 C    3.881 --   129 C    2.306   131 C    1.363   127 C    0.178
   131   6 C    3.923 --   132 C    2.411   130 C    1.363
   132   6 C    3.865 --   131 C    2.411    85 C    1.206   129 C    0.182
 ---------------------------------------------------------------------------

           -------------------------------------------------
          | TOTAL ENERGY             -260.488789324124 Eh   |
          | GRADIENT NORM               0.000502793622 Eh/α |
          | HOMO-LUMO GAP               0.088361952132 eV   |
           -------------------------------------------------

 * finished run on 2022/07/29 at 22:29:59.465
