   * xtb version 6.5.1 (b24c23e) compiled by 'conda@728c89f4b128' on 2022-07-12
          program call               : xtb Fe_Ph_C4_3.xyz --gfn 1 --opt -T 48

   ID    Z sym.   atoms
    1   26 Fe     1, 57, 121
    2    6 C      2-6, 8-11, 13-29, 32-37, 58-62, 64-67, 69-85, 88-93,
                  113-120, 122-126, 128-131, 133-149, 152-157
    3    7 N      7, 12, 30, 31, 63, 68, 86, 87, 127, 132, 150, 151
    4    1 H      38-56, 94-112, 158-175

          :  Hamiltonian                  GFN1-xTB          :
 * total energy  :  -296.3322198 Eh     change        0.9224948E-08 Eh
 * total energy  :  -296.6709237 Eh     change       -0.3387039E+00 Eh
 * total energy  :  -296.7937723 Eh     change       -0.1228486E+00 Eh
 * total energy  :  -296.8701558 Eh     change       -0.7638350E-01 Eh
 * total energy  :  -296.9373190 Eh     change       -0.6716319E-01 Eh
 * total energy  :  -296.9792248 Eh     change       -0.4190577E-01 Eh
 * total energy  :  -297.0033114 Eh     change       -0.2408662E-01 Eh
 * total energy  :  -297.0217588 Eh     change       -0.1844744E-01 Eh
 * total energy  :  -297.0327365 Eh     change       -0.1097773E-01 Eh
 * total energy  :  -297.0444709 Eh     change       -0.1173438E-01 Eh
 * total energy  :  -297.1276511 Eh     change       -0.1405591E-04 Eh
 * total energy  :  -297.1276686 Eh     change       -0.1754928E-04 Eh
 * total energy  :  -297.1276874 Eh     change       -0.1877073E-04 Eh
 * total energy  :  -297.1277061 Eh     change       -0.1869052E-04 Eh
 * total energy  :  -297.1277221 Eh     change       -0.1598441E-04 Eh
 * total energy  :  -297.1277356 Eh     change       -0.1355422E-04 Eh
 * total energy  :  -297.1277482 Eh     change       -0.1256565E-04 Eh
 * total energy  :  -297.1277607 Eh     change       -0.1253025E-04 Eh
 * total energy  :  -297.1277646 Eh     change       -0.3859270E-05 Eh
   *** GEOMETRY OPTIMIZATION CONVERGED AFTER 68 ITERATIONS ***

 final structure:
================
175
 xtb: 6.5.1 (b24c23e)
Fe          28.88289948736233       -0.01392536422963        0.00008952654323
C           25.49191666132216       -0.04157691204267        0.02136686146440
C           26.14306482549975       -1.24583325681293       -0.14833873810978
C           25.46300103466452       -2.49663503839837       -0.30009441716904
C           26.41944855200032       -3.45261446913100       -0.36066202444608
C           27.68321125151267       -2.78245133433260       -0.25315240823305
N           27.50060553381177       -1.43135736625449       -0.13506652230509
C           28.90589348426730       -3.44278272191989       -0.19288425417370
C           30.11645519676480       -2.77988328352558       -0.05784261078427
C           31.38634595701562       -3.44248607429222       -0.01481443878866
C           32.33095644785455       -2.47369655589127        0.04374740379545
N           30.28875599836505       -1.41583214055458       -0.02307461228263
C           31.63657918664004       -1.22420075037367        0.02627124162055
C           32.29423049685611        0.01223302141512       -0.00163612283484
C           31.61735934774705        1.23803122876828       -0.03574907069597
C           32.28975629549552        2.49744927120180       -0.10662262816461
C           31.32974611466070        3.45201173670046       -0.06111815117989
C           30.07421695210673        2.77032505646343        0.04940692973918
C           28.85385777400372        3.41621495049631        0.18156548216832
C           28.84021199831957        4.89687974112668        0.25885570471019
C           28.19727829086882        5.64998325475537       -0.72428809752488
C           28.19043163135665        7.03488176176628       -0.65281663221540
C           28.81832713636074        7.68277622218399        0.40232344741972
C           29.45678724435485        6.93993636480886        1.38611410898793
C           29.47150998566166        5.55508110706132        1.31500635070510
C           27.64213068326391        2.73581572620823        0.24616628111389
C           26.37333632366459        3.37951680818544        0.42866191880263
C           25.43132710615809        2.40844761351950        0.37919488059116
C           26.12660110733272        1.17323054289500        0.17769756270331
N           27.47971479137819        1.38262707107153        0.12408113834702
N           30.26756275767519        1.40890384217695        0.03219300268355
C           28.91456621307450       -4.92480619573842       -0.26651187405168
C           28.51637398464108       -5.57785876624806       -1.43308793844206
C           28.52941225673587       -6.96320615305943       -1.49844076307608
C           28.93354935303189       -7.71042014970476       -0.40045483550461
C           29.32807140033946       -7.06688020744066        0.76460969822221
C           29.32198523010627       -5.68171294313580        0.83231660656749
H           24.40777223680798       -0.05106176669643        0.03724647805095
H           24.39119796356863       -2.60903242617716       -0.34143351824520
H           26.29340484052805       -4.51890529439946       -0.45552729721104
H           31.52701869771183       -4.51068536097025       -0.04086163075848
H           33.40311130080114       -2.57956483779041        0.08341798996212
H           33.35812688905818        2.61934592176784       -0.18448439449702
H           31.45022477882516        4.52214827157223       -0.10421021852987
H           27.71652798103691        5.14539883201432       -1.55494227976083
H           27.69306939635246        7.61084160535012       -1.42531727201737
H           28.81014641940866        8.76543714120042        0.45783036336607
H           29.94605039363469        7.44125946889935        2.21386050387469
H           29.96103682844817        4.97539599010188        2.08964199485083
H           26.23513222198666        4.43769881765919        0.58045187024092
H           24.36068908879583        2.49980008358545        0.47127546483818
H           28.21084217199355       -4.99487992482676       -2.29474561538433
H           28.22309352142717       -7.46149355747992       -2.41153780762665
H           28.94102362527088       -8.79325134219757       -0.45264782502375
H           29.64214572031947       -7.64608260939234        1.62585587478496
H           29.62050242618840       -5.17968724749301        1.74585759210201
Fe          55.73002509197616        0.05457607363424        0.02741562989332
C           59.12107803538486        0.07467648088280        0.04122967658179
C           58.47181522934285        1.28623712011581       -0.07586423515953
C           59.15375369017168        2.54084187538007       -0.18052196662632
C           58.19888897313143        3.50010626763087       -0.20126424301834
C           56.93426257506709        2.82851106256995       -0.11494169068371
N           57.11471567917255        1.47348792864527       -0.05080705070878
C           55.71357511377676        3.48857025304714       -0.02131564625540
C           54.50240798801805        2.82352216346532        0.09654902553931
C           53.23439555504037        3.48623411140770        0.17688510235304
C           52.28776486064314        2.51781196247222        0.19685494168104
N           54.32708418085042        1.45961206650385        0.07291495861450
C           52.97905185776326        1.26890139935872        0.11911448027856
C           52.31884684480521        0.03639115546854        0.03484742416965
C           52.99301064461399       -1.18828214274523       -0.05241611666862
C           52.31720219671402       -2.44197595331838       -0.17477858483357
C           53.27496459661945       -3.39981611970312       -0.17485603092808
C           54.53269125696673       -2.72644592398913       -0.04105109906197
C           55.75238718650527       -3.38007588937676        0.05233008915948
C           55.76466323534480       -4.86287112057083        0.05285011370724
C           56.39632148427775       -5.56266776682927       -0.97596785859236
C           56.40206087693409       -6.94937263473130       -0.97908267660523
C           55.78457151484631       -7.65238188066617        0.04650814773137
C           55.15775711829080       -6.96284345413415        1.07554254220439
C           55.14386041204146       -5.57609481070366        1.07893881925433
C           56.96583352734975       -2.70578209738785        0.14319922103125
C           58.23382806551434       -3.36002642053184        0.29014127304623
C           59.17764033709037       -2.38945729485778        0.28531949436141
C           58.48436776506933       -1.14467259689544        0.14486271986591
N           57.13063330514905       -1.34870468940904        0.08528837684656
N           54.34257336357644       -1.36510266406896        0.00342957644280
C           55.70784635758554        4.97233968653262       -0.04363900450096
C           56.09515589528242        5.66204738821967       -1.19270131057507
C           56.08366049529350        7.04874420594676       -1.21357611877976
C           55.69213219679416        7.76078523900639       -0.08798992583646
C           55.30912599567401        7.08063954261079        1.05998816858470
C           55.31352951272684        5.69394125299762        1.08324523885488
H           60.20527740036672        0.08143498033556        0.05423490600461
H           60.22562754045226        2.65283419889255       -0.22107299397653
H           58.32640109267722        4.56908074295548       -0.25528266617916
H           53.09615663478415        4.55480910161650        0.20064514349413
H           51.21612356788030        2.62412444584477        0.24783302669169
H           51.24816579540980       -2.55793318930906       -0.25247736766199
H           53.15160813410910       -4.46686530320333       -0.26287541092581
H           56.86914872301142       -5.01445596250883       -1.78319864485194
H           56.89030291365578       -7.48339797233549       -1.78673141783526
H           55.79185665573254       -8.73646994241758        0.04376287493765
H           54.67688887591419       -7.50754489511808        1.88048867102359
H           54.66321378331416       -5.03850072832627        1.88868650301374
H           58.37008300570611       -4.42463329200898        0.38992946269592
H           60.24834683725911       -2.48717603124430        0.36974685916267
H           56.39095939763071        5.10647119117215       -2.07560275315291
H           56.38105689035924        7.57561759438213       -2.11347761898786
H           55.68551616583613        8.84473947275639       -0.10545914032986
H           55.00523212880392        7.63238986510150        1.94264661978481
H           55.02385809591178        5.16335516786702        1.98338214493774
C           34.91820635580157        0.03013128717836        0.00921294581217
C           33.69382628006722        0.02284773272609        0.00088316341242
C           36.26311304022619        0.03502484445429        0.01379235093521
C           37.48771572206689        0.03581468746264        0.02220905360047
C           48.34996444120092        0.01813623945801        0.01937615265109
C           47.12536504372010        0.01565873253202        0.01799354484113
C           49.69484401130047        0.02239664424435        0.02457875674404
C           50.91925337653779        0.02855147552701        0.02902966507453
Fe          42.30653546107233        0.02589279603997        0.02664441923490
C           38.88639481129044        0.03395561859792        0.02810824856075
C           39.55254231195363       -1.19709266512278        0.09831366153578
C           38.86843644355218       -2.44776497616137        0.19454078548119
C           39.82088746004315       -3.41167480669870        0.17614814276340
C           41.08117443122983       -2.74226516296848        0.06014300142329
N           40.90101737981163       -1.38047506230240        0.03987347382766
C           42.29835009693788       -3.40304625700105       -0.04010623464301
C           43.51894463755354       -2.74508945304473       -0.11393749348993
C           44.77583263986294       -3.41539234504431       -0.25813949910760
C           45.73276723716916       -2.45584415717680       -0.24217134732172
N           43.70559947787368       -1.38602439330013       -0.04066424450828
C           45.05477197541462       -1.20665868180614       -0.09635621042579
C           45.72668656496375        0.01765489687938        0.01954650623399
C           45.06087890255011        1.24504205146960        0.13964334035403
C           45.74551944582522        2.49057687337706        0.28516970155562
C           44.79324813286406        3.45453359477303        0.30932332494422
C           43.53241323750264        2.79076359551033        0.16902907674791
C           42.31475706253266        3.45504897623939        0.10059543923412
C           42.31874776680603        4.93789952107362        0.13113869306106
C           41.72753435322756        5.62375806930358        1.19253640391294
C           41.73671101952576        7.01021410154035        1.22098886295471
C           42.32705565284425        7.72583875207382        0.18820423511349
C           42.91321752554635        7.04961559532548       -0.87311836876853
C           42.91409515295959        5.66314741765720       -0.90141665449583
C           41.09389568047239        2.80026476630208        0.00337845198989
C           39.83654958544230        3.47551096473514       -0.11115215430247
C           38.87974383739390        2.51594682328062       -0.13193461088897
C           39.55813287756615        1.26205718425829       -0.03824292396229
N           40.90743056911009        1.43931962497239        0.02185053406506
N           43.71230296864353        1.43096370797047        0.09201724206840
C           42.29359820499699       -4.88613382388214       -0.07312926033031
C           41.70842707244758       -5.56494189901006       -1.14227024789248
C           41.70849304775052       -6.95133369047032       -1.17450106281319
C           42.28300150397583       -7.67359584469050       -0.13745865424217
C           42.86273724670775       -7.00420628169524        0.93163999936994
C           42.87342923523502       -5.61778119162573        0.96346573055367
H           37.79856929568772       -2.55864225436316        0.26713868672748
H           39.69204974291829       -4.47978257068178        0.23963496986612
H           44.89949997375309       -4.48091760033674       -0.36232142385890
H           46.80197562373783       -2.56867115720214       -0.32139636956684
H           46.81559661621719        2.59846148231257        0.35907264528220
H           44.92309435150948        4.51893630120187        0.41716814511028
H           41.27466242801876        5.06492430120982        2.00385656400063
H           41.28072839302540        7.53400866808468        2.05374747996294
H           42.33033632544485        8.80968514393139        0.21043215593803
H           43.37248330993241        7.60430822061088       -1.68377193945074
H           43.36377817031151        5.13530223361736       -1.73495976158811
H           39.71212001325457        4.54423335723764       -0.17286226128582
H           37.81036774385800        2.63177152501866       -0.20411847509094
H           41.26720229997149       -5.00066681555351       -1.95619553176639
H           41.25780203513814       -7.46976167560671       -2.01344140994611
H           42.27876171737810       -8.75738681386084       -0.16237215644889
H           43.30923064318019       -7.56425828394193        1.74571437003357
H           43.31874478647615       -5.09512556774357        1.80257743287851

          :  Hamiltonian                  GFN1-xTB          :
         :: total energy            -297.127764601919 Eh    ::
         :: gradient norm              0.000417007600 Eh/a0 ::
         :: HOMO-LUMO gap              0.048289557271 eV    ::
         :: SCC energy              -302.090174702381 Eh    ::
         :: repulsion energy           5.122736532185 Eh    ::

    * Orbital Energies and Occupations

         #    Occupation            Energy/Eh            Energy/eV
      -------------------------------------------------------------
         1        2.0000           -0.7718441             -21.0029
       ...           ...                  ...                  ...
       266        2.0000           -0.3966742             -10.7941
       267        2.0000           -0.3966732             -10.7940
       268        1.9997           -0.3909035             -10.6370
       269        1.9920           -0.3877460             -10.5511
       270        1.9918           -0.3877234             -10.5505
       271        1.9918           -0.3877199             -10.5504
       272        1.9713           -0.3865231             -10.5178
       273        1.9636           -0.3862936             -10.5116
       274        1.9572           -0.3861381             -10.5074
       275        1.9565           -0.3861219             -10.5069
       276        1.9545           -0.3860775             -10.5057
       277        1.9544           -0.3860759             -10.5057
       278        1.2029           -0.3828966             -10.4191 (HOMO)
       279        0.3780           -0.3811220             -10.3709 (LUMO)
       280        0.3432           -0.3810099             -10.3678
       281        0.3431           -0.3810097             -10.3678
       282                         -0.3450044              -9.3880
       283                         -0.3331463              -9.0654
       284                         -0.3301063              -8.9826
       285                         -0.3272443              -8.9048
       286                         -0.3272211              -8.9041
       287                         -0.3244550              -8.8289
       288                         -0.3043973              -8.2831
       289                         -0.3028643              -8.2414
       ...                                ...                  ...
       603                          1.5091206              41.0653
      -------------------------------------------------------------
                  HL-Gap            0.0017746 Eh            0.0483 eV

Wiberg/Mayer (AO) data.
largest (>0.10) Wiberg bond orders for each atom

     #   Z sym  total        # sym  WBO       # sym  WBO       # sym  WBO
 ---------------------------------------------------------------------------
     1  26 Fe   3.082 --    30 N    0.661     7 N    0.661    12 N    0.654
                            31 N    0.654
     2   6 C    3.915 --     3 C    1.363    29 C    1.363    38 H    0.970
     3   6 C    3.925 --     2 C    1.363     7 N    1.210     4 C    1.173
     4   6 C    3.959 --     5 C    1.649     3 C    1.173    39 H    0.975
     5   6 C    3.962 --     4 C    1.649     6 C    1.175    40 H    0.973
     6   6 C    3.920 --     8 C    1.312     7 N    1.227     5 C    1.175
     7   7 N    3.376 --     6 C    1.227     3 C    1.210     1 Fe   0.661
     8   6 C    3.919 --     9 C    1.338     6 C    1.312    32 C    1.022
     9   6 C    3.918 --     8 C    1.338    12 N    1.198    10 C    1.179
    10   6 C    3.957 --    11 C    1.639     9 C    1.179    41 H    0.973
    11   6 C    3.961 --    10 C    1.639    13 C    1.187    42 H    0.973
    12   7 N    3.375 --    13 C    1.251     9 C    1.198     1 Fe   0.654
    13   6 C    3.904 --    12 N    1.251    14 C    1.247    11 C    1.187
    14   6 C    3.914 --    13 C    1.247    15 C    1.247   114 C    1.208
    15   6 C    3.905 --    31 N    1.250    14 C    1.247    16 C    1.188
    16   6 C    3.960 --    17 C    1.638    15 C    1.188    43 H    0.973
    17   6 C    3.957 --    16 C    1.638    18 C    1.179    44 H    0.973
    18   6 C    3.918 --    19 C    1.337    31 N    1.199    17 C    1.179
    19   6 C    3.919 --    18 C    1.337    26 C    1.311    20 C    1.026
    20   6 C    3.988 --    21 C    1.395    25 C    1.395    19 C    1.026
                            23 C    0.108
    21   6 C    3.987 --    22 C    1.447    20 C    1.395    45 H    0.973
                            24 C    0.110
    22   6 C    3.995 --    21 C    1.447    23 C    1.438    46 H    0.973
                            25 C    0.110
    23   6 C    3.990 --    24 C    1.438    22 C    1.438    47 H    0.974
                            20 C    0.108
    24   6 C    3.995 --    25 C    1.447    23 C    1.438    48 H    0.973
                            21 C    0.110
    25   6 C    3.988 --    24 C    1.447    20 C    1.395    49 H    0.973
                            22 C    0.110
    26   6 C    3.920 --    19 C    1.311    30 N    1.227    27 C    1.176
    27   6 C    3.962 --    28 C    1.648    26 C    1.176    50 H    0.973
    28   6 C    3.959 --    27 C    1.648    29 C    1.174    51 H    0.975
    29   6 C    3.925 --     2 C    1.363    30 N    1.210    28 C    1.174
    30   7 N    3.376 --    26 C    1.227    29 C    1.210     1 Fe   0.661
    31   7 N    3.375 --    15 C    1.250    18 C    1.199     1 Fe   0.654
    32   6 C    3.988 --    33 C    1.397    37 C    1.396     8 C    1.022
                            35 C    0.108
    33   6 C    3.988 --    34 C    1.446    32 C    1.397    52 H    0.973
                            36 C    0.110
    34   6 C    3.995 --    33 C    1.446    35 C    1.438    53 H    0.973
                            37 C    0.110
    35   6 C    3.991 --    34 C    1.438    36 C    1.438    54 H    0.974
                            32 C    0.108
    36   6 C    3.995 --    37 C    1.447    35 C    1.438    55 H    0.973
                            33 C    0.110
    37   6 C    3.988 --    36 C    1.447    32 C    1.396    56 H    0.973
                            34 C    0.110
    38   1 H    1.001 --     2 C    0.970
    39   1 H    0.998 --     4 C    0.975
    40   1 H    1.005 --     5 C    0.973
    41   1 H    1.005 --    10 C    0.973
    42   1 H    1.002 --    11 C    0.973
    43   1 H    1.002 --    16 C    0.973
    44   1 H    1.005 --    17 C    0.973
    45   1 H    1.004 --    21 C    0.973
    46   1 H    1.002 --    22 C    0.973
    47   1 H    1.003 --    23 C    0.974
    48   1 H    1.003 --    24 C    0.973
    49   1 H    1.004 --    25 C    0.973
    50   1 H    1.005 --    27 C    0.973
    51   1 H    0.998 --    28 C    0.975
    52   1 H    1.004 --    33 C    0.973
    53   1 H    1.002 --    34 C    0.973
    54   1 H    1.003 --    35 C    0.974
    55   1 H    1.003 --    36 C    0.973
    56   1 H    1.004 --    37 C    0.973
    57  26 Fe   3.082 --    86 N    0.661    63 N    0.661    87 N    0.654
                            68 N    0.653
    58   6 C    3.915 --    85 C    1.363    59 C    1.363    94 H    0.970
    59   6 C    3.925 --    58 C    1.363    63 N    1.210    60 C    1.173
    60   6 C    3.959 --    61 C    1.649    59 C    1.173    95 H    0.975
    61   6 C    3.962 --    60 C    1.649    62 C    1.175    96 H    0.973
    62   6 C    3.920 --    64 C    1.312    63 N    1.227    61 C    1.175
    63   7 N    3.376 --    62 C    1.227    59 C    1.210    57 Fe   0.661
    64   6 C    3.919 --    65 C    1.338    62 C    1.312    88 C    1.022
    65   6 C    3.918 --    64 C    1.338    68 N    1.198    66 C    1.179
    66   6 C    3.957 --    67 C    1.639    65 C    1.179    97 H    0.973
    67   6 C    3.961 --    66 C    1.639    69 C    1.187    98 H    0.973
    68   7 N    3.375 --    69 C    1.251    65 C    1.198    57 Fe   0.653
    69   6 C    3.904 --    68 N    1.251    70 C    1.247    67 C    1.187
    70   6 C    3.914 --    69 C    1.247    71 C    1.247   120 C    1.208
    71   6 C    3.905 --    87 N    1.250    70 C    1.247    72 C    1.188
    72   6 C    3.960 --    73 C    1.638    71 C    1.188    99 H    0.973
    73   6 C    3.957 --    72 C    1.638    74 C    1.179   100 H    0.973
    74   6 C    3.918 --    75 C    1.337    87 N    1.199    73 C    1.179
    75   6 C    3.919 --    74 C    1.337    82 C    1.310    76 C    1.026
    76   6 C    3.988 --    81 C    1.395    77 C    1.395    75 C    1.026
                            79 C    0.108
    77   6 C    3.987 --    78 C    1.447    76 C    1.395   101 H    0.973
                            80 C    0.110
    78   6 C    3.995 --    77 C    1.447    79 C    1.438   102 H    0.973
                            81 C    0.110
    79   6 C    3.990 --    80 C    1.438    78 C    1.438   103 H    0.974
                            76 C    0.108
    80   6 C    3.995 --    81 C    1.447    79 C    1.438   104 H    0.973
                            77 C    0.110
    81   6 C    3.988 --    80 C    1.447    76 C    1.395   105 H    0.973
                            78 C    0.110
    82   6 C    3.920 --    75 C    1.310    86 N    1.227    83 C    1.176
    83   6 C    3.962 --    84 C    1.648    82 C    1.176   106 H    0.973
    84   6 C    3.959 --    83 C    1.648    85 C    1.174   107 H    0.975
    85   6 C    3.925 --    58 C    1.363    86 N    1.210    84 C    1.174
    86   7 N    3.376 --    82 C    1.227    85 C    1.210    57 Fe   0.661
    87   7 N    3.375 --    71 C    1.250    74 C    1.199    57 Fe   0.654
    88   6 C    3.988 --    89 C    1.397    93 C    1.397    64 C    1.022
                            91 C    0.108
    89   6 C    3.988 --    90 C    1.447    88 C    1.397   108 H    0.973
                            92 C    0.110
    90   6 C    3.995 --    89 C    1.447    91 C    1.438   109 H    0.973
                            93 C    0.110
    91   6 C    3.991 --    92 C    1.438    90 C    1.438   110 H    0.974
                            88 C    0.108
    92   6 C    3.995 --    93 C    1.446    91 C    1.438   111 H    0.973
                            89 C    0.110
    93   6 C    3.988 --    92 C    1.446    88 C    1.397   112 H    0.973
                            90 C    0.110
    94   1 H    1.001 --    58 C    0.970
    95   1 H    0.998 --    60 C    0.975
    96   1 H    1.005 --    61 C    0.973
    97   1 H    1.005 --    66 C    0.973
    98   1 H    1.002 --    67 C    0.973
    99   1 H    1.002 --    72 C    0.973
   100   1 H    1.005 --    73 C    0.973
   101   1 H    1.004 --    77 C    0.973
   102   1 H    1.002 --    78 C    0.973
   103   1 H    1.003 --    79 C    0.974
   104   1 H    1.003 --    80 C    0.973
   105   1 H    1.004 --    81 C    0.973
   106   1 H    1.005 --    83 C    0.973
   107   1 H    0.998 --    84 C    0.975
   108   1 H    1.004 --    89 C    0.973
   109   1 H    1.002 --    90 C    0.973
   110   1 H    1.003 --    91 C    0.974
   111   1 H    1.003 --    92 C    0.973
   112   1 H    1.004 --    93 C    0.973
   113   6 C    3.922 --   114 C    2.439   115 C    1.333
   114   6 C    3.910 --   113 C    2.439    14 C    1.208   116 C    0.195
   115   6 C    3.917 --   116 C    2.437   113 C    1.333
   116   6 C    3.913 --   115 C    2.437   122 C    1.213   114 C    0.195
   117   6 C    3.917 --   118 C    2.437   119 C    1.333
   118   6 C    3.913 --   117 C    2.437   134 C    1.213   120 C    0.195
   119   6 C    3.922 --   120 C    2.439   117 C    1.333
   120   6 C    3.910 --   119 C    2.439    70 C    1.208   118 C    0.195
   121  26 Fe   3.030 --   127 N    0.643   151 N    0.643   150 N    0.643
                           132 N    0.643
   122   6 C    3.899 --   149 C    1.243   123 C    1.243   116 C    1.213
   123   6 C    3.906 --   127 N    1.252   122 C    1.243   124 C    1.192
   124   6 C    3.959 --   125 C    1.633   123 C    1.192   158 H    0.973
   125   6 C    3.958 --   124 C    1.633   126 C    1.184   159 H    0.973
   126   6 C    3.915 --   128 C    1.324   127 N    1.205   125 C    1.184
   127   7 N    3.364 --   123 C    1.252   126 C    1.205   121 Fe   0.643
   128   6 C    3.910 --   126 C    1.324   129 C    1.324   152 C    1.024
   129   6 C    3.915 --   128 C    1.324   132 N    1.205   130 C    1.184
   130   6 C    3.958 --   131 C    1.633   129 C    1.184   160 H    0.973
   131   6 C    3.959 --   130 C    1.633   133 C    1.192   161 H    0.973
   132   7 N    3.364 --   133 C    1.252   129 C    1.205   121 Fe   0.643
   133   6 C    3.906 --   132 N    1.252   134 C    1.243   131 C    1.192
   134   6 C    3.899 --   133 C    1.243   135 C    1.243   118 C    1.213
   135   6 C    3.906 --   151 N    1.252   134 C    1.243   136 C    1.192
   136   6 C    3.959 --   137 C    1.633   135 C    1.192   162 H    0.973
   137   6 C    3.958 --   136 C    1.633   138 C    1.184   163 H    0.973
   138   6 C    3.915 --   139 C    1.323   151 N    1.205   137 C    1.184
   139   6 C    3.910 --   138 C    1.323   146 C    1.323   140 C    1.025
   140   6 C    3.988 --   141 C    1.395   145 C    1.395   139 C    1.025
                           143 C    0.108
   141   6 C    3.988 --   142 C    1.447   140 C    1.395   164 H    0.973
                           144 C    0.110
   142   6 C    3.995 --   141 C    1.447   143 C    1.438   165 H    0.973
                           145 C    0.110
   143   6 C    3.990 --   142 C    1.438   144 C    1.438   166 H    0.974
                           140 C    0.108
   144   6 C    3.995 --   145 C    1.447   143 C    1.438   167 H    0.973
                           141 C    0.110
   145   6 C    3.987 --   144 C    1.447   140 C    1.395   168 H    0.973
                           142 C    0.110
   146   6 C    3.915 --   139 C    1.323   150 N    1.205   147 C    1.184
   147   6 C    3.958 --   148 C    1.633   146 C    1.184   169 H    0.973
   148   6 C    3.959 --   147 C    1.633   149 C    1.192   170 H    0.973
   149   6 C    3.906 --   150 N    1.252   122 C    1.243   148 C    1.192
   150   7 N    3.364 --   149 C    1.252   146 C    1.205   121 Fe   0.643
   151   7 N    3.364 --   135 C    1.252   138 C    1.205   121 Fe   0.643
   152   6 C    3.988 --   157 C    1.396   153 C    1.396   128 C    1.024
                           155 C    0.108
   153   6 C    3.988 --   154 C    1.447   152 C    1.396   171 H    0.973
                           156 C    0.110
   154   6 C    3.995 --   153 C    1.447   155 C    1.438   172 H    0.973
                           157 C    0.110
   155   6 C    3.991 --   156 C    1.438   154 C    1.438   173 H    0.974
                           152 C    0.108
   156   6 C    3.995 --   157 C    1.447   155 C    1.438   174 H    0.973
                           153 C    0.110
   157   6 C    3.988 --   156 C    1.447   152 C    1.396   175 H    0.973
                           154 C    0.110
   158   1 H    1.002 --   124 C    0.973
   159   1 H    1.004 --   125 C    0.973
   160   1 H    1.004 --   130 C    0.973
   161   1 H    1.002 --   131 C    0.973
   162   1 H    1.002 --   136 C    0.973
   163   1 H    1.004 --   137 C    0.973
   164   1 H    1.004 --   141 C    0.973
   165   1 H    1.002 --   142 C    0.973
   166   1 H    1.003 --   143 C    0.974
   167   1 H    1.002 --   144 C    0.973
   168   1 H    1.004 --   145 C    0.973
   169   1 H    1.004 --   147 C    0.973
   170   1 H    1.002 --   148 C    0.973
   171   1 H    1.004 --   153 C    0.973
   172   1 H    1.002 --   154 C    0.973
   173   1 H    1.003 --   155 C    0.974
   174   1 H    1.002 --   156 C    0.973
   175   1 H    1.004 --   157 C    0.973
 ---------------------------------------------------------------------------

           -------------------------------------------------
          | TOTAL ENERGY             -297.127764601919 Eh   |
          | GRADIENT NORM               0.000417007600 Eh/α |
          | HOMO-LUMO GAP               0.048289557271 eV   |
           -------------------------------------------------

 * finished run on 2022/07/29 at 19:44:13.551
