   * xtb version 6.5.1 (b24c23e) compiled by 'conda@728c89f4b128' on 2022-07-12
          program call               : xtb Cu_H_C4_3.xyz --gfn 1 --opt -T 48

   ID    Z sym.   atoms
    1   29 Cu     1, 37, 81
    2    6 C      2-6, 8-11, 13-18, 20-24, 38-42, 44-47, 49-54, 56-60, 73-80,
                  82-86, 88-91, 93-98, 100-104
    3    7 N      7, 12, 19, 25, 43, 48, 55, 61, 87, 92, 99, 105
    4    1 H      26-36, 62-72, 106-115

          :  Hamiltonian                  GFN1-xTB          :
 * total energy  :  -210.3726067 Eh     change       -0.4452119E-08 Eh
 * total energy  :  -211.9328887 Eh     change       -0.1560282E+01 Eh
 * total energy  :  -212.1720961 Eh     change       -0.2392074E+00 Eh
 * total energy  :  -212.2987964 Eh     change       -0.1267003E+00 Eh
 * total energy  :  -212.3946894 Eh     change       -0.9589302E-01 Eh
 * total energy  :  -212.4772994 Eh     change       -0.8261004E-01 Eh
 * total energy  :  -212.5355303 Eh     change       -0.5823089E-01 Eh
 * total energy  :  -212.5627535 Eh     change       -0.2722313E-01 Eh
 * total energy  :  -212.5794126 Eh     change       -0.1665918E-01 Eh
 * total energy  :  -212.5864737 Eh     change       -0.7061022E-02 Eh
 * total energy  :  -212.6353194 Eh     change       -0.9113898E-04 Eh
 * total energy  :  -212.6353658 Eh     change       -0.4639711E-04 Eh
 * total energy  :  -212.6353969 Eh     change       -0.3105784E-04 Eh
 * total energy  :  -212.6354162 Eh     change       -0.1931776E-04 Eh
 * total energy  :  -212.6354327 Eh     change       -0.1650080E-04 Eh
 * total energy  :  -212.6354442 Eh     change       -0.1152468E-04 Eh
 * total energy  :  -212.6354516 Eh     change       -0.7346302E-05 Eh
 * total energy  :  -212.6354567 Eh     change       -0.5144757E-05 Eh
 * total energy  :  -212.6354599 Eh     change       -0.3196716E-05 Eh
   *** GEOMETRY OPTIMIZATION CONVERGED AFTER 41 ITERATIONS ***

 final structure:
================
115
 xtb: 6.5.1 (b24c23e)
Cu          16.12797790052825       -0.01693255244810       -0.02189251956878
C           12.70403134548285       -0.03662623341621       -0.04991932621586
C           13.34548324652898       -0.90583374827143       -0.92092343835280
C           12.68410454251628       -1.80446713406535       -1.82711371858984
C           13.65336480300149       -2.47517306090944       -2.49794611974822
C           14.91466646117125       -1.99225927499007       -2.00679802709156
N           14.69694337059296       -1.04157197000428       -1.05239487994200
C           16.15885830661041       -2.42931121841372       -2.43824406870239
C           17.39096147243198       -1.98349977603020       -1.98376849436822
C           18.66061054416012       -2.45987428134799       -2.45295946147292
C           19.61540124410796       -1.78029433543408       -1.76811038435128
N           17.59070385622320       -1.02659553363905       -1.02525765314526
C           18.93477200532036       -0.88559322825005       -0.87703028476041
C           19.57430147125980       -0.00009629947722        0.00913646452972
C           18.91063397468463        0.87883821591380        0.88378052258313
C           19.56617538567462        1.78024857077117        1.78674524468855
C           18.59246332324550        2.45042752435263        2.45404004386991
C           17.33622632320226        1.96198760807403        1.96160737043451
N           17.56267566896426        1.00694076717339        1.00726114507466
C           16.09180479020631        2.39687271960930        2.39261299074625
C           14.85986866474260        1.94707695122026        1.93959835262856
C           13.58525179075247        2.41838030759534        2.40709509632039
C           12.63482107118917        1.73498103367452        1.72228017012438
C           13.32113600213431        0.84074459097437        0.83041492980207
N           14.66865530663909        0.99144867390676        0.98444365265960
H           11.61901487443727       -0.04297274075960       -0.05875032059951
H           11.61380983517844       -1.89771647350558       -1.92534884412554
H           13.54117919479720       -3.23120028316349       -3.25933715432589
H           16.16966218596435       -3.19552471272960       -3.20670288893719
H           18.79064900894383       -3.21748676435324       -3.20970156330764
H           20.68721415454081       -1.86786547244829       -1.84977808010939
H           20.63545926166858        1.87796959498667        1.88790583047750
H           18.70117941237612        3.20895329854785        3.21323343094676
H           16.08136108894103        3.16439346838132        3.15976669521125
H           13.45190349095155        3.17625695850560        3.16321490378267
H           11.56206625990097        1.81728349482871        1.80167174652346
Cu          43.13691492284277        0.01138312379878       -0.01671983904054
C           46.56053354755554        0.04909119746789       -0.00398127773381
C           45.91798699279839        1.27767891134266       -0.06095052403060
C           46.57809444885723        2.55344002834349       -0.11513205687062
C           45.60791484711991        3.50026472116292       -0.15441450315899
C           44.34721336554079        2.81089432903278       -0.12424783638757
N           44.56632527905790        1.46509563479202       -0.06992480948848
C           43.10241071070678        3.42338933069310       -0.14235856902036
C           41.87106481625290        2.78579002120322       -0.11212416644441
C           40.60055475782065        3.45289359605519       -0.12949100560750
C           39.64681777914739        2.48787325286342       -0.09374061030486
N           41.67299620451473        1.43222673590724       -0.06506176241982
C           40.32873892381483        1.22623310691103       -0.05505731401743
C           39.69135690534714       -0.02636380040181       -0.02557822328457
C           40.35558930414267       -1.26477981743273        0.00584144500945
C           39.70124123744533       -2.54104937246130        0.04012553282702
C           40.67568514364442       -3.48494246585552        0.08115050138626
C           41.93135860671394       -2.79012845571666        0.07156345878201
N           41.70396112909206       -1.44125888147776        0.02304666551522
C           43.17624850998117       -3.40035026450358        0.11052487992911
C           44.40732192499524       -2.76050245194229        0.10115416142935
C           45.68258406322929       -3.42202094198727        0.14089274811950
C           46.63201948331362       -2.45415690487797        0.10820380337607
C           45.94451924177670       -1.19320036705259        0.04858152662580
N           44.59722851537432       -1.41022152357470        0.04768400356022
H           47.64553571245349        0.06089734494158       -0.00006740837452
H           47.64826574815678        2.68975356003348       -0.12129872213038
H           45.71908394002886        4.57242260723706       -0.19937834924115
H           43.09021629243770        4.50777958317543       -0.18331277723165
H           40.46951928510369        4.52299773174886       -0.16516495743989
H           38.57486302965139        2.60632486160334       -0.09456532198969
H           38.63213846421927       -2.68285840184477        0.03448588762007
H           40.56793370528150       -4.55767093985767        0.11588397645671
H           43.18778190173702       -4.48473244649009        0.15193701384027
H           45.81686776648123       -4.49146225312544        0.18736659069821
H           47.70485178938273       -2.56689821623882        0.12232564147808
C           22.20210557547196        0.01080268516195        0.02453329580808
C           20.98048611712017        0.00680920171286        0.01924885140476
C           23.55218350884839        0.01131047389137        0.02536853189308
C           24.77402857938487        0.00833942005773        0.02033021779009
C           35.71101706792262       -0.06039025766238       -0.02042688075932
C           34.48975692889201       -0.06435802203527       -0.01626798304701
C           37.06240482737284       -0.05380231520062       -0.02270613103053
C           38.28349731242503       -0.04093369364998       -0.02627542592722
Cu          29.63123454715231       -0.02931721664472        0.00331029988559
C           26.17970592650980       -0.00042243044650        0.01509346355864
C           26.84215082342524        0.92773021244637        0.83912277738860
C           26.18569537379796        1.88399597863902        1.68309313131278
C           27.15915262819162        2.59601890310557        2.30642922839955
C           28.41520510185011        2.07795649850920        1.84560103215173
N           28.18938919436373        1.06297673002823        0.95564053055947
C           29.66028881032780        2.54318567002607        2.24173112900520
C           30.89455802036258        2.07127104866088        1.82000798326532
C           32.16228435798247        2.58399802853740        2.25419190827025
C           33.11940124178051        1.85819316077767        1.62178043893049
N           31.09703172938945        1.04808450873786        0.93415880170549
C           32.44137399867937        0.89817701672936        0.79914350268789
C           33.08241629181517       -0.05765866713242       -0.00907773948706
C           32.42064288608741       -1.00427352880767       -0.81109184303296
C           33.07711888242869       -1.97599139526513       -1.63745182352087
C           32.10379975355680       -2.68632258474250       -2.26276238011430
C           30.84770167368221       -2.15191559871151       -1.82087517096762
N           31.07312870371140       -1.13211693332175       -0.93671174502891
C           29.60269797723390       -2.60136138665206       -2.23559552845352
C           28.36849506755341       -2.11380030806441       -1.83232149127833
C           27.10093600859910       -2.60915194634033       -2.28648000480397
C           26.14373158130805       -1.88123384049992       -1.65641673293085
C           26.82163578551706       -0.93796622526631       -0.81475834885802
N           28.16562574569368       -1.09590929421486       -0.94003380282941
H           25.11636468320405        1.98772224908240        1.77755227836457
H           27.04983872386649        3.40155669680745        3.01545027443780
H           29.66995000202497        3.36132058529267        2.95491658556710
H           32.28985416752439        3.39499921730967        2.95386784282243
H           34.19091723001156        1.95339705543888        1.69840765984267
H           34.14642200277105       -2.08913399311607       -1.72067559388597
H           32.21315113852848       -3.49996666764775       -2.96248372741527
H           29.59328366135330       -3.41920720942850       -2.94914228562215
H           26.97339409638765       -3.41150935843849       -2.99606575378183
H           25.07224833080745       -1.96604032599935       -1.74500753738660

          :  Hamiltonian                  GFN1-xTB          :
         :: total energy            -212.635459899398 Eh    ::
         :: gradient norm              0.000396406561 Eh/a0 ::
         :: HOMO-LUMO gap              0.000031895845 eV    ::
         :: SCC energy              -215.960838899276 Eh    ::
         :: repulsion energy           3.425204559184 Eh    ::

    * Orbital Energies and Occupations

         #    Occupation            Energy/Eh            Energy/eV
      -------------------------------------------------------------
         1        2.0000           -0.7641903             -20.7947
       ...           ...                  ...                  ...
       187        2.0000           -0.4080105             -11.1025
       188        2.0000           -0.4079646             -11.1013
       189        2.0000           -0.4075625             -11.0903
       190        2.0000           -0.4074841             -11.0882
       191        2.0000           -0.4070846             -11.0773
       192        2.0000           -0.3954909             -10.7619
       193        2.0000           -0.3954350             -10.7603
       194        2.0000           -0.3953339             -10.7576
       195        2.0000           -0.3951510             -10.7526
       196        2.0000           -0.3884313             -10.5698
       197        2.0000           -0.3796922             -10.3320
       198        1.0205           -0.3551703              -9.6647
       199        0.9900           -0.3551053              -9.6629 (HOMO)
       200        0.9895           -0.3551041              -9.6629 (LUMO)
       201        0.0000           -0.3405139              -9.2659
       202                         -0.3316000              -9.0233
       203                         -0.3275187              -8.9122
       204                         -0.3274652              -8.9108
       205                         -0.3269325              -8.8963
       206                         -0.3239795              -8.8159
       207                         -0.2996971              -8.1552
       208                         -0.2923029              -7.9540
       209                         -0.2886030              -7.8533
       210                         -0.2575631              -7.0086
       ...                                ...                  ...
       411                          1.5196459              41.3517
      -------------------------------------------------------------
                  HL-Gap            0.0000012 Eh            0.0000 eV

Wiberg/Mayer (AO) data.
largest (>0.10) Wiberg bond orders for each atom

     #   Z sym  total        # sym  WBO       # sym  WBO       # sym  WBO
 ---------------------------------------------------------------------------
     1  29 Cu   2.194 --    25 N    0.507     7 N    0.507    19 N    0.504
                            12 N    0.504
     2   6 C    3.934 --    24 C    1.362     3 C    1.362    26 H    0.972
     3   6 C    3.917 --     2 C    1.362     7 N    1.234     4 C    1.166
     4   6 C    3.955 --     5 C    1.662     3 C    1.166    27 H    0.976
     5   6 C    3.957 --     4 C    1.662     6 C    1.167    28 H    0.976
     6   6 C    3.914 --     8 C    1.360     7 N    1.233     5 C    1.167
     7   7 N    3.247 --     3 C    1.234     6 C    1.233     1 Cu   0.507
     8   6 C    3.940 --     9 C    1.367     6 C    1.360    29 H    0.971
     9   6 C    3.909 --     8 C    1.367    12 N    1.217    10 C    1.173
    10   6 C    3.953 --    11 C    1.649     9 C    1.173    30 H    0.976
    11   6 C    3.956 --    10 C    1.649    13 C    1.182    31 H    0.974
    12   7 N    3.252 --    13 C    1.261     9 C    1.217     1 Cu   0.504
    13   6 C    3.898 --    12 N    1.261    14 C    1.261    11 C    1.182
    14   6 C    3.944 --    15 C    1.261    13 C    1.261    74 C    1.186
    15   6 C    3.898 --    14 C    1.261    19 N    1.261    16 C    1.182
    16   6 C    3.956 --    17 C    1.649    15 C    1.182    32 H    0.974
    17   6 C    3.953 --    16 C    1.649    18 C    1.173    33 H    0.976
    18   6 C    3.909 --    20 C    1.367    19 N    1.217    17 C    1.173
    19   7 N    3.252 --    15 C    1.261    18 C    1.217     1 Cu   0.504
    20   6 C    3.940 --    18 C    1.367    21 C    1.360    34 H    0.971
    21   6 C    3.914 --    20 C    1.360    25 N    1.233    22 C    1.167
    22   6 C    3.957 --    23 C    1.662    21 C    1.167    35 H    0.976
    23   6 C    3.955 --    22 C    1.662    24 C    1.166    36 H    0.976
    24   6 C    3.917 --     2 C    1.362    25 N    1.234    23 C    1.166
    25   7 N    3.247 --    24 C    1.234    21 C    1.233     1 Cu   0.507
    26   1 H    1.001 --     2 C    0.972
    27   1 H    0.998 --     4 C    0.976
    28   1 H    0.998 --     5 C    0.976
    29   1 H    1.001 --     8 C    0.971
    30   1 H    0.998 --    10 C    0.976
    31   1 H    1.002 --    11 C    0.974
    32   1 H    1.002 --    16 C    0.974
    33   1 H    0.998 --    17 C    0.976
    34   1 H    1.001 --    20 C    0.971
    35   1 H    0.998 --    22 C    0.976
    36   1 H    0.998 --    23 C    0.976
    37  29 Cu   2.195 --    61 N    0.508    43 N    0.507    48 N    0.504
                            55 N    0.504
    38   6 C    3.936 --    60 C    1.362    39 C    1.362    62 H    0.972
    39   6 C    3.917 --    38 C    1.362    43 N    1.234    40 C    1.166
    40   6 C    3.955 --    41 C    1.662    39 C    1.166    63 H    0.976
    41   6 C    3.957 --    40 C    1.662    42 C    1.166    64 H    0.976
    42   6 C    3.915 --    44 C    1.361    43 N    1.233    41 C    1.166
    43   7 N    3.248 --    39 C    1.234    42 C    1.233    37 Cu   0.507
    44   6 C    3.941 --    45 C    1.367    42 C    1.361    65 H    0.971
    45   6 C    3.909 --    44 C    1.367    48 N    1.218    46 C    1.173
    46   6 C    3.954 --    47 C    1.650    45 C    1.173    66 H    0.976
    47   6 C    3.957 --    46 C    1.650    49 C    1.181    67 H    0.974
    48   7 N    3.252 --    49 C    1.259    45 C    1.218    37 Cu   0.504
    49   6 C    3.900 --    50 C    1.264    48 N    1.259    47 C    1.181
    50   6 C    3.945 --    51 C    1.265    49 C    1.264    80 C    1.178
    51   6 C    3.900 --    50 C    1.265    55 N    1.259    52 C    1.181
    52   6 C    3.957 --    53 C    1.650    51 C    1.181    68 H    0.974
    53   6 C    3.954 --    52 C    1.650    54 C    1.173    69 H    0.976
    54   6 C    3.909 --    56 C    1.367    55 N    1.218    53 C    1.173
    55   7 N    3.252 --    51 C    1.259    54 C    1.218    37 Cu   0.504
    56   6 C    3.941 --    54 C    1.367    57 C    1.361    70 H    0.971
    57   6 C    3.915 --    56 C    1.361    61 N    1.233    58 C    1.166
    58   6 C    3.957 --    59 C    1.662    57 C    1.166    71 H    0.976
    59   6 C    3.955 --    58 C    1.662    60 C    1.166    72 H    0.976
    60   6 C    3.917 --    38 C    1.362    61 N    1.234    59 C    1.166
    61   7 N    3.248 --    60 C    1.234    57 C    1.233    37 Cu   0.508
    62   1 H    1.001 --    38 C    0.972
    63   1 H    0.998 --    40 C    0.976
    64   1 H    0.998 --    41 C    0.976
    65   1 H    1.001 --    44 C    0.971
    66   1 H    0.998 --    46 C    0.976
    67   1 H    1.002 --    47 C    0.974
    68   1 H    1.002 --    52 C    0.974
    69   1 H    0.998 --    53 C    0.976
    70   1 H    1.001 --    56 C    0.971
    71   1 H    0.998 --    58 C    0.976
    72   1 H    0.998 --    59 C    0.976
    73   6 C    3.937 --    74 C    2.481    75 C    1.306
    74   6 C    3.926 --    73 C    2.481    14 C    1.186    76 C    0.200
    75   6 C    3.935 --    76 C    2.479    73 C    1.306
    76   6 C    3.927 --    75 C    2.479    82 C    1.188    74 C    0.200
    77   6 C    3.934 --    78 C    2.486    79 C    1.299
    78   6 C    3.924 --    77 C    2.486    94 C    1.180    80 C    0.198
    79   6 C    3.937 --    80 C    2.487    77 C    1.299
    80   6 C    3.923 --    79 C    2.487    50 C    1.178    78 C    0.198
    81  29 Cu   2.165 --   105 N    0.499    92 N    0.499    99 N    0.499
                            87 N    0.499
    82   6 C    3.934 --    83 C    1.259   104 C    1.258    76 C    1.188
    83   6 C    3.899 --    87 N    1.264    82 C    1.259    84 C    1.182
    84   6 C    3.955 --    85 C    1.648    83 C    1.182   106 H    0.974
    85   6 C    3.954 --    84 C    1.648    86 C    1.175   107 H    0.976
    86   6 C    3.908 --    88 C    1.365    87 N    1.217    85 C    1.175
    87   7 N    3.245 --    83 C    1.264    86 C    1.217    81 Cu   0.499
    88   6 C    3.936 --    86 C    1.365    89 C    1.364   108 H    0.971
    89   6 C    3.908 --    88 C    1.364    92 N    1.218    90 C    1.174
    90   6 C    3.955 --    91 C    1.648    89 C    1.174   109 H    0.976
    91   6 C    3.955 --    90 C    1.648    93 C    1.181   110 H    0.974
    92   7 N    3.245 --    93 C    1.262    89 C    1.218    81 Cu   0.499
    93   6 C    3.900 --    92 N    1.262    94 C    1.262    91 C    1.181
    94   6 C    3.933 --    95 C    1.262    93 C    1.262    78 C    1.180
    95   6 C    3.900 --    94 C    1.262    99 N    1.262    96 C    1.181
    96   6 C    3.955 --    97 C    1.648    95 C    1.181   111 H    0.974
    97   6 C    3.955 --    96 C    1.648    98 C    1.174   112 H    0.976
    98   6 C    3.908 --   100 C    1.364    99 N    1.219    97 C    1.174
    99   7 N    3.244 --    95 C    1.262    98 C    1.219    81 Cu   0.499
   100   6 C    3.936 --   101 C    1.365    98 C    1.364   113 H    0.971
   101   6 C    3.908 --   100 C    1.365   105 N    1.217   102 C    1.175
   102   6 C    3.954 --   103 C    1.648   101 C    1.175   114 H    0.976
   103   6 C    3.955 --   102 C    1.648   104 C    1.182   115 H    0.974
   104   6 C    3.899 --   105 N    1.264    82 C    1.258   103 C    1.182
   105   7 N    3.245 --   104 C    1.264   101 C    1.217    81 Cu   0.499
   106   1 H    1.002 --    84 C    0.974
   107   1 H    0.998 --    85 C    0.976
   108   1 H    1.002 --    88 C    0.971
   109   1 H    0.998 --    90 C    0.976
   110   1 H    1.002 --    91 C    0.974
   111   1 H    1.002 --    96 C    0.974
   112   1 H    0.998 --    97 C    0.976
   113   1 H    1.002 --   100 C    0.971
   114   1 H    0.998 --   102 C    0.976
   115   1 H    1.002 --   103 C    0.974
 ---------------------------------------------------------------------------

           -------------------------------------------------
          | TOTAL ENERGY             -212.635459899398 Eh   |
          | GRADIENT NORM               0.000396406561 Eh/α |
          | HOMO-LUMO GAP               0.000031895845 eV   |
           -------------------------------------------------

 * finished run on 2022/07/30 at 04:16:10.192
