   * xtb version 6.5.1 (b24c23e) compiled by 'conda@728c89f4b128' on 2022-07-12
          program call               : xtb Ni_m-CP_C6_3.xyz --gfn 1 --opt -T 48

   ID    Z sym.   atoms
    1   28 Ni     1, 63, 137
    2    6 C      2-6, 8-12, 15-20, 22-27, 29-35, 38-42, 64-68, 70-74, 77-82,
                  84-89, 91-97, 100-104, 125-136, 138-142, 144-148, 151-156,
                  158-163, 165-171, 174-178
    3    7 N      7, 21, 28, 43, 69, 83, 90, 105, 143, 157, 164, 179
    4    8 O      13, 14, 36, 37, 75, 76, 98, 99, 149, 150, 172, 173
    5    1 H      44-62, 106-124, 180-197
########################################################################
[WARNING] Please study the warnings concerning your input carefully
-1- prog_main_parseArguments: Unknown option '-T' provided
########################################################################

          :  Hamiltonian                  GFN1-xTB          :
 * total energy  :  -377.2672268 Eh     change       -0.1780728E-07 Eh
 * total energy  :  -377.5132255 Eh     change       -0.2459988E+00 Eh
 * total energy  :  -377.6692049 Eh     change       -0.1559794E+00 Eh
 * total energy  :  -377.7508361 Eh     change       -0.8163124E-01 Eh
 * total energy  :  -377.8120385 Eh     change       -0.6120239E-01 Eh
 * total energy  :  -377.8587009 Eh     change       -0.4666234E-01 Eh
 * total energy  :  -377.8996444 Eh     change       -0.4094349E-01 Eh
 * total energy  :  -377.9388834 Eh     change       -0.3923905E-01 Eh
 * total energy  :  -377.9682084 Eh     change       -0.2932498E-01 Eh
 * total energy  :  -377.9874498 Eh     change       -0.1924141E-01 Eh
 * total energy  :  -378.1164151 Eh     change       -0.9349383E-05 Eh
 * total energy  :  -378.1164211 Eh     change       -0.5936585E-05 Eh
 * total energy  :  -378.1164273 Eh     change       -0.6246200E-05 Eh
 * total energy  :  -378.1164343 Eh     change       -0.7011725E-05 Eh
 * total energy  :  -378.1164424 Eh     change       -0.8121364E-05 Eh
 * total energy  :  -378.1164528 Eh     change       -0.1038589E-04 Eh
 * total energy  :  -378.1164652 Eh     change       -0.1234378E-04 Eh
 * total energy  :  -378.1164765 Eh     change       -0.1135726E-04 Eh
 * total energy  :  -378.1164797 Eh     change       -0.3174586E-05 Eh
   *** GEOMETRY OPTIMIZATION CONVERGED AFTER 122 ITERATIONS ***

 final structure:
================
197
 xtb: 6.5.1 (b24c23e)
Ni          29.14898730346410        0.07474787743807       -0.26131535658280
C           25.76197922909490        0.08842107725487       -0.11824196580295
C           26.41544305697431        1.30315025658778       -0.13547351156422
C           25.74372417234733        2.56687279139533       -0.13749660691070
C           26.70349327704157        3.51705961493725       -0.04929907450412
C           27.96097540892778        2.83151840979013        0.02431885714396
N           27.77587376463374        1.47542507984058       -0.07601823945710
C           29.18038302483869        3.46095732414581        0.24020047010686
C           29.19919488554615        4.92907272486209        0.44402799897656
C           28.50339057301840        5.50785402062044        1.50157421548956
C           28.52243761168993        6.88947456111108        1.68855148012089
C           27.75777644114786        7.44683209937750        2.83273786625114
O           27.84837397583009        8.78035225329012        2.93886567363997
O           27.11159974261794        6.78592891608860        3.60481576346543
C           29.24095293662825        7.70391778796754        0.81348606462136
C           29.93424189523848        7.13002428365068       -0.24065191545892
C           29.91601769270684        5.75490225773724       -0.42552719906334
C           30.38447722342073        2.76935541549461        0.27703766274368
C           31.64641513354151        3.37712422585189        0.57283911561091
C           32.59031831068481        2.41902772949714        0.40843073940383
N           30.55124149292775        1.43550612808966       -0.01825695864701
C           31.90289092631735        1.22876365995782        0.02098339345624
C           32.55769716571460        0.05428371952709       -0.36157281385531
C           31.86894546408787       -1.11089041407372       -0.71077974567769
C           32.51808792623108       -2.30375680176011       -1.15254402296871
C           31.55308442135568       -3.24589819560490       -1.28340469390341
C           30.31776001815528       -2.62705264002489       -0.90853624812862
N           30.51898931203516       -1.30062632247481       -0.60030692994106
C           29.10927842033158       -3.30379859531780       -0.81015485054692
C           29.08738666862225       -4.76537932209440       -1.05923966189878
C           29.82925490175133       -5.63465052894162       -0.25665164087628
C           29.80404201828285       -7.00328691003080       -0.48666665859810
C           29.04202177315701       -7.52011204675425       -1.52105908168137
C           28.29743621874561       -6.66117780223867       -2.33092017610924
C           27.49354932081454       -7.25300523544319       -3.42975158781455
O           26.79869910172551       -6.34776920381814       -4.13408203420410
O           27.45107541844699       -8.42972515808276       -3.68268412291401
C           28.32000223631801       -5.28766173420400       -2.09819501770646
C           27.91704802233658       -2.66707395611601       -0.48881126424650
C           26.66426048335298       -3.34471066486635       -0.32285920593116
C           25.72484373210686       -2.38977355426270       -0.12844549836496
C           26.40496220539627       -1.13114920621426       -0.16592532061624
N           27.75349947173725       -1.31210521447337       -0.34744878013928
H           24.67935833561913        0.09247173407955       -0.07028390120312
H           24.67431901052453        2.69023494232388       -0.19979491455616
H           26.58342185716108        4.58805552599428       -0.03433759277118
H           27.95114940901793        4.88941510974512        2.20069528489845
H           27.32537673365552        9.06490925698452        3.70594745581713
H           29.25340376314167        8.77716996326489        0.95965976820659
H           30.49243810257580        7.75722891592263       -0.92648288378004
H           30.44980146546549        5.31366852553930       -1.25983298727031
H           31.78250657139185        4.40305474794137        0.87368330889862
H           33.65838571601984        2.49708841543033        0.53191383598564
H           33.57699476610694       -2.39335731983897       -1.33379663260911
H           31.65801489770646       -4.26856554808691       -1.60699936376000
H           30.41646162397832       -5.23309225734291        0.56159729631732
H           30.38111623622591       -7.66662921965357        0.14740631505103
H           29.01150321923657       -8.58639664943757       -1.71465194574816
H           26.30364124366604       -6.81164047289795       -4.82875385285439
H           27.75111511513796       -4.62133498303120       -2.73577970736011
H           26.53426610326599       -4.41437666874420       -0.35031377462569
H           24.66398400802859       -2.50676422740292        0.02538517723290
Ni          61.05288866117556        0.13774449660573       -0.16225107935173
C           64.44355450688256        0.09901084704594       -0.20506852383007
C           63.77757056389391       -1.05101445052643       -0.57456035759422
C           64.43683493952692       -2.24409066179510       -1.01083402642852
C           63.47253784489721       -3.17585580233449       -1.19383614621033
C           62.22568657350327       -2.55539896051401       -0.85198022794802
N           62.41937971060606       -1.23929302908039       -0.51441447575007
C           61.00985944227227       -3.22526923473179       -0.80915814921464
C           60.98555790172541       -4.67901776096278       -1.09989781029451
C           61.69776865797959       -5.57224769175426       -0.30496088829737
C           61.67080202319714       -6.93909679828280       -0.57913541022486
C           62.44753051409631       -7.84113844512459        0.30822243638820
O           62.35235664577171       -9.13567867344218       -0.02774604528532
O           63.11092990421393       -7.46961472904614        1.24217311168164
C           60.93025958153525       -7.42145301836900       -1.65812719402132
C           60.22172354723792       -6.53349483903596       -2.45231770638343
C           60.24586778710239       -5.17363842971156       -2.17677877242267
C           59.81412756495835       -2.59047931448135       -0.49961393261730
C           58.55914220224718       -3.26840556524124       -0.37806959049829
C           57.61813316355637       -2.31536863020702       -0.17326396114463
N           59.64826206476920       -1.23577514327899       -0.32245466264523
C           58.30116254653759       -1.06131721437034       -0.16198384353581
C           57.64252964512016        0.16933215263267       -0.08999002143281
C           58.32592249073600        1.38770408333127       -0.04406536951902
C           57.66665687010433        2.65411038875432       -0.01252995083246
C           58.63334664804396        3.59190172940122        0.13432661008795
C           59.88060955302557        2.89252506624556        0.20246507267678
N           59.68185285862015        1.53883950414482        0.05145133610898
C           61.10138861780064        3.50873967857666        0.44333280858960
C           61.12176298123549        4.96902196722175        0.70083963127354
C           60.44378497999060        5.50413604997441        1.79830319560709
C           60.46256256340492        6.87022270443285        2.04307944999064
C           61.15485496022814        7.71828577855800        1.19502851209565
C           61.83562863882667        7.19544830833698        0.09450362521476
C           62.56579666021357        8.13737130880264       -0.79075063650183
O           63.20160211164868        7.53599093813207       -1.80676610699571
O           62.60035929537318        9.33061109561260       -0.63137982525363
C           61.81922552691992        5.82377643145304       -0.14990620377885
C           62.30384289942903        2.81349158073774        0.45369110522171
C           63.57309011664848        3.41117155504855        0.75021697670596
C           64.51020375224449        2.45176771614852        0.56791673670018
C           63.81287210990283        1.26710440905801        0.16981921801958
N           62.45844615707804        1.48736787460141        0.13641262094732
H           65.52712562375342        0.08589214446643       -0.21543214487351
H           65.50164650298491       -2.33626692238638       -1.15367569053710
H           63.58231777418674       -4.19423743791131       -1.52934232961093
H           62.26809752885912       -5.21666782137869        0.54618251349888
H           62.88571005499485       -9.65570958240912        0.59517692042365
H           60.91201835092368       -8.48349779569383       -1.87061207736475
H           59.64627955369185       -6.90121398030952       -3.29434383186828
H           59.69838616836617       -4.48319374021577       -2.80863078862426
H           58.42610460932355       -4.33633675990876       -0.43630725934202
H           56.55493503457214       -2.43483470364952       -0.04104406632816
H           56.60047335079901        2.79178018816581       -0.09245946080552
H           58.52185248294316        4.66253401198869        0.18738095525727
H           59.91138421942662        4.84018417463735        2.47010933251473
H           59.93501958878888        7.27096238452883        2.90108883417129
H           61.17926685197596        8.78775027008569        1.37112601953338
H           63.65078373342622        8.21606571714678       -2.33461239587956
H           62.33723443312218        5.42162612150286       -1.01249952581825
H           63.71491053635769        4.43369298989045        1.06026349546150
H           65.57990240188059        2.52078147890315        0.68512090861175
C           37.75346744885841        0.11774203827124       -0.57516067077852
C           36.52726108461436        0.08585264961815       -0.51637645031192
C           35.18408393333416        0.06325063628948       -0.45484814824956
C           33.96160120974148        0.05170603986064       -0.40839206463518
C           39.09461640230270        0.16812250198005       -0.65766004476448
C           40.31341697733954        0.22915924326675       -0.74741927962459
C           53.67161421434945        0.22239935683829       -0.15691236616653
C           52.44593635931215        0.24856301224973       -0.22690355943126
C           51.10667170459946        0.28028411890087       -0.34026575017504
C           49.89136574410997        0.31363384299171       -0.47770842084292
C           55.01501331731489        0.20039672792963       -0.10525639879587
C           56.23807495416705        0.18379984473200       -0.08537855739040
Ni          45.11173449930234        0.42440908297065       -1.00108898155206
C           41.71120754689409        0.30268791654490       -0.85520683208778
C           42.38975859475153       -0.72161781387819       -1.52481165780485
C           41.72946314057430       -1.77618321777266       -2.22534491702713
C           42.70011731832743       -2.56839223711312       -2.74224170781160
C           43.95124807306642       -2.01912786002698       -2.31605001300096
N           43.74687465751306       -0.85610811224395       -1.60684529410107
C           45.17897730436793       -2.64275614042723       -2.49120049681996
C           45.23709487747345       -3.93846395345305       -3.20955389328358
C           44.55540312615050       -5.05469857804731       -2.73437283483469
C           44.62704293947850       -6.26882072112737       -3.41657522184283
C           43.88282313380650       -7.42556025060311       -2.85714089359016
O           44.04299874643397       -8.55588273378278       -3.56017271028380
O           43.19485510763036       -7.37771923317327       -1.86995103028961
C           45.38129916408847       -6.37157028092652       -4.58517972622700
C           46.06193705934026       -5.26115231544964       -5.05952994770991
C           45.99526349049824       -4.05485743028811       -4.37723301152648
C           46.36228861666758       -2.12910930157841       -1.97363672276897
C           47.60133181323883       -2.84427166892690       -1.95244853890442
C           48.51646138059404       -2.02525023874484       -1.37870612069376
N           46.51463244981317       -0.88740653067983       -1.40358675184804
C           47.83991139074921       -0.80496609588574       -1.07461201566644
C           48.49955262037915        0.35434176864252       -0.65483974368429
C           47.83513203907923        1.57537108044516       -0.49544719631332
C           48.50853989840450        2.81517582246380       -0.27768213260568
C           47.54852343386218        3.76562823227229       -0.16666908636784
C           46.28893541400572        3.09424538771513       -0.27325714635159
N           46.48085564030308        1.75356163508584       -0.52322979431341
C           45.06028945440249        3.69518884077257       -0.03415561276761
C           45.02371487738734        5.13483787612164        0.31917329828515
C           44.32905214373331        6.03715573522178       -0.48924963572781
C           44.29826890113520        7.38866982554796       -0.17486633631908
C           44.95479866854952        7.85462049943757        0.95194905128349
C           45.64470564749533        6.96108892819844        1.77256848902411
C           46.33300983272579        7.49908902631103        2.97325802149332
O           46.97553203602773        6.56395662384824        3.68743751148968
O           46.32988130027459        8.65980531443486        3.29417724871578
C           45.67804912339589        5.60462578001063        1.45582099167334
C           43.86251638074993        2.99082080411297       -0.05857049314440
C           42.61035027121832        3.52850996154722        0.37717395637092
C           41.68366375707885        2.55475408736010        0.20190635640736
C           42.36759709684877        1.43493186907459       -0.36175879725832
N           43.70546143559567        1.69258101383201       -0.48422469985557
H           40.65988145807005       -1.87536514380580       -2.31607067832733
H           42.58660489086730       -3.45172170205459       -3.34897626744796
H           43.97735271981422       -4.99874242718946       -1.81849670493474
H           43.52882486455728       -9.26037189695795       -3.13326582366055
H           45.43301108328090       -7.31506289090920       -5.11483951801667
H           46.64984035943449       -5.33367757565099       -5.96750566758921
H           46.52475950785095       -3.18765680904677       -4.75578145055794
H           47.73904530044781       -3.85010266450228       -2.31441738698466
H           49.56146994980078       -2.21012566069594       -1.18930583726277
H           49.57940320209850        2.93129146375512       -0.23434878068542
H           47.67480368345586        4.82552118880035       -0.01830340579701
H           43.82322975182937        5.67459130108900       -1.37714427466667
H           43.76086193420873        8.07865347678690       -0.81533095309861
H           44.94256661483114        8.90723767452159        1.21123953191898
H           47.39556684451109        6.99284405011837        4.45068329154591
H           46.20082618613780        4.91099832816595        2.10360370556753
H           42.47175699806949        4.51815001806792        0.78109331284166
H           40.62707075557397        2.58400635059219        0.41373774729385

          :  Hamiltonian                  GFN1-xTB          :
         :: total energy            -378.116479704578 Eh    ::
         :: gradient norm              0.000942764635 Eh/a0 ::
         :: HOMO-LUMO gap              1.037128732003 eV    ::
         :: SCC energy              -383.729725703877 Eh    ::
         :: repulsion energy           5.790307099222 Eh    ::

    * Orbital Energies and Occupations

         #    Occupation            Energy/Eh            Energy/eV
      -------------------------------------------------------------
         1        2.0000           -0.8356261             -22.7385
       ...           ...                  ...                  ...
       325        2.0000           -0.4052630             -11.0278
       326        2.0000           -0.4048804             -11.0174
       327        2.0000           -0.4047657             -11.0142
       328        2.0000           -0.4046337             -11.0106
       329        2.0000           -0.4045608             -11.0087
       330        2.0000           -0.4039871             -10.9930
       331        2.0000           -0.4034774             -10.9792
       332        2.0000           -0.4033906             -10.9768
       333        2.0000           -0.4028949             -10.9633
       334        2.0000           -0.4028006             -10.9608
       335        2.0000           -0.4027868             -10.9604
       336        2.0000           -0.3965657             -10.7911
       337        2.0000           -0.3892623             -10.5924 (HOMO)
       338                         -0.3511485              -9.5552 (LUMO)
       339                         -0.3419435              -9.3048
       340                         -0.3389311              -9.2228
       341                         -0.3377065              -9.1895
       342                         -0.3372350              -9.1766
       343                         -0.3355449              -9.1306
       344                         -0.3352388              -9.1223
       345                         -0.3348259              -9.1111
       346                         -0.3343844              -9.0991
       347                         -0.3159326              -8.5970
       348                         -0.3139005              -8.5417
       ...                                ...                  ...
       691                          1.5731797              42.8084
      -------------------------------------------------------------
                  HL-Gap            0.0381138 Eh            1.0371 eV

Wiberg/Mayer (AO) data.
largest (>0.10) Wiberg bond orders for each atom

     #   Z sym  total        # sym  WBO       # sym  WBO       # sym  WBO
 ---------------------------------------------------------------------------
     1  28 Ni   3.017 --     7 N    0.665    43 N    0.665    21 N    0.661
                            28 N    0.660
     2   6 C    3.935 --     3 C    1.364    42 C    1.364    44 H    0.970
     3   6 C    3.922 --     2 C    1.364     7 N    1.212     4 C    1.174
     4   6 C    3.960 --     5 C    1.650     3 C    1.174    45 H    0.975
     5   6 C    3.963 --     4 C    1.650     6 C    1.175    46 H    0.972
     6   6 C    3.920 --     8 C    1.323     7 N    1.221     5 C    1.175
     7   7 N    3.402 --     6 C    1.221     3 C    1.212     1 Ni   0.665
     8   6 C    3.938 --    18 C    1.326     6 C    1.323     9 C    1.028
     9   6 C    3.988 --    10 C    1.408    17 C    1.387     8 C    1.028
                            15 C    0.102
    10   6 C    3.984 --     9 C    1.408    11 C    1.396    47 H    0.968
                            16 C    0.104
    11   6 C    3.988 --    10 C    1.396    15 C    1.391    12 C    1.004
    12   6 C    3.836 --    14 O    1.693    13 O    1.090    11 C    1.004
    13   8 O    2.099 --    12 C    1.090    48 H    0.838    14 O    0.129
    14   8 O    1.962 --    12 C    1.693    13 O    0.129
    15   6 C    3.987 --    16 C    1.448    11 C    1.391    49 H    0.970
                             9 C    0.102
    16   6 C    3.994 --    15 C    1.448    17 C    1.442    50 H    0.972
                            10 C    0.104
    17   6 C    3.987 --    16 C    1.442     9 C    1.387    51 H    0.972
    18   6 C    3.915 --     8 C    1.326    21 N    1.207    19 C    1.184
    19   6 C    3.959 --    20 C    1.635    18 C    1.184    52 H    0.973
    20   6 C    3.961 --    19 C    1.635    22 C    1.192    53 H    0.973
    21   7 N    3.405 --    22 C    1.237    18 C    1.207     1 Ni   0.661
    22   6 C    3.903 --    23 C    1.262    21 N    1.237    20 C    1.192
    23   6 C    3.944 --    24 C    1.263    22 C    1.262   128 C    1.185
    24   6 C    3.903 --    23 C    1.263    28 N    1.238    25 C    1.192
    25   6 C    3.961 --    26 C    1.635    24 C    1.192    54 H    0.973
    26   6 C    3.959 --    25 C    1.635    27 C    1.184    55 H    0.973
    27   6 C    3.916 --    29 C    1.328    28 N    1.206    26 C    1.184
    28   7 N    3.405 --    24 C    1.238    27 C    1.206     1 Ni   0.660
    29   6 C    3.938 --    27 C    1.328    39 C    1.322    30 C    1.026
    30   6 C    3.988 --    38 C    1.406    31 C    1.389    29 C    1.026
                            33 C    0.102
    31   6 C    3.987 --    32 C    1.439    30 C    1.389    56 H    0.972
                            34 C    0.100
    32   6 C    3.994 --    33 C    1.451    31 C    1.439    57 H    0.972
                            38 C    0.104
    33   6 C    3.986 --    32 C    1.451    34 C    1.388    58 H    0.969
                            30 C    0.102
    34   6 C    3.988 --    38 C    1.400    33 C    1.388    35 C    1.005
                            31 C    0.100
    35   6 C    3.836 --    37 O    1.693    36 O    1.090    34 C    1.005
    36   8 O    2.099 --    35 C    1.090    59 H    0.838    37 O    0.129
    37   8 O    1.961 --    35 C    1.693    36 O    0.129
    38   6 C    3.985 --    30 C    1.406    34 C    1.400    60 H    0.969
                            32 C    0.104
    39   6 C    3.920 --    29 C    1.322    43 N    1.222    40 C    1.176
    40   6 C    3.963 --    41 C    1.650    39 C    1.176    61 H    0.973
    41   6 C    3.960 --    40 C    1.650    42 C    1.175    62 H    0.975
    42   6 C    3.922 --     2 C    1.364    43 N    1.212    41 C    1.175
    43   7 N    3.402 --    39 C    1.222    42 C    1.212     1 Ni   0.665
    44   1 H    1.000 --     2 C    0.970
    45   1 H    0.997 --     4 C    0.975
    46   1 H    1.003 --     5 C    0.972
    47   1 H    1.007 --    10 C    0.968
    48   1 H    0.873 --    13 O    0.838
    49   1 H    1.005 --    15 C    0.970
    50   1 H    1.002 --    16 C    0.972
    51   1 H    1.005 --    17 C    0.972
    52   1 H    1.004 --    19 C    0.973
    53   1 H    1.001 --    20 C    0.973
    54   1 H    1.001 --    25 C    0.973
    55   1 H    1.003 --    26 C    0.973
    56   1 H    1.004 --    31 C    0.972
    57   1 H    1.001 --    32 C    0.972
    58   1 H    1.005 --    33 C    0.969
    59   1 H    0.873 --    36 O    0.838
    60   1 H    1.007 --    38 C    0.969
    61   1 H    1.004 --    40 C    0.973
    62   1 H    0.997 --    41 C    0.975
    63  28 Ni   3.015 --    69 N    0.665   105 N    0.665    83 N    0.661
                            90 N    0.660
    64   6 C    3.935 --    65 C    1.364   104 C    1.364   106 H    0.970
    65   6 C    3.922 --    64 C    1.364    69 N    1.213    66 C    1.174
    66   6 C    3.960 --    67 C    1.651    65 C    1.174   107 H    0.975
    67   6 C    3.963 --    66 C    1.651    68 C    1.175   108 H    0.972
    68   6 C    3.920 --    70 C    1.324    69 N    1.221    67 C    1.175
    69   7 N    3.402 --    68 C    1.221    65 C    1.213    63 Ni   0.665
    70   6 C    3.938 --    80 C    1.327    68 C    1.324    71 C    1.026
    71   6 C    3.988 --    72 C    1.409    79 C    1.387    70 C    1.026
                            77 C    0.102
    72   6 C    3.984 --    71 C    1.409    73 C    1.396   109 H    0.968
                            78 C    0.104
    73   6 C    3.988 --    72 C    1.396    77 C    1.392    74 C    1.004
                            79 C    0.100
    74   6 C    3.836 --    76 O    1.693    75 O    1.090    73 C    1.004
    75   8 O    2.099 --    74 C    1.090   110 H    0.838    76 O    0.129
    76   8 O    1.962 --    74 C    1.693    75 O    0.129
    77   6 C    3.987 --    78 C    1.448    73 C    1.392   111 H    0.970
                            71 C    0.102
    78   6 C    3.994 --    77 C    1.448    79 C    1.441   112 H    0.972
                            72 C    0.104
    79   6 C    3.987 --    78 C    1.441    71 C    1.387   113 H    0.973
                            73 C    0.100
    80   6 C    3.915 --    70 C    1.327    83 N    1.207    81 C    1.184
    81   6 C    3.958 --    82 C    1.635    80 C    1.184   114 H    0.973
    82   6 C    3.961 --    81 C    1.635    84 C    1.192   115 H    0.973
    83   7 N    3.405 --    84 C    1.238    80 C    1.207    63 Ni   0.661
    84   6 C    3.903 --    85 C    1.262    83 N    1.238    82 C    1.192
    85   6 C    3.945 --    86 C    1.262    84 C    1.262   136 C    1.185
    86   6 C    3.903 --    85 C    1.262    90 N    1.238    87 C    1.192
    87   6 C    3.961 --    88 C    1.635    86 C    1.192   116 H    0.973
    88   6 C    3.959 --    87 C    1.635    89 C    1.184   117 H    0.973
    89   6 C    3.916 --    91 C    1.328    90 N    1.206    88 C    1.184
    90   7 N    3.405 --    86 C    1.238    89 C    1.206    63 Ni   0.660
    91   6 C    3.938 --    89 C    1.328   101 C    1.323    92 C    1.026
    92   6 C    3.988 --   100 C    1.406    93 C    1.389    91 C    1.026
                            95 C    0.102
    93   6 C    3.987 --    94 C    1.440    92 C    1.389   118 H    0.973
                            96 C    0.100
    94   6 C    3.994 --    95 C    1.450    93 C    1.440   119 H    0.972
                           100 C    0.104
    95   6 C    3.986 --    94 C    1.450    96 C    1.388   120 H    0.969
                            92 C    0.102
    96   6 C    3.988 --   100 C    1.400    95 C    1.388    97 C    1.005
                            93 C    0.100
    97   6 C    3.836 --    99 O    1.693    98 O    1.090    96 C    1.005
    98   8 O    2.099 --    97 C    1.090   121 H    0.838    99 O    0.129
    99   8 O    1.961 --    97 C    1.693    98 O    0.129
   100   6 C    3.985 --    92 C    1.406    96 C    1.400   122 H    0.969
                            94 C    0.104
   101   6 C    3.920 --    91 C    1.323   105 N    1.222   102 C    1.176
   102   6 C    3.963 --   103 C    1.650   101 C    1.176   123 H    0.973
   103   6 C    3.960 --   102 C    1.650   104 C    1.174   124 H    0.975
   104   6 C    3.922 --    64 C    1.364   105 N    1.213   103 C    1.174
   105   7 N    3.402 --   101 C    1.222   104 C    1.213    63 Ni   0.665
   106   1 H    1.000 --    64 C    0.970
   107   1 H    0.997 --    66 C    0.975
   108   1 H    1.003 --    67 C    0.972
   109   1 H    1.007 --    72 C    0.968
   110   1 H    0.873 --    75 O    0.838
   111   1 H    1.005 --    77 C    0.970
   112   1 H    1.002 --    78 C    0.972
   113   1 H    1.004 --    79 C    0.973
   114   1 H    1.004 --    81 C    0.973
   115   1 H    1.001 --    82 C    0.973
   116   1 H    1.001 --    87 C    0.973
   117   1 H    1.004 --    88 C    0.973
   118   1 H    1.004 --    93 C    0.973
   119   1 H    1.001 --    94 C    0.972
   120   1 H    1.005 --    95 C    0.969
   121   1 H    0.873 --    98 O    0.838
   122   1 H    1.007 --   100 C    0.969
   123   1 H    1.004 --   102 C    0.973
   124   1 H    0.997 --   103 C    0.975
   125   6 C    3.928 --   126 C    2.373   129 C    1.333   128 C    0.191
   126   6 C    3.926 --   125 C    2.373   127 C    1.332   130 C    0.191
   127   6 C    3.937 --   128 C    2.455   126 C    1.332
   128   6 C    3.891 --   127 C    2.455    23 C    1.185   125 C    0.191
   129   6 C    3.934 --   130 C    2.453   125 C    1.333
   130   6 C    3.892 --   129 C    2.453   138 C    1.189   126 C    0.191
   131   6 C    3.926 --   132 C    2.372   135 C    1.332   134 C    0.191
   132   6 C    3.928 --   131 C    2.372   133 C    1.333   136 C    0.191
   133   6 C    3.935 --   134 C    2.452   132 C    1.333
   134   6 C    3.892 --   133 C    2.452   159 C    1.188   131 C    0.191
   135   6 C    3.937 --   136 C    2.455   131 C    1.332
   136   6 C    3.891 --   135 C    2.455    85 C    1.185   132 C    0.191
   137  28 Ni   3.006 --   179 N    0.661   157 N    0.661   143 N    0.660
                           164 N    0.660
   138   6 C    3.934 --   178 C    1.261   139 C    1.257   130 C    1.189
   139   6 C    3.903 --   138 C    1.257   143 N    1.243   140 C    1.192
   140   6 C    3.958 --   141 C    1.634   139 C    1.192   180 H    0.973
   141   6 C    3.959 --   140 C    1.634   142 C    1.184   181 H    0.972
   142   6 C    3.913 --   144 C    1.330   143 N    1.201   141 C    1.184
   143   7 N    3.400 --   139 C    1.243   142 C    1.201   137 Ni   0.660
   144   6 C    3.933 --   142 C    1.330   154 C    1.320   145 C    1.026
   145   6 C    3.988 --   146 C    1.409   153 C    1.387   144 C    1.026
                           151 C    0.102
   146   6 C    3.984 --   145 C    1.409   147 C    1.396   182 H    0.967
                           152 C    0.104
   147   6 C    3.988 --   146 C    1.396   151 C    1.392   148 C    1.004
                           153 C    0.100
   148   6 C    3.836 --   150 O    1.693   149 O    1.090   147 C    1.004
   149   8 O    2.099 --   148 C    1.090   183 H    0.838   150 O    0.129
   150   8 O    1.962 --   148 C    1.693   149 O    0.129
   151   6 C    3.987 --   152 C    1.447   147 C    1.392   184 H    0.970
                           145 C    0.102
   152   6 C    3.994 --   151 C    1.447   153 C    1.442   185 H    0.972
                           146 C    0.104
   153   6 C    3.986 --   152 C    1.442   145 C    1.387   186 H    0.973
                           147 C    0.100
   154   6 C    3.913 --   144 C    1.320   157 N    1.209   155 C    1.187
   155   6 C    3.959 --   156 C    1.632   154 C    1.187   187 H    0.973
   156   6 C    3.959 --   155 C    1.632   158 C    1.192   188 H    0.973
   157   7 N    3.401 --   158 C    1.236   154 C    1.209   137 Ni   0.661
   158   6 C    3.902 --   159 C    1.262   157 N    1.236   156 C    1.192
   159   6 C    3.934 --   158 C    1.262   160 C    1.256   134 C    1.188
   160   6 C    3.903 --   159 C    1.256   164 N    1.243   161 C    1.194
   161   6 C    3.960 --   162 C    1.633   160 C    1.194   189 H    0.973
   162   6 C    3.959 --   161 C    1.633   163 C    1.185   190 H    0.972
   163   6 C    3.914 --   165 C    1.329   164 N    1.202   162 C    1.185
   164   7 N    3.400 --   160 C    1.243   163 C    1.202   137 Ni   0.660
   165   6 C    3.933 --   163 C    1.329   175 C    1.321   166 C    1.026
   166   6 C    3.988 --   174 C    1.406   167 C    1.389   165 C    1.026
                           169 C    0.102
   167   6 C    3.987 --   168 C    1.440   166 C    1.389   191 H    0.973
                           170 C    0.100
   168   6 C    3.994 --   169 C    1.450   167 C    1.440   192 H    0.972
                           174 C    0.104
   169   6 C    3.986 --   168 C    1.450   170 C    1.388   193 H    0.969
                           166 C    0.102
   170   6 C    3.988 --   174 C    1.400   169 C    1.388   171 C    1.004
                           167 C    0.100
   171   6 C    3.836 --   173 O    1.693   172 O    1.091   170 C    1.004
   172   8 O    2.099 --   171 C    1.091   194 H    0.838   173 O    0.129
   173   8 O    1.962 --   171 C    1.693   172 O    0.129
   174   6 C    3.985 --   166 C    1.406   170 C    1.400   195 H    0.969
                           168 C    0.104
   175   6 C    3.913 --   165 C    1.321   179 N    1.208   176 C    1.187
   176   6 C    3.960 --   177 C    1.632   175 C    1.187   196 H    0.973
   177   6 C    3.959 --   176 C    1.632   178 C    1.193   197 H    0.973
   178   6 C    3.902 --   138 C    1.261   179 N    1.237   177 C    1.193
   179   7 N    3.401 --   178 C    1.237   175 C    1.208   137 Ni   0.661
   180   1 H    1.001 --   140 C    0.973
   181   1 H    1.003 --   141 C    0.972
   182   1 H    1.007 --   146 C    0.967
   183   1 H    0.872 --   149 O    0.838
   184   1 H    1.005 --   151 C    0.970
   185   1 H    1.002 --   152 C    0.972
   186   1 H    1.004 --   153 C    0.973
   187   1 H    1.003 --   155 C    0.973
   188   1 H    1.001 --   156 C    0.973
   189   1 H    1.001 --   161 C    0.973
   190   1 H    1.004 --   162 C    0.972
   191   1 H    1.004 --   167 C    0.973
   192   1 H    1.001 --   168 C    0.972
   193   1 H    1.005 --   169 C    0.969
   194   1 H    0.872 --   172 O    0.838
   195   1 H    1.008 --   174 C    0.969
   196   1 H    1.003 --   176 C    0.973
   197   1 H    1.001 --   177 C    0.973
 ---------------------------------------------------------------------------

           -------------------------------------------------
          | TOTAL ENERGY             -378.116479704578 Eh   |
          | GRADIENT NORM               0.000942764635 Eh/α |
          | HOMO-LUMO GAP               1.037128732003 eV   |
           -------------------------------------------------

 * finished run on 2022/07/30 at 05:14:19.280
