   * xtb version 6.5.1 (b24c23e) compiled by 'conda@728c89f4b128' on 2022-07-12
          program call               : xtb m-CP_C6_2.xyz --gfn 1 --opt -T 48

   ID    Z sym.   atoms
    1    6 C      1-5, 7-11, 14-19, 21-26, 28-34, 37-41, 64-68, 70-74, 77-82,
                  84-89, 91-97, 100-104, 127-132
    2    7 N      6, 20, 27, 42, 69, 83, 90, 105
    3    8 O      12, 13, 35, 36, 75, 76, 98, 99
    4    1 H      43-63, 106-126
########################################################################
[WARNING] Please study the warnings concerning your input carefully
-1- prog_main_parseArguments: Unknown option '-T' provided
########################################################################

          :  Hamiltonian                  GFN1-xTB          :
 * total energy  :  -241.8354584 Eh     change       -0.3784351E-09 Eh
 * total energy  :  -241.9507212 Eh     change       -0.1152628E+00 Eh
 * total energy  :  -242.0093391 Eh     change       -0.5861790E-01 Eh
 * total energy  :  -242.0226309 Eh     change       -0.1329181E-01 Eh
 * total energy  :  -242.0308422 Eh     change       -0.8211247E-02 Eh
 * total energy  :  -242.0348683 Eh     change       -0.4026164E-02 Eh
 * total energy  :  -242.0378483 Eh     change       -0.2979996E-02 Eh
 * total energy  :  -242.0394721 Eh     change       -0.1623807E-02 Eh
 * total energy  :  -242.0404927 Eh     change       -0.1020522E-02 Eh
 * total energy  :  -242.0409383 Eh     change       -0.4456571E-03 Eh
 * total energy  :  -242.0456431 Eh     change       -0.1129251E-04 Eh
 * total energy  :  -242.0456548 Eh     change       -0.1175470E-04 Eh
 * total energy  :  -242.0456724 Eh     change       -0.1761377E-04 Eh
 * total energy  :  -242.0456816 Eh     change       -0.9151211E-05 Eh
 * total energy  :  -242.0456873 Eh     change       -0.5691325E-05 Eh
 * total energy  :  -242.0456927 Eh     change       -0.5378630E-05 Eh
 * total energy  :  -242.0456999 Eh     change       -0.7223675E-05 Eh
 * total energy  :  -242.0457053 Eh     change       -0.5370934E-05 Eh
 * total energy  :  -242.0457102 Eh     change       -0.4921533E-05 Eh
   *** GEOMETRY OPTIMIZATION CONVERGED AFTER 89 ITERATIONS ***

 final structure:
================
132
 xtb: 6.5.1 (b24c23e)
C           11.08024973306112       -0.09684595926781       -0.08764882507616
C           11.66138546898274        1.11985206830557       -0.42072132665844
C           10.98443034991274        2.34825037342432       -0.66225002833309
C           11.92324733106532        3.29466756206990       -0.96240904009193
C           13.20368000705370        2.67230046361588       -0.92286730184310
N           12.99535596780130        1.36530166708655       -0.58552084476882
C           14.45090238724744        3.26326525424111       -1.15356671410682
C           14.44591083852217        4.70130278487046       -1.52193836164497
C           15.06584102095726        5.64178987738266       -0.70413128504884
C           15.05369937505779        6.99346846786960       -1.04583890893624
C           15.72366009541542        7.94928717710868       -0.12783493851625
O           15.65776828301025        9.22354854301554       -0.54015087819591
O           16.27855252203852        7.63533823459965        0.89375561886039
C           14.42249966117632        7.41325755008494       -2.21669080265644
C           13.80694803384306        6.47835265885439       -3.03405723306560
C           13.81461365563445        5.13367853672156       -2.69052428371392
C           15.68082108212486        2.60916161567045       -1.05752727186067
C           16.95829492625572        3.23618726645681       -1.34658215191759
C           17.90162228197195        2.29497836026307       -1.13741344106802
N           15.86821800208130        1.30797133218710       -0.70259564143510
C           17.19861238624403        1.09299731242849       -0.73136868774340
C           17.86553245853342       -0.10789480022195       -0.41399528445712
C           17.25940825994159       -1.32536496949431       -0.04926900009825
C           17.93450029226195       -2.52820096842658        0.28885908500957
C           16.99115429630656       -3.47462752222407        0.57843654825789
C           15.70910854944515       -2.87926285146443        0.41813549394552
N           15.92367354828685       -1.57919561902461        0.04355106688720
C           14.46200722967485       -3.47688572688861        0.62818406921059
C           14.46333240319469       -4.90849902043548        1.01767431226589
C           15.00442766455902       -5.87642871381083        0.16856399812326
C           15.00137395824663       -7.21655240436554        0.53062868222998
C           14.46218638530721       -7.60691932411931        1.74490743509466
C           13.92100758944117       -6.64874322666736        2.60370472992612
C           13.35505245932395       -7.10659290284551        3.89785199913717
O           12.84954880761880       -6.11421697647821        4.64421933739265
O           13.33903910532563       -8.25398768198922        4.26386895893867
C           13.92123122081306       -5.30415870816571        2.23914030675918
C           13.22970233934034       -2.82663089551131        0.50483753788165
C           11.93968390676439       -3.47553473062742        0.68332188537624
C           11.00380350566117       -2.52587948925646        0.48460148331108
C           11.72009927287600       -1.30101600258252        0.17433091598926
N           13.05766332563742       -1.52193446491784        0.18675830718973
H            9.99661002378555       -0.09698408810950       -0.02696626991359
H            9.91571261133002        2.47908612094189       -0.60360137996941
H           11.75060218896423        4.33558581703248       -1.18315274354591
H           13.73426574786895        0.68079240152818       -0.46436976484747
H           15.55132188134090        5.33506657925752        0.21586171692909
H           16.11519141009388        9.78170648624387        0.10960250718424
H           14.41580843989295        8.46356358944466       -2.48168834498037
H           13.31744896450643        6.79711441317776       -3.94742963470192
H           13.34107609118867        4.40663852287301       -3.34095647080131
H           17.09208028489683        4.25424742955546       -1.67461568446741
H           18.97104802804654        2.37771477078704       -1.24712615004427
H           19.00614129868328       -2.64324742075403        0.31075456226459
H           17.16505298320508       -4.49249341404465        0.88720184327694
H           15.18502496404781       -0.90363892081133       -0.12281278128171
H           15.41423950112991       -5.57584899705454       -0.78941051623470
H           15.42108483174225       -7.95681533181216       -0.14147279100037
H           14.45220704682590       -8.64908159767647        2.04344463343175
H           12.50364125212508       -6.49414012591728        5.46836694540877
H           13.51310347654812       -4.56087244632975        2.91380520107341
H           11.79443430475239       -4.51825664565103        0.91571107621270
H            9.92977899638078       -2.61639819771782        0.52889324397251
C           33.82505712165245        0.04885647785716       -0.15418692158858
C           33.24509633616373       -1.19629134167152        0.05185316165875
C           33.92464111624391       -2.41541743644231        0.33004194666103
C           32.98655030621144       -3.40051068880334        0.45999971078623
C           31.70385843897899       -2.81646988971749        0.25491874929705
N           31.91029428512744       -1.48677676259575        0.02084230884066
C           30.45626725090551       -3.44898138782702        0.30064654908967
C           30.45968735116098       -4.91150048002627        0.55264062409330
C           29.82835317897114       -5.43612772171424        1.67704907367895
C           29.83077716216312       -6.81018098593939        1.91318301346653
C           29.14186834994204       -7.30788826132565        3.13082423334943
O           29.19095653488125       -8.64096713645421        3.26718683714251
O           28.58506244414116       -6.60296461296280        3.93285142353368
C           30.46676468914454       -7.67231228466577        1.01999816863685
C           31.09613565418826       -7.15265653343525       -0.10016710484046
C           31.09542485716392       -5.78451535336211       -0.33338051512113
C           29.22551031779274       -2.81153831717183        0.12927225778063
C           27.94724730803770       -3.50065900466869        0.12837249803862
C           27.00400201684707       -2.55576236068399       -0.06338865564989
N           29.03814554019318       -1.47897506344210       -0.07960254186258
C           27.70750417840061       -1.29355697398917       -0.18863404128006
C           27.03957689405881       -0.06816250557297       -0.38833493745787
C           27.64405103256585        1.19297269948679       -0.55135942913427
C           26.96769622074433        2.42962287461137       -0.72466509378371
C           27.91016247057174        3.41206830398602       -0.85140169442440
C           29.19285715965784        2.80249266486803       -0.76809618269861
N           28.97961784568725        1.46256724250182       -0.57945038617638
C           30.43988687453036        3.43219652402687       -0.83701187630192
C           30.43701922117594        4.89759679257936       -1.06930146261467
C           29.88000280920818        5.43131072443770       -2.23359042539673
C           29.87944915133802        6.80184656945055       -2.45380818492877
C           30.43125064672490        7.65659763991101       -1.51449008197208
C           30.98947268676781        7.13574874876505       -0.34597652482656
C           31.56902851041747        8.08501765203088        0.63730070430989
O           32.08609860440397        7.48758980618645        1.72066041343115
O           31.58681385300611        9.28117445655439        0.49712705883203
C           30.99258264253333        5.75995978020860       -0.12611636809296
C           31.67301900404350        2.78596485024497       -0.70166940830487
C           32.96270095341085        3.44816871483550       -0.82483215817203
C           33.89955686080116        2.49839006173169       -0.63133111038511
C           33.18398039739260        1.25556682793715       -0.40084225746023
N           31.84582744841090        1.46519121755646       -0.45974651075339
H           34.90947021721139        0.07206666243221       -0.11482134905964
H           34.99463995646245       -2.51129763110383        0.42327551143383
H           33.16156848734799       -4.43959938041408        0.68732856547980
H           31.16944028392741       -0.81320820299084       -0.14259799219143
H           29.33984639691917       -4.78000400125188        2.38908070029810
H           28.72052327588722       -8.88459785301502        4.08100989079606
H           30.46581298502921       -8.73979514241320        1.20410577552805
H           31.58969247025458       -7.81690030725497       -0.80059488281664
H           31.57687137693908       -5.38714314486066       -1.22003304372668
H           27.81201617394735       -4.56346950417969        0.24672224395139
H           25.93427244935991       -2.67564432377928       -0.12486856388633
H           25.89588691555987        2.54390163706756       -0.74218339553054
H           27.73537655792697        4.46775749520593       -0.98015219590234
H           29.71941146718792        0.77766410145561       -0.46418518376762
H           29.46055407639228        4.76365130499646       -2.97796719800627
H           29.44779278216372        7.20063016940738       -3.36476335170690
H           30.43864958529290        8.72947573569356       -1.67017189961602
H           32.44021382216270        8.17278674626253        2.31054478010194
H           31.41400242567626        5.35956254033036        0.78829708970880
H           33.10675022144213        4.49418816845351       -1.04265532132815
H           34.97372619373711        2.59659931521326       -0.64468119471878
C           23.06689219075279       -0.10415999958389       -0.46349714918827
C           21.83852205355494       -0.10413259943017       -0.47186699667997
C           20.49448426561487       -0.10531796904235       -0.46679365206680
C           19.27054875926779       -0.10325820625374       -0.45135490453736
C           24.41082452010336       -0.09777541109033       -0.44671072342880
C           25.63465804840767       -0.08996181958306       -0.42439713749640

          :  Hamiltonian                  GFN1-xTB          :
         :: total energy            -242.045710188634 Eh    ::
         :: gradient norm              0.000825991200 Eh/a0 ::
         :: HOMO-LUMO gap              1.026168568163 eV    ::
         :: SCC energy              -245.710574518223 Eh    ::
         :: repulsion energy           3.774811970235 Eh    ::

    * Orbital Energies and Occupations

         #    Occupation            Energy/Eh            Energy/eV
      -------------------------------------------------------------
         1        2.0000           -0.8333091             -22.6755
       ...           ...                  ...                  ...
       201        2.0000           -0.4272593             -11.6263
       202        2.0000           -0.4260523             -11.5935
       203        2.0000           -0.4253820             -11.5752
       204        2.0000           -0.4224926             -11.4966
       205        2.0000           -0.4223047             -11.4915
       206        2.0000           -0.4208748             -11.4526
       207        2.0000           -0.4206637             -11.4468
       208        2.0000           -0.4203387             -11.4380
       209        2.0000           -0.4176534             -11.3649
       210        2.0000           -0.4046121             -11.0101
       211        2.0000           -0.4043210             -11.0021
       212        2.0000           -0.3935226             -10.7083
       213        2.0000           -0.3841812             -10.4541 (HOMO)
       214                         -0.3464702              -9.4279 (LUMO)
       215                         -0.3378277              -9.1928
       216                         -0.3373408              -9.1795
       217                         -0.3349564              -9.1146
       218                         -0.3122746              -8.4974
       219                         -0.3118470              -8.4858
       220                         -0.3107410              -8.4557
       221                         -0.3106344              -8.4528
       222                         -0.3058936              -8.3238
       223                         -0.2993243              -8.1450
       224                         -0.2890291              -7.8649
       ...                                ...                  ...
       444                          1.5755565              42.8731
      -------------------------------------------------------------
                  HL-Gap            0.0377110 Eh            1.0262 eV

Wiberg/Mayer (AO) data.
largest (>0.10) Wiberg bond orders for each atom

     #   Z sym  total        # sym  WBO       # sym  WBO       # sym  WBO
 ---------------------------------------------------------------------------
     1   6 C    3.926 --    41 C    1.366     2 C    1.347    43 H    0.971
     2   6 C    3.902 --     1 C    1.347     3 C    1.229     6 N    1.169
     3   6 C    3.953 --     4 C    1.595     2 C    1.229    44 H    0.976
     4   6 C    3.959 --     3 C    1.595     5 C    1.234    45 H    0.974
     5   6 C    3.897 --     7 C    1.303     4 C    1.234     6 N    1.178
     6   7 N    3.470 --     5 C    1.178     2 C    1.169    46 H    0.873
     7   6 C    3.939 --    17 C    1.338     5 C    1.303     8 C    1.026
     8   6 C    3.988 --     9 C    1.408    16 C    1.389     7 C    1.026
                            14 C    0.103
     9   6 C    3.984 --     8 C    1.408    10 C    1.397    47 H    0.968
                            15 C    0.104
    10   6 C    3.988 --     9 C    1.397    14 C    1.391    11 C    1.004
                            16 C    0.100
    11   6 C    3.836 --    13 O    1.693    12 O    1.090    10 C    1.004
    12   8 O    2.098 --    11 C    1.090    48 H    0.838    13 O    0.129
    13   8 O    1.962 --    11 C    1.693    12 O    0.129
    14   6 C    3.987 --    15 C    1.448    10 C    1.391    49 H    0.970
                             8 C    0.103
    15   6 C    3.994 --    14 C    1.448    16 C    1.441    50 H    0.972
                             9 C    0.104
    16   6 C    3.987 --    15 C    1.441     8 C    1.389    51 H    0.973
                            10 C    0.100
    17   6 C    3.915 --     7 C    1.338    20 N    1.285    18 C    1.124
    18   6 C    3.966 --    19 C    1.712    17 C    1.124    52 H    0.974
    19   6 C    3.964 --    18 C    1.712    21 C    1.127    53 H    0.974
    20   7 N    3.023 --    21 C    1.345    17 C    1.285
    21   6 C    3.907 --    20 N    1.345    22 C    1.254    19 C    1.127
    22   6 C    3.938 --    21 C    1.254    23 C    1.251   130 C    1.192
    23   6 C    3.884 --    22 C    1.251    24 C    1.248    27 N    1.189
    24   6 C    3.959 --    25 C    1.584    23 C    1.248    54 H    0.975
    25   6 C    3.954 --    24 C    1.584    26 C    1.240    55 H    0.974
    26   6 C    3.899 --    28 C    1.310    25 C    1.240    27 N    1.166
    27   7 N    3.475 --    23 C    1.189    26 C    1.166    56 H    0.873
    28   6 C    3.924 --    38 C    1.321    26 C    1.310    29 C    1.029
    29   6 C    3.988 --    37 C    1.404    30 C    1.390    28 C    1.029
                            32 C    0.102
    30   6 C    3.986 --    31 C    1.439    29 C    1.390    57 H    0.973
    31   6 C    3.994 --    32 C    1.451    30 C    1.439    58 H    0.972
                            37 C    0.104
    32   6 C    3.985 --    31 C    1.451    33 C    1.387    59 H    0.969
                            29 C    0.102
    33   6 C    3.988 --    37 C    1.401    32 C    1.387    34 C    1.005
    34   6 C    3.836 --    36 O    1.692    35 O    1.091    33 C    1.005
    35   8 O    2.099 --    34 C    1.091    60 H    0.838    36 O    0.129
    36   8 O    1.961 --    34 C    1.692    35 O    0.129
    37   6 C    3.984 --    29 C    1.404    33 C    1.401    61 H    0.969
                            31 C    0.104
    38   6 C    3.929 --    28 C    1.321    42 N    1.317    39 C    1.117
    39   6 C    3.967 --    40 C    1.724    38 C    1.117    62 H    0.973
    40   6 C    3.966 --    39 C    1.724    41 C    1.116    63 H    0.976
    41   6 C    3.929 --     1 C    1.366    42 N    1.300    40 C    1.116
    42   7 N    3.012 --    38 C    1.317    41 C    1.300
    43   1 H    1.002 --     1 C    0.971
    44   1 H    0.997 --     3 C    0.976
    45   1 H    1.004 --     4 C    0.974
    46   1 H    0.986 --     6 N    0.873
    47   1 H    1.007 --     9 C    0.968
    48   1 H    0.873 --    12 O    0.838
    49   1 H    1.005 --    14 C    0.970
    50   1 H    1.002 --    15 C    0.972
    51   1 H    1.004 --    16 C    0.973
    52   1 H    1.004 --    18 C    0.974
    53   1 H    1.002 --    19 C    0.974
    54   1 H    1.002 --    24 C    0.975
    55   1 H    1.004 --    25 C    0.974
    56   1 H    0.987 --    27 N    0.873
    57   1 H    1.004 --    30 C    0.973
    58   1 H    1.002 --    31 C    0.972
    59   1 H    1.005 --    32 C    0.969
    60   1 H    0.873 --    35 O    0.838
    61   1 H    1.007 --    37 C    0.969
    62   1 H    1.004 --    39 C    0.973
    63   1 H    0.998 --    40 C    0.976
    64   6 C    3.926 --   104 C    1.367    65 C    1.346   106 H    0.971
    65   6 C    3.902 --    64 C    1.346    66 C    1.229    69 N    1.169
    66   6 C    3.953 --    67 C    1.595    65 C    1.229   107 H    0.976
    67   6 C    3.959 --    66 C    1.595    68 C    1.234   108 H    0.974
    68   6 C    3.897 --    70 C    1.302    67 C    1.234    69 N    1.178
    69   7 N    3.470 --    68 C    1.178    65 C    1.169   109 H    0.873
    70   6 C    3.939 --    80 C    1.337    68 C    1.302    71 C    1.028
    71   6 C    3.988 --    72 C    1.407    79 C    1.388    70 C    1.028
                            77 C    0.102
    72   6 C    3.984 --    71 C    1.407    73 C    1.397   110 H    0.968
                            78 C    0.104
    73   6 C    3.988 --    72 C    1.397    77 C    1.391    74 C    1.004
    74   6 C    3.836 --    76 O    1.693    75 O    1.090    73 C    1.004
    75   8 O    2.098 --    74 C    1.090   111 H    0.838    76 O    0.129
    76   8 O    1.962 --    74 C    1.693    75 O    0.129
    77   6 C    3.986 --    78 C    1.448    73 C    1.391   112 H    0.970
                            71 C    0.102
    78   6 C    3.994 --    77 C    1.448    79 C    1.441   113 H    0.972
                            72 C    0.104
    79   6 C    3.987 --    78 C    1.441    71 C    1.388   114 H    0.973
    80   6 C    3.915 --    70 C    1.337    83 N    1.285    81 C    1.124
    81   6 C    3.966 --    82 C    1.712    80 C    1.124   115 H    0.973
    82   6 C    3.964 --    81 C    1.712    84 C    1.127   116 H    0.974
    83   7 N    3.023 --    84 C    1.345    80 C    1.285
    84   6 C    3.907 --    83 N    1.345    85 C    1.254    82 C    1.127
    85   6 C    3.938 --    84 C    1.254    86 C    1.251   132 C    1.192
    86   6 C    3.884 --    85 C    1.251    87 C    1.249    90 N    1.189
    87   6 C    3.959 --    88 C    1.584    86 C    1.249   117 H    0.975
    88   6 C    3.954 --    87 C    1.584    89 C    1.240   118 H    0.974
    89   6 C    3.899 --    91 C    1.310    88 C    1.240    90 N    1.166
    90   7 N    3.475 --    86 C    1.189    89 C    1.166   119 H    0.873
    91   6 C    3.924 --   101 C    1.321    89 C    1.310    92 C    1.029
    92   6 C    3.988 --   100 C    1.404    93 C    1.389    91 C    1.029
                            95 C    0.102
    93   6 C    3.986 --    94 C    1.439    92 C    1.389   120 H    0.973
    94   6 C    3.994 --    95 C    1.451    93 C    1.439   121 H    0.972
                           100 C    0.104
    95   6 C    3.985 --    94 C    1.451    96 C    1.387   122 H    0.969
                            92 C    0.102
    96   6 C    3.988 --   100 C    1.400    95 C    1.387    97 C    1.005
    97   6 C    3.836 --    99 O    1.692    98 O    1.090    96 C    1.005
    98   8 O    2.099 --    97 C    1.090   123 H    0.838    99 O    0.129
    99   8 O    1.961 --    97 C    1.692    98 O    0.129
   100   6 C    3.984 --    92 C    1.404    96 C    1.400   124 H    0.969
                            94 C    0.104
   101   6 C    3.929 --    91 C    1.321   105 N    1.317   102 C    1.117
   102   6 C    3.967 --   103 C    1.724   101 C    1.117   125 H    0.973
   103   6 C    3.966 --   102 C    1.724   104 C    1.116   126 H    0.976
   104   6 C    3.929 --    64 C    1.367   105 N    1.300   103 C    1.116
   105   7 N    3.012 --   101 C    1.317   104 C    1.300
   106   1 H    1.002 --    64 C    0.971
   107   1 H    0.997 --    66 C    0.976
   108   1 H    1.004 --    67 C    0.974
   109   1 H    0.986 --    69 N    0.873
   110   1 H    1.007 --    72 C    0.968
   111   1 H    0.873 --    75 O    0.838
   112   1 H    1.005 --    77 C    0.970
   113   1 H    1.002 --    78 C    0.972
   114   1 H    1.004 --    79 C    0.973
   115   1 H    1.004 --    81 C    0.973
   116   1 H    1.002 --    82 C    0.974
   117   1 H    1.002 --    87 C    0.975
   118   1 H    1.004 --    88 C    0.974
   119   1 H    0.987 --    90 N    0.873
   120   1 H    1.004 --    93 C    0.973
   121   1 H    1.002 --    94 C    0.972
   122   1 H    1.005 --    95 C    0.969
   123   1 H    0.873 --    98 O    0.838
   124   1 H    1.007 --   100 C    0.969
   125   1 H    1.004 --   102 C    0.973
   126   1 H    0.998 --   103 C    0.976
   127   6 C    3.925 --   128 C    2.367   131 C    1.336   130 C    0.190
   128   6 C    3.925 --   127 C    2.367   129 C    1.336   132 C    0.190
   129   6 C    3.932 --   130 C    2.447   128 C    1.336
   130   6 C    3.891 --   129 C    2.447    22 C    1.192   127 C    0.190
   131   6 C    3.932 --   132 C    2.448   127 C    1.336
   132   6 C    3.891 --   131 C    2.448    85 C    1.192   128 C    0.190
 ---------------------------------------------------------------------------

           -------------------------------------------------
          | TOTAL ENERGY             -242.045710188634 Eh   |
          | GRADIENT NORM               0.000825991200 Eh/α |
          | HOMO-LUMO GAP               1.026168568163 eV   |
           -------------------------------------------------

 * finished run on 2022/07/27 at 22:19:14.833
