   * xtb version 6.5.1 (b24c23e) compiled by 'conda@728c89f4b128' on 2022-07-12
          program call               : xtb Fe_NMA_C6_2.xyz --gfn 1 --opt -T 48

   ID    Z sym.   atoms
    1   26 Fe     1, 67
    2    6 C      2-6, 8-12, 14-19, 21-26, 28-32, 34-40, 68-72, 74-78, 80-85,
                  87-92, 94-98, 100-106, 133-138
    3    7 N      7, 13, 20, 27, 33, 41, 73, 79, 86, 93, 99, 107
    4    1 H      42-66, 108-132
########################################################################
[WARNING] Please study the warnings concerning your input carefully
-1- prog_main_parseArguments: Unknown option '-T' provided
########################################################################

          :  Hamiltonian                  GFN1-xTB          :
 * total energy  :  -213.5835494 Eh     change       -0.2962679E-09 Eh
 * total energy  :  -224.8072272 Eh     change       -0.1122368E+02 Eh
 * total energy  :  -225.6648257 Eh     change       -0.8575986E+00 Eh
 * total energy  :  -226.3001525 Eh     change       -0.6353268E+00 Eh
 * total energy  :  -226.5965447 Eh     change       -0.2963922E+00 Eh
 * total energy  :  -226.7629984 Eh     change       -0.1664537E+00 Eh
 * total energy  :  -226.8660207 Eh     change       -0.1030222E+00 Eh
 * total energy  :  -226.9347151 Eh     change       -0.6869449E-01 Eh
 * total energy  :  -226.9895172 Eh     change       -0.5480208E-01 Eh
 * total energy  :  -227.0521703 Eh     change       -0.6265306E-01 Eh
 * total energy  :  -227.5851254 Eh     change       -0.1168161E-04 Eh
 * total energy  :  -227.5851320 Eh     change       -0.6576661E-05 Eh
 * total energy  :  -227.5851391 Eh     change       -0.7105239E-05 Eh
 * total energy  :  -227.5851470 Eh     change       -0.7906312E-05 Eh
 * total energy  :  -227.5851534 Eh     change       -0.6401036E-05 Eh
 * total energy  :  -227.5851593 Eh     change       -0.5872462E-05 Eh
 * total energy  :  -227.5851654 Eh     change       -0.6146712E-05 Eh
 * total energy  :  -227.5851651 Eh     change        0.3576613E-06 Eh
 * total energy  :  -227.5851699 Eh     change       -0.4824249E-05 Eh
   *** GEOMETRY OPTIMIZATION CONVERGED AFTER 69 ITERATIONS ***

 final structure:
================
138
 xtb: 6.5.1 (b24c23e)
Fe          16.34120636779406        0.05121962302083       -0.02517940266274
C           12.96213050905177        0.13490320652156       -0.12165375434888
C           13.59835859104402        0.90387892024554        0.83195717475568
C           12.91313533356834        1.70863959716377        1.79691666363790
C           13.86288754955226        2.40826332139777        2.46322854868778
C           15.12622295300840        2.04308720976192        1.89072045073589
N           14.95408315226807        1.07841724879639        0.93531083678887
C           16.33797719635304        2.64926997605936        2.21464458166020
C           16.33841553431082        3.78274800144635        3.16288988020501
C           15.57107022664092        4.92513624876736        2.91421208673012
C           15.58266143786603        5.99009205294629        3.79397967992788
C           16.35345907541038        5.94030752900568        4.96267164086791
N           16.37194018502506        7.05253820165294        5.78797744054615
C           16.75987891694509        6.91609910203178        7.18488499472908
C           17.12393328978071        4.80115425668354        5.21602888417632
C           17.11424337396517        3.74327072518071        4.32389200269480
C           17.54730628563587        2.23695991431487        1.66699178798634
C           18.80162279410209        2.88738940593718        1.90275793792690
C           19.75335943688849        2.13456650571090        1.29822837574169
N           17.73053899900702        1.12489952974015        0.88108336644351
C           19.07708677539042        1.03434541959708        0.68754697330532
C           19.74072040751654       -0.03450214293876        0.07144795963818
C           19.06339991761751       -1.08745773036237       -0.55718027391503
C           19.72316004059392       -2.22058814009362       -1.12448097486118
C           18.76740597522067       -2.95612761181265       -1.74367611034030
C           17.52897875404379       -2.25776160348552       -1.56757084048076
N           17.72065040381105       -1.14309580150716       -0.78597047848485
C           16.33318949867154       -2.62286029176990       -2.17388823803678
C           16.32771752321050       -3.76596783040371       -3.11057145104897
C           17.16316566797039       -3.77800706327086       -4.22988469579118
C           17.15666967502378       -4.83979266145735       -5.11739908030054
C           16.30839859140257       -5.93036279272205       -4.90153650483907
N           16.30029868803904       -7.04324109129968       -5.72686490693268
C           16.75011996238771       -6.92572043063120       -7.10709606086666
C           15.47962978230134       -5.93049417366703       -3.77219735185201
C           15.48482446306199       -4.86135289757389       -2.89740733235180
C           15.13929064739852       -1.94341468977602       -1.93994408393970
C           13.90161145002733       -2.23505986275452       -2.60320991438473
C           12.95382800941040       -1.45795863782183       -2.02569133818070
C           13.61572933430050       -0.68436080641959       -1.01980153341091
N           14.95854695804370       -0.95991878514507       -1.00674700290214
H           11.87930570054164        0.17322352843518       -0.16463977384648
H           11.84325358191392        1.72335479805432        1.93317233989178
H           13.73059897522972        3.10706373047269        3.27338846416036
H           14.98036853066339        4.98506426614843        2.00664845422361
H           14.99416016983810        6.87638810639145        3.58132044785721
H           15.56504879168658        7.65115219851919        5.66381892169175
H           17.82149804312036        6.67610227943418        7.25646723753787
H           16.17907073596853        6.13604569525177        7.69010782974176
H           16.58444192668261        7.87210838046577        7.67787412549053
H           17.73418093911355        4.73484205262590        6.10834396962279
H           17.70201787198025        2.85803765821694        4.54120839520801
H           18.92869685698892        3.80708489516937        2.45025124317684
H           20.81842513911634        2.29784866107073        1.26117760602277
H           20.78069232996737       -2.41656364480352       -1.04894642480338
H           18.88232526875211       -3.89012817670777       -2.26923718350729
H           17.81057161415898       -2.92885576754468       -4.42017186459966
H           17.81392422221237       -4.81396712405202       -5.97781318184272
H           15.45489434623958       -7.59374129941793       -5.63880801604297
H           16.23889613228674       -6.10887808096167       -7.62877547430554
H           16.53470946828602       -7.86674189872394       -7.61283543760127
H           17.82653277605610       -6.75205545255581       -7.13620874541095
H           14.83073367689775       -6.78013910793256       -3.58751286163233
H           14.84542140765679       -4.88064715310411       -2.02167276093826
H           13.78479156962059       -2.93945517997222       -3.41088389628082
H           11.89991378477357       -1.40081708663007       -2.24807509199683
Fe          32.30407231603166        0.01309369062471       -0.05567304433387
C           35.68323412905811        0.08816490349503       -0.15770817775476
C           35.04683593360404       -1.00997708435489       -0.70040658599079
C           35.73184990971714       -2.12728337071709       -1.27544083952527
C           34.78196988008964       -2.92988208656421       -1.81307406374140
C           33.51878276728356       -2.29126709029333       -1.58159149191197
N           33.69110679178475       -1.14852683534664       -0.84845921369584
C           32.30701766842442       -2.73924754228009       -2.10274484085099
C           32.30644090419774       -3.91193514792111       -3.00206282800189
C           33.07342356075982       -3.91836786798805       -4.17138471447397
C           33.06207053971612       -5.00950067171687       -5.01848833290309
C           32.29198357183186       -6.13949340523794       -4.71436139252448
N           32.27405990680459       -7.18801483141423       -5.61927843697571
C           31.88752935605272       -8.52162613811259       -5.18046826342392
C           31.52165913076969       -6.13819348453327       -3.54729743524029
C           31.53102140167605       -5.03650298706909       -2.70984461310277
C           31.09780883666938       -2.11459824648006       -1.82001157367522
C           29.84353813747259       -2.48606414172922       -2.40383249649677
C           28.89185843503205       -1.73175301473195       -1.80110420185046
N           30.91462393310710       -1.10526967718373       -0.90589640052073
C           29.56816296445583       -0.89603416285680       -0.86033734034885
C           28.90447068395751       -0.06149307037098        0.04825081653482
C           29.58177205367118        0.78126662602854        0.93908293940566
C           28.92208145107996        1.58226528034308        1.92106937587690
C           29.87787454940037        2.34708036476279        2.50363328960065
C           31.11634559425114        2.02243703137254        1.86080517376946
N           30.92464000630158        1.01621660461327        0.94385785320887
C           32.31224037092468        2.69365367978756        2.08488624904928
C           32.31766289799637        3.85737619819286        2.99585309956264
C           31.48266237554907        4.95255976219504        2.76282902451117
C           31.48882281995985        6.05035530689413        3.60540620997043
C           32.33622633099411        6.07740893532903        4.71744789181966
N           32.34366011486863        7.12536286529610        5.62374043590329
C           31.89268893480881        8.44657469960588        5.20886694345448
C           33.16477032199600        4.97519560383676        4.96437733697585
C           33.15993167564331        3.88824600887757        4.11183697522728
C           33.50621446544064        2.31670582868371        1.47325854142869
C           34.74405449593294        3.02727971588065        1.61347973720034
C           35.69180760054058        2.29384110994347        0.98139048578122
C           35.02975482774179        1.14353409094157        0.44579996610590
N           33.68686474877278        1.19132515647425        0.71713522218830
H           36.76606984237785        0.12157035318121       -0.20443044074812
H           36.80168345041071       -2.26371562192802       -1.25999053392737
H           34.91403701993508       -3.87292463808904       -2.31845509659261
H           33.66367321779263       -3.04553863948773       -4.42818283835753
H           33.65028699945977       -4.99528331158329       -5.92999004492330
H           33.08091343910318       -7.19708415078357       -6.23069832313095
H           30.82607380948100       -8.53994668581054       -4.92998112505289
H           32.46914386756808       -8.84353333002606       -4.30916209735977
H           32.06308463624988       -9.21157099600150       -6.00564794831937
H           30.91180252668033       -6.99471087260134       -3.28758823896722
H           30.94335774769741       -5.05537826317319       -1.79845936193421
H           29.71648821141657       -3.22081454788470       -3.18213666378022
H           27.82683016819717       -1.73087136464227       -1.96889586415550
H           27.86451502026164        1.55147831700387        2.12869870732215
H           29.76298308437919        3.06400896600727        3.30021653773818
H           30.83584021546078        4.95313869609841        1.89220595140388
H           30.83199007534869        6.88460097049872        3.39197169291266
H           33.18882616936748        7.15999752587229        6.18047103509612
H           32.40464554014054        8.77913125907147        4.29894566819742
H           32.10610979420298        9.14472922869274        6.01805476539975
H           30.81657584184141        8.43583893548432        5.03163210214335
H           33.81309193808774        4.98021490182167        5.83426818960273
H           33.79909220951942        3.03771188520679        4.32206080053904
H           34.86101066271625        3.96913172493377        2.12474322622756
H           36.74580837214184        2.49807805708915        0.87741570493197
C           24.93782257117596       -0.07836059187369        0.09182305184220
C           23.70736741411501       -0.07618368761557        0.09580249193313
C           22.36613122945872       -0.06692620922007        0.09484366311555
C           21.14056785538179       -0.05497011872952        0.08827949120573
C           26.27898234251214       -0.07695521867177        0.08189453613272
C           27.50455773899389       -0.07121940802036        0.06905342265642

          :  Hamiltonian                  GFN1-xTB          :
         :: total energy            -227.585169906695 Eh    ::
         :: gradient norm              0.000986224354 Eh/a0 ::
         :: HOMO-LUMO gap              0.083308698191 eV    ::
         :: SCC energy              -231.223497644817 Eh    ::
         :: repulsion energy           3.755704653703 Eh    ::

    * Orbital Energies and Occupations

         #    Occupation            Energy/Eh            Energy/eV
      -------------------------------------------------------------
         1        2.0000           -0.7800599             -21.2265
       ...           ...                  ...                  ...
       199        2.0000           -0.3935686             -10.7095
       200        2.0000           -0.3915312             -10.6541
       201        2.0000           -0.3915231             -10.6539
       202        2.0000           -0.3868124             -10.5257
       203        2.0000           -0.3868111             -10.5257
       204        1.9998           -0.3807864             -10.3617
       205        1.9923           -0.3771479             -10.2627
       206        1.9922           -0.3771312             -10.2623
       207        1.9584           -0.3755270             -10.2186
       208        1.9575           -0.3755059             -10.2180
       209        1.9529           -0.3754051             -10.2153
       210        1.9528           -0.3754043             -10.2153
       211        1.6416           -0.3733127             -10.1584 (HOMO)
       212        0.3087           -0.3702512             -10.0750 (LUMO)
       213        0.2437           -0.3699906             -10.0680
       214                         -0.3297585              -8.9732
       215                         -0.3175103              -8.6399
       216                         -0.3171130              -8.6291
       217                         -0.3171086              -8.6290
       218                         -0.2912821              -7.9262
       219                         -0.2884176              -7.8482
       220                         -0.2883021              -7.8451
       221                         -0.2845058              -7.7418
       222                         -0.2791914              -7.5972
       ...                                ...                  ...
       462                          1.5817917              43.0427
      -------------------------------------------------------------
                  HL-Gap            0.0030615 Eh            0.0833 eV

Wiberg/Mayer (AO) data.
largest (>0.10) Wiberg bond orders for each atom

     #   Z sym  total        # sym  WBO       # sym  WBO       # sym  WBO
 ---------------------------------------------------------------------------
     1  26 Fe   3.153 --     7 N    0.670    27 N    0.662    41 N    0.662
                            20 N    0.656
     2   6 C    3.922 --    40 C    1.362     3 C    1.362    42 H    0.970
     3   6 C    3.926 --     2 C    1.362     7 N    1.208     4 C    1.176
     4   6 C    3.957 --     5 C    1.644     3 C    1.176    43 H    0.975
     5   6 C    3.962 --     4 C    1.644     6 C    1.178    44 H    0.973
     6   6 C    3.919 --     8 C    1.307     7 N    1.227     5 C    1.178
     7   7 N    3.378 --     6 C    1.227     3 C    1.208     1 Fe   0.670
     8   6 C    3.924 --    17 C    1.325     6 C    1.307     9 C    1.042
     9   6 C    3.984 --    16 C    1.379    10 C    1.369     8 C    1.042
    10   6 C    3.986 --    11 C    1.480     9 C    1.369    45 H    0.972
    11   6 C    3.987 --    10 C    1.480    12 C    1.341    46 H    0.971
    12   6 C    3.949 --    15 C    1.350    11 C    1.341    13 N    1.114
    13   7 N    3.181 --    12 C    1.114    14 C    0.971    47 H    0.930
    14   6 C    3.967 --    50 H    0.990    48 H    0.986    49 H    0.983
                            13 N    0.971
    15   6 C    3.987 --    16 C    1.468    12 C    1.350    51 H    0.970
    16   6 C    3.984 --    15 C    1.468     9 C    1.379    52 H    0.972
    17   6 C    3.916 --     8 C    1.325    20 N    1.203    18 C    1.183
    18   6 C    3.958 --    19 C    1.633    17 C    1.183    53 H    0.973
    19   6 C    3.960 --    18 C    1.633    21 C    1.192    54 H    0.974
    20   7 N    3.375 --    21 C    1.243    17 C    1.203     1 Fe   0.656
    21   6 C    3.905 --    22 C    1.249    20 N    1.243    19 C    1.192
    22   6 C    3.921 --    21 C    1.249    23 C    1.248   136 C    1.206
    23   6 C    3.905 --    22 C    1.248    27 N    1.245    24 C    1.191
    24   6 C    3.958 --    25 C    1.634    23 C    1.191    55 H    0.974
    25   6 C    3.958 --    24 C    1.634    26 C    1.182    56 H    0.973
    26   6 C    3.916 --    28 C    1.328    27 N    1.201    25 C    1.182
    27   7 N    3.378 --    23 C    1.245    26 C    1.201     1 Fe   0.662
    28   6 C    3.924 --    26 C    1.328    37 C    1.304    29 C    1.042
    29   6 C    3.984 --    30 C    1.379    36 C    1.369    28 C    1.042
    30   6 C    3.986 --    31 C    1.468    29 C    1.379    57 H    0.972
    31   6 C    3.987 --    30 C    1.468    32 C    1.350    58 H    0.970
    32   6 C    3.949 --    31 C    1.350    35 C    1.342    33 N    1.114
    33   7 N    3.180 --    32 C    1.114    34 C    0.971    59 H    0.930
    34   6 C    3.967 --    61 H    0.990    62 H    0.986    60 H    0.983
                            33 N    0.971
    35   6 C    3.987 --    36 C    1.480    32 C    1.342    63 H    0.971
    36   6 C    3.984 --    35 C    1.480    29 C    1.369    64 H    0.972
    37   6 C    3.919 --    28 C    1.304    41 N    1.229    38 C    1.179
    38   6 C    3.962 --    39 C    1.644    37 C    1.179    65 H    0.973
    39   6 C    3.959 --    38 C    1.644    40 C    1.176    66 H    0.975
    40   6 C    3.927 --     2 C    1.362    41 N    1.207    39 C    1.176
    41   7 N    3.374 --    37 C    1.229    40 C    1.207     1 Fe   0.662
    42   1 H    1.001 --     2 C    0.970
    43   1 H    0.998 --     4 C    0.975
    44   1 H    1.005 --     5 C    0.973
    45   1 H    1.005 --    10 C    0.972
    46   1 H    0.999 --    11 C    0.971
    47   1 H    0.965 --    13 N    0.930
    48   1 H    1.011 --    14 C    0.986
    49   1 H    1.003 --    14 C    0.983
    50   1 H    1.007 --    14 C    0.990
    51   1 H    1.001 --    15 C    0.970
    52   1 H    1.006 --    16 C    0.972
    53   1 H    1.005 --    18 C    0.973
    54   1 H    1.002 --    19 C    0.974
    55   1 H    1.002 --    24 C    0.974
    56   1 H    1.005 --    25 C    0.973
    57   1 H    1.006 --    30 C    0.972
    58   1 H    1.001 --    31 C    0.970
    59   1 H    0.965 --    33 N    0.930
    60   1 H    1.003 --    34 C    0.983
    61   1 H    1.007 --    34 C    0.990
    62   1 H    1.011 --    34 C    0.986
    63   1 H    0.999 --    35 C    0.971
    64   1 H    1.005 --    36 C    0.972
    65   1 H    1.005 --    38 C    0.973
    66   1 H    0.998 --    39 C    0.975
    67  26 Fe   3.154 --    73 N    0.670    93 N    0.662   107 N    0.662
                            86 N    0.656
    68   6 C    3.922 --   106 C    1.362    69 C    1.362   108 H    0.970
    69   6 C    3.926 --    68 C    1.362    73 N    1.208    70 C    1.176
    70   6 C    3.957 --    71 C    1.644    69 C    1.176   109 H    0.975
    71   6 C    3.962 --    70 C    1.644    72 C    1.178   110 H    0.973
    72   6 C    3.919 --    74 C    1.307    73 N    1.227    71 C    1.178
    73   7 N    3.378 --    72 C    1.227    69 C    1.208    67 Fe   0.670
    74   6 C    3.924 --    83 C    1.325    72 C    1.307    75 C    1.042
    75   6 C    3.984 --    82 C    1.379    76 C    1.369    74 C    1.042
    76   6 C    3.986 --    77 C    1.480    75 C    1.369   111 H    0.972
    77   6 C    3.987 --    76 C    1.480    78 C    1.341   112 H    0.971
    78   6 C    3.949 --    81 C    1.350    77 C    1.341    79 N    1.114
    79   7 N    3.181 --    78 C    1.114    80 C    0.971   113 H    0.930
    80   6 C    3.967 --   116 H    0.990   114 H    0.986   115 H    0.983
                            79 N    0.971
    81   6 C    3.987 --    82 C    1.468    78 C    1.350   117 H    0.970
    82   6 C    3.984 --    81 C    1.468    75 C    1.379   118 H    0.972
    83   6 C    3.916 --    74 C    1.325    86 N    1.203    84 C    1.183
    84   6 C    3.958 --    85 C    1.633    83 C    1.183   119 H    0.973
    85   6 C    3.960 --    84 C    1.633    87 C    1.192   120 H    0.974
    86   7 N    3.375 --    87 C    1.243    83 C    1.203    67 Fe   0.656
    87   6 C    3.905 --    88 C    1.249    86 N    1.243    85 C    1.192
    88   6 C    3.921 --    87 C    1.249    89 C    1.248   138 C    1.206
    89   6 C    3.905 --    88 C    1.248    93 N    1.245    90 C    1.191
    90   6 C    3.958 --    91 C    1.634    89 C    1.191   121 H    0.974
    91   6 C    3.958 --    90 C    1.634    92 C    1.182   122 H    0.973
    92   6 C    3.916 --    94 C    1.328    93 N    1.201    91 C    1.182
    93   7 N    3.378 --    89 C    1.245    92 C    1.201    67 Fe   0.662
    94   6 C    3.924 --    92 C    1.328   103 C    1.304    95 C    1.042
    95   6 C    3.984 --    96 C    1.379   102 C    1.369    94 C    1.042
    96   6 C    3.986 --    97 C    1.467    95 C    1.379   123 H    0.972
    97   6 C    3.987 --    96 C    1.467    98 C    1.350   124 H    0.970
    98   6 C    3.949 --    97 C    1.350   101 C    1.341    99 N    1.114
    99   7 N    3.180 --    98 C    1.114   100 C    0.971   125 H    0.930
   100   6 C    3.967 --   127 H    0.990   128 H    0.986   126 H    0.983
                            99 N    0.971
   101   6 C    3.987 --   102 C    1.480    98 C    1.341   129 H    0.971
   102   6 C    3.984 --   101 C    1.480    95 C    1.369   130 H    0.972
   103   6 C    3.919 --    94 C    1.304   107 N    1.229   104 C    1.179
   104   6 C    3.962 --   105 C    1.644   103 C    1.179   131 H    0.973
   105   6 C    3.959 --   104 C    1.644   106 C    1.176   132 H    0.975
   106   6 C    3.927 --    68 C    1.362   107 N    1.207   105 C    1.176
   107   7 N    3.374 --   103 C    1.229   106 C    1.207    67 Fe   0.662
   108   1 H    1.001 --    68 C    0.970
   109   1 H    0.998 --    70 C    0.975
   110   1 H    1.005 --    71 C    0.973
   111   1 H    1.005 --    76 C    0.972
   112   1 H    0.999 --    77 C    0.971
   113   1 H    0.965 --    79 N    0.930
   114   1 H    1.011 --    80 C    0.986
   115   1 H    1.003 --    80 C    0.983
   116   1 H    1.007 --    80 C    0.990
   117   1 H    1.001 --    81 C    0.970
   118   1 H    1.006 --    82 C    0.972
   119   1 H    1.005 --    84 C    0.973
   120   1 H    1.002 --    85 C    0.974
   121   1 H    1.002 --    90 C    0.974
   122   1 H    1.005 --    91 C    0.973
   123   1 H    1.006 --    96 C    0.972
   124   1 H    1.001 --    97 C    0.970
   125   1 H    0.965 --    99 N    0.930
   126   1 H    1.003 --   100 C    0.983
   127   1 H    1.007 --   100 C    0.990
   128   1 H    1.011 --   100 C    0.986
   129   1 H    0.999 --   101 C    0.971
   130   1 H    1.005 --   102 C    0.972
   131   1 H    1.005 --   104 C    0.973
   132   1 H    0.998 --   105 C    0.975
   133   6 C    3.915 --   134 C    2.341   137 C    1.353   136 C    0.187
   134   6 C    3.915 --   133 C    2.341   135 C    1.352   138 C    0.187
   135   6 C    3.922 --   136 C    2.422   134 C    1.352
   136   6 C    3.880 --   135 C    2.422    22 C    1.206   133 C    0.187
   137   6 C    3.922 --   138 C    2.422   133 C    1.353
   138   6 C    3.880 --   137 C    2.422    88 C    1.206   134 C    0.187
 ---------------------------------------------------------------------------

           -------------------------------------------------
          | TOTAL ENERGY             -227.585169906695 Eh   |
          | GRADIENT NORM               0.000986224354 Eh/α |
          | HOMO-LUMO GAP               0.083308698191 eV   |
           -------------------------------------------------

 * finished run on 2022/07/29 at 16:59:29.189
