   * xtb version 6.5.1 (b24c23e) compiled by 'conda@728c89f4b128' on 2022-07-12
          program call               : xtb Zn_PhCN_C4_2.xyz --gfn 1 --opt -T 48

   ID    Z sym.   atoms
    1   30 Zn     1, 59
    2    6 C      2-6, 8-13, 15-19, 21-26, 28-33, 35-40, 60-64, 66-71, 73-77,
                  79-84, 86-91, 93-98, 117-120
    3    7 N      7, 14, 20, 27, 34, 41, 65, 72, 78, 85, 92, 99
    4    1 H      42-58, 100-116
########################################################################
[WARNING] Please study the warnings concerning your input carefully
-1- prog_main_parseArguments: Unknown option '-T' provided
########################################################################

          :  Hamiltonian                  GFN1-xTB          :
 * total energy  :  -209.9343127 Eh     change       -0.3486491E-09 Eh
 * total energy  :  -210.0752477 Eh     change       -0.1409350E+00 Eh
 * total energy  :  -210.1147090 Eh     change       -0.3946122E-01 Eh
 * total energy  :  -210.1372720 Eh     change       -0.2256307E-01 Eh
 * total energy  :  -210.1448241 Eh     change       -0.7552084E-02 Eh
 * total energy  :  -210.1486711 Eh     change       -0.3846997E-02 Eh
 * total energy  :  -210.1530796 Eh     change       -0.4408527E-02 Eh
 * total energy  :  -210.1548913 Eh     change       -0.1811641E-02 Eh
 * total energy  :  -210.1569481 Eh     change       -0.2056848E-02 Eh
 * total energy  :  -210.1575037 Eh     change       -0.5555527E-03 Eh
 * total energy  :  -210.1629823 Eh     change       -0.2733942E-04 Eh
 * total energy  :  -210.1630103 Eh     change       -0.2797813E-04 Eh
 * total energy  :  -210.1630373 Eh     change       -0.2700707E-04 Eh
 * total energy  :  -210.1630530 Eh     change       -0.1572249E-04 Eh
 * total energy  :  -210.1630646 Eh     change       -0.1154259E-04 Eh
 * total energy  :  -210.1630729 Eh     change       -0.8334452E-05 Eh
 * total energy  :  -210.1630829 Eh     change       -0.9960516E-05 Eh
 * total energy  :  -210.1630908 Eh     change       -0.7970569E-05 Eh
 * total energy  :  -210.1630949 Eh     change       -0.4072821E-05 Eh
   *** GEOMETRY OPTIMIZATION CONVERGED AFTER 38 ITERATIONS ***

 final structure:
================
120
 xtb: 6.5.1 (b24c23e)
Zn          16.87526760678003        0.03133285023105       -0.00086775798219
C           13.46928081782313        0.04651282360485        0.14408210606100
C           14.10194471306936        1.26843332005326        0.33813036603618
C           13.43127607342858        2.51839801818472        0.56305082787791
C           14.39245515222851        3.46478984202792        0.70469421787419
C           15.66372034352921        2.80182561389486        0.57774813625340
N           15.45184866966965        1.47440922428236        0.34695419762270
C           16.91649464932799        3.42365320723858        0.64993967265718
C           16.93402846857715        4.87730507267026        0.94408609024305
C           16.41152985144834        5.36067990235230        2.14620074361604
C           16.43099715664364        6.71420521657254        2.43050584101716
C           16.97190902550726        7.61613804058646        1.50918497577789
C           16.99132373031210        9.00964402105253        1.79841413869138
N           17.00582751911877       10.13624291400025        2.03272804140627
C           17.49283863703648        7.13848933478643        0.30289992722299
C           17.47458204244267        5.78284523478088        0.02800758357201
C           18.15332065002388        2.79193855302714        0.47658957945446
C           19.43590481803905        3.42796908133187        0.60175724805808
C           20.37785063009832        2.47602541560680        0.38059139338520
N           18.34105967583224        1.46530630755168        0.19540122316193
C           19.68214932854605        1.24826414037900        0.12872187406493
C           20.30827517840865        0.01357751043813       -0.13340988646635
C           19.65146320142064       -1.21331684361759       -0.35333618080000
C           20.31298454794640       -2.44742469769836       -0.66015399923064
C           19.34691765585581       -3.38922440358793       -0.80953070230158
C           18.08458746073079       -2.74069553490683       -0.58302037035906
N           18.30704694741489       -1.41639122659717       -0.31721467909889
C           16.83165066646495       -3.36054123282409       -0.65319601894293
C           16.80992570577105       -4.81474980656305       -0.94446038305770
C           16.18320432439916       -5.29459602255287       -2.09713813152678
C           16.16152161228264       -6.64904983686130       -2.37691633120167
C           16.76561013473254       -7.55537571803442       -1.50032378829247
C           16.74169383740669       -8.95012009193111       -1.78331539140036
N           16.72146223380453      -10.07778145575504       -2.01255388268996
C           17.39231448161467       -7.08109882633155       -0.34398466683210
C           17.41441971769381       -5.72459639069909       -0.07368688871837
C           15.59514942634801       -2.72716664059388       -0.47603966347113
C           14.31177368359356       -3.37862785121728       -0.49517154017544
C           13.37457970155539       -2.42406958656324       -0.27159590277541
C           14.07297151867085       -1.18036856296200       -0.10356764531885
N           15.41539668790127       -1.39823178936742       -0.22712731613704
H           12.38468452280170        0.05083405067578        0.19067699493663
H           12.36058423997574        2.64524994541940        0.59770056754226
H           14.25716077778634        4.52202748201810        0.86785823572081
H           16.00290340631030        4.66330752848722        2.86887846224190
H           16.02970613590042        7.08035361619776        3.36828571996357
H           17.90955526357372        7.83491194835628       -0.41534641008433
H           17.86844758586826        5.41793544096061       -0.91390788820580
H           19.59489922286095        4.46687870354284        0.84181748103883
H           21.45046544464208        2.58655706864022        0.39335199073834
H           21.38022958595897       -2.56815105777570       -0.75701005344508
H           19.47590762213940       -4.42908551962037       -1.06315741200781
H           15.72431503537392       -4.59390513719718       -2.78558043846485
H           15.67824878930255       -7.01241082209926       -3.27629005672252
H           17.85878441986299       -7.78100003573218        0.33946518151415
H           17.89042173395448       -5.36231209112385        0.83057373184449
H           14.15351118981369       -4.43429072324129       -0.64736595045785
H           12.30369885396784       -2.54122537954359       -0.21549251985956
Zn          30.34756683593728       -0.03056401396903        0.00136064649984
C           33.75355701696441       -0.03789222983547        0.14663271595097
C           33.12101574021542       -1.24845883728289        0.40235815427895
C           33.79180742563513       -2.48572018438304        0.68856531477482
C           32.83064485644319       -3.42313454475712        0.88093981218473
C           31.55926656206104       -2.76667924002519        0.72449604517141
N           31.77104273854665       -1.45309950112323        0.42491510322980
C           30.30641077156470       -3.38283585131332        0.83490993079448
C           30.28960241658212       -4.81839858542578        1.20712215946079
C           30.82076807846503       -5.23702868529734        2.42958972135906
C           30.80265782484402       -6.57327124755752        2.78659531097567
C           30.25404526619683       -7.52281466535012        1.91938421855886
C           30.23451302197113       -8.89887830095068        2.28261837992228
N           30.21895680312232      -10.01124126049887        2.57719419936052
C           29.72454912356793       -7.11019496094856        0.69288970658108
C           29.74171786571903       -5.77143345314056        0.34511178145736
C           29.06933093206052       -2.76037460033651        0.63205962764441
C           27.78665301693852       -3.38709049061923        0.79688902931920
C           26.84475653906846       -2.44845693421153        0.52447880668670
N           28.88171005927024       -1.45153346582178        0.27708621439686
C           27.54062580393493       -1.23766951199385        0.20109751810021
C           26.91473986365411       -0.02005807235892       -0.13203287346250
C           27.57176874529061        1.19192613409747       -0.42256309238663
C           26.91060021165445        2.40589789689229       -0.80185854301046
C           27.87666972423186        3.33812707772564       -1.00251097317151
C           29.13863110723946        2.70458112437656       -0.73519888213791
N           28.91605615421198        1.39739894774616       -0.39502774478531
C           30.39134234660428        3.32093623528649       -0.83457777545697
C           30.41330853808504        4.75716460813077       -1.20409583655167
C           31.04806658325806        5.17512641670826       -2.37637574815242
C           31.07056128511063        6.51255445063476       -2.72849145153828
C           30.45898346266976        7.46401137766466       -1.90655869815727
C           30.48398616701125        8.84131053303219       -2.26477333223574
N           30.50558190211547        9.95451902654661       -2.55567544463886
C           29.82427412524476        7.05187684968673       -0.73097337638862
C           29.80161219905377        5.71187127491141       -0.38810531757160
C           31.62764869290893        2.69914833415184       -0.61881392087790
C           32.91068810599829        3.34972784703171       -0.66783944686765
C           33.84783350233464        2.40861902726491       -0.39294536862721
C           33.14969887716318        1.17473316972467       -0.16297237745906
N           31.80743954757966        1.38514515265457       -0.30043974994409
H           34.83815498257485       -0.03975282285823        0.19329593114684
H           34.86253340077817       -2.61136689279704        0.72630679879246
H           32.96608617734636       -4.47086133012307        1.09677522989671
H           31.23516586480557       -4.50221124535739        3.11068323963119
H           31.21111803163027       -6.88861820198122        3.73960446594734
H           29.30216475305309       -7.84402379772026        0.01642150329740
H           29.34119028266259       -5.45741333527116       -0.61219922189758
H           27.62762727102847       -4.41048004141202        1.09623185868514
H           25.77209838381792       -2.55709517915768        0.54648588128388
H           25.84360088454348        2.52021104822532       -0.90869688960869
H           27.74791421758735        4.36144952680816       -1.31639788823248
H           31.51262877373661        4.43906045748969       -3.02284327552793
H           31.56026875189285        6.82769664921869       -3.64248119929192
H           29.35214542146724        7.78688985729155       -0.08957197954759
H           29.31956133898797        5.39821520685283        0.53100367088903
H           33.06883553480458        4.39630304039591       -0.87350465102730
H           34.91849065282810        2.52923977023038       -0.34002607229259
C           22.93637982176719       -0.00136834743848       -0.18322908136403
C           21.71459190518188        0.00449948103548       -0.16929446496779
C           24.28669774945359       -0.00859875409899       -0.18247559502529
C           25.50839484592576       -0.01226008036312       -0.16746039760448

          :  Hamiltonian                  GFN1-xTB          :
         :: total energy            -210.163094910654 Eh    ::
         :: gradient norm              0.000510503001 Eh/a0 ::
         :: HOMO-LUMO gap              1.134922063687 eV    ::
         :: SCC energy              -213.741295838584 Eh    ::
         :: repulsion energy           3.687264236731 Eh    ::

    * Orbital Energies and Occupations

         #    Occupation            Energy/Eh            Energy/eV
      -------------------------------------------------------------
         1        2.0000           -0.7702606             -20.9599
       ...           ...                  ...                  ...
       181        2.0000           -0.4327873             -11.7767
       182        2.0000           -0.4320323             -11.7562
       183        2.0000           -0.4320281             -11.7561
       184        2.0000           -0.4314328             -11.7399
       185        2.0000           -0.4312968             -11.7362
       186        2.0000           -0.4311356             -11.7318
       187        2.0000           -0.4311331             -11.7317
       188        2.0000           -0.4292164             -11.6796
       189        2.0000           -0.4284025             -11.6574
       190        2.0000           -0.4037819             -10.9875
       191        2.0000           -0.4037812             -10.9874
       192        2.0000           -0.3985742             -10.8458
       193        2.0000           -0.3875064             -10.5446 (HOMO)
       194                         -0.3457988              -9.4097 (LUMO)
       195                         -0.3382114              -9.2032
       196                         -0.3381793              -9.2023
       197                         -0.3330975              -9.0640
       198                         -0.3111139              -8.4658
       199                         -0.3082910              -8.3890
       200                         -0.3011906              -8.1958
       201                         -0.3011495              -8.1947
       202                         -0.2965158              -8.0686
       203                         -0.2922569              -7.9527
       204                         -0.2811624              -7.6508
       ...                                ...                  ...
       412                          1.5103629              41.0991
      -------------------------------------------------------------
                  HL-Gap            0.0417076 Eh            1.1349 eV

Wiberg/Mayer (AO) data.
largest (>0.10) Wiberg bond orders for each atom

     #   Z sym  total        # sym  WBO       # sym  WBO       # sym  WBO
 ---------------------------------------------------------------------------
     1  30 Zn   1.995 --    41 N    0.460     7 N    0.459    20 N    0.455
                            27 N    0.455
     2   6 C    3.929 --    40 C    1.358     3 C    1.358    42 H    0.971
     3   6 C    3.921 --     2 C    1.358     7 N    1.232     4 C    1.170
     4   6 C    3.960 --     5 C    1.660     3 C    1.170    43 H    0.975
     5   6 C    3.963 --     4 C    1.660     6 C    1.171    44 H    0.973
     6   6 C    3.918 --     8 C    1.313     7 N    1.245     5 C    1.171
     7   7 N    3.294 --     6 C    1.245     3 C    1.232     1 Zn   0.459
     8   6 C    3.932 --    17 C    1.321     6 C    1.313     9 C    1.031
     9   6 C    3.963 --    16 C    1.385    10 C    1.385     8 C    1.031
    10   6 C    3.987 --    11 C    1.464     9 C    1.385    45 H    0.971
                            15 C    0.102
    11   6 C    3.993 --    10 C    1.464    12 C    1.363    46 H    0.972
                            16 C    0.102
    12   6 C    3.984 --    15 C    1.364    11 C    1.363    13 C    1.099
    13   6 C    3.957 --    14 N    2.819    12 C    1.099
    14   7 N    2.972 --    13 C    2.819
    15   6 C    3.993 --    16 C    1.464    12 C    1.364    47 H    0.972
                            10 C    0.102
    16   6 C    3.987 --    15 C    1.464     9 C    1.385    48 H    0.971
                            11 C    0.102
    17   6 C    3.913 --     8 C    1.321    20 N    1.227    18 C    1.178
    18   6 C    3.960 --    19 C    1.647    17 C    1.178    49 H    0.973
    19   6 C    3.962 --    18 C    1.647    21 C    1.185    50 H    0.974
    20   7 N    3.297 --    21 C    1.261    17 C    1.227     1 Zn   0.455
    21   6 C    3.902 --    20 N    1.261    22 C    1.257    19 C    1.185
    22   6 C    3.939 --    23 C    1.257    21 C    1.257   118 C    1.186
    23   6 C    3.902 --    27 N    1.261    22 C    1.257    24 C    1.186
    24   6 C    3.962 --    25 C    1.647    23 C    1.186    51 H    0.974
    25   6 C    3.960 --    24 C    1.647    26 C    1.178    52 H    0.973
    26   6 C    3.913 --    28 C    1.321    27 N    1.228    25 C    1.178
    27   7 N    3.297 --    23 C    1.261    26 C    1.228     1 Zn   0.455
    28   6 C    3.932 --    26 C    1.321    37 C    1.313    29 C    1.031
    29   6 C    3.963 --    36 C    1.385    30 C    1.385    28 C    1.031
    30   6 C    3.987 --    31 C    1.464    29 C    1.385    53 H    0.971
                            35 C    0.102
    31   6 C    3.993 --    30 C    1.464    32 C    1.363    54 H    0.972
                            36 C    0.102
    32   6 C    3.984 --    35 C    1.364    31 C    1.363    33 C    1.099
    33   6 C    3.957 --    34 N    2.819    32 C    1.099
    34   7 N    2.972 --    33 C    2.819
    35   6 C    3.993 --    36 C    1.464    32 C    1.364    55 H    0.972
                            30 C    0.102
    36   6 C    3.987 --    35 C    1.464    29 C    1.385    56 H    0.971
                            31 C    0.102
    37   6 C    3.918 --    28 C    1.313    41 N    1.245    38 C    1.171
    38   6 C    3.963 --    39 C    1.660    37 C    1.171    57 H    0.973
    39   6 C    3.960 --    38 C    1.660    40 C    1.170    58 H    0.975
    40   6 C    3.921 --     2 C    1.358    41 N    1.232    39 C    1.170
    41   7 N    3.294 --    37 C    1.245    40 C    1.232     1 Zn   0.460
    42   1 H    1.001 --     2 C    0.971
    43   1 H    0.998 --     4 C    0.975
    44   1 H    1.004 --     5 C    0.973
    45   1 H    1.004 --    10 C    0.971
    46   1 H    1.000 --    11 C    0.972
    47   1 H    1.000 --    15 C    0.972
    48   1 H    1.004 --    16 C    0.971
    49   1 H    1.004 --    18 C    0.973
    50   1 H    1.002 --    19 C    0.974
    51   1 H    1.002 --    24 C    0.974
    52   1 H    1.004 --    25 C    0.973
    53   1 H    1.004 --    30 C    0.971
    54   1 H    1.000 --    31 C    0.972
    55   1 H    1.000 --    35 C    0.972
    56   1 H    1.004 --    36 C    0.971
    57   1 H    1.004 --    38 C    0.973
    58   1 H    0.998 --    39 C    0.975
    59  30 Zn   1.995 --    99 N    0.460    65 N    0.459    78 N    0.455
                            85 N    0.455
    60   6 C    3.929 --    98 C    1.358    61 C    1.358   100 H    0.971
    61   6 C    3.921 --    60 C    1.358    65 N    1.232    62 C    1.170
    62   6 C    3.960 --    63 C    1.660    61 C    1.170   101 H    0.975
    63   6 C    3.963 --    62 C    1.660    64 C    1.171   102 H    0.973
    64   6 C    3.918 --    66 C    1.313    65 N    1.246    63 C    1.171
    65   7 N    3.294 --    64 C    1.246    61 C    1.232    59 Zn   0.459
    66   6 C    3.932 --    75 C    1.321    64 C    1.313    67 C    1.031
    67   6 C    3.963 --    74 C    1.385    68 C    1.385    66 C    1.031
    68   6 C    3.987 --    69 C    1.464    67 C    1.385   103 H    0.971
                            73 C    0.102
    69   6 C    3.993 --    68 C    1.464    70 C    1.364   104 H    0.972
                            74 C    0.102
    70   6 C    3.984 --    73 C    1.364    69 C    1.364    71 C    1.099
    71   6 C    3.957 --    72 N    2.819    70 C    1.099
    72   7 N    2.972 --    71 C    2.819
    73   6 C    3.993 --    74 C    1.464    70 C    1.364   105 H    0.972
                            68 C    0.102
    74   6 C    3.987 --    73 C    1.464    67 C    1.385   106 H    0.971
                            69 C    0.102
    75   6 C    3.913 --    66 C    1.321    78 N    1.227    76 C    1.178
    76   6 C    3.960 --    77 C    1.647    75 C    1.178   107 H    0.973
    77   6 C    3.962 --    76 C    1.647    79 C    1.186   108 H    0.974
    78   7 N    3.297 --    79 C    1.261    75 C    1.227    59 Zn   0.455
    79   6 C    3.902 --    78 N    1.261    80 C    1.256    77 C    1.186
    80   6 C    3.939 --    81 C    1.257    79 C    1.256   120 C    1.186
    81   6 C    3.902 --    85 N    1.261    80 C    1.257    82 C    1.186
    82   6 C    3.962 --    83 C    1.647    81 C    1.186   109 H    0.974
    83   6 C    3.960 --    82 C    1.647    84 C    1.178   110 H    0.973
    84   6 C    3.913 --    86 C    1.321    85 N    1.228    83 C    1.178
    85   7 N    3.297 --    81 C    1.261    84 C    1.228    59 Zn   0.455
    86   6 C    3.932 --    84 C    1.321    95 C    1.313    87 C    1.031
    87   6 C    3.963 --    94 C    1.385    88 C    1.384    86 C    1.031
    88   6 C    3.987 --    89 C    1.464    87 C    1.384   111 H    0.971
                            93 C    0.102
    89   6 C    3.993 --    88 C    1.464    90 C    1.363   112 H    0.972
                            94 C    0.102
    90   6 C    3.984 --    93 C    1.364    89 C    1.363    91 C    1.099
    91   6 C    3.957 --    92 N    2.819    90 C    1.099
    92   7 N    2.972 --    91 C    2.819
    93   6 C    3.993 --    94 C    1.464    90 C    1.364   113 H    0.972
                            88 C    0.102
    94   6 C    3.987 --    93 C    1.464    87 C    1.385   114 H    0.971
                            89 C    0.102
    95   6 C    3.918 --    86 C    1.313    99 N    1.245    96 C    1.171
    96   6 C    3.963 --    97 C    1.660    95 C    1.171   115 H    0.973
    97   6 C    3.960 --    96 C    1.660    98 C    1.170   116 H    0.975
    98   6 C    3.921 --    60 C    1.358    99 N    1.232    97 C    1.170
    99   7 N    3.294 --    95 C    1.245    98 C    1.232    59 Zn   0.460
   100   1 H    1.001 --    60 C    0.971
   101   1 H    0.998 --    62 C    0.975
   102   1 H    1.004 --    63 C    0.973
   103   1 H    1.004 --    68 C    0.971
   104   1 H    1.000 --    69 C    0.972
   105   1 H    1.000 --    73 C    0.972
   106   1 H    1.004 --    74 C    0.971
   107   1 H    1.004 --    76 C    0.973
   108   1 H    1.002 --    77 C    0.974
   109   1 H    1.002 --    82 C    0.974
   110   1 H    1.004 --    83 C    0.973
   111   1 H    1.004 --    88 C    0.971
   112   1 H    1.000 --    89 C    0.972
   113   1 H    1.000 --    93 C    0.972
   114   1 H    1.004 --    94 C    0.971
   115   1 H    1.004 --    96 C    0.973
   116   1 H    0.998 --    97 C    0.975
   117   6 C    3.934 --   118 C    2.479   119 C    1.305
   118   6 C    3.924 --   117 C    2.479    22 C    1.186   120 C    0.199
   119   6 C    3.934 --   120 C    2.479   117 C    1.305
   120   6 C    3.924 --   119 C    2.479    80 C    1.186   118 C    0.199
 ---------------------------------------------------------------------------

           -------------------------------------------------
          | TOTAL ENERGY             -210.163094910654 Eh   |
          | GRADIENT NORM               0.000510503001 Eh/α |
          | HOMO-LUMO GAP               1.134922063687 eV   |
           -------------------------------------------------

 * finished run on 2022/07/30 at 16:25:54.983
