   * xtb version 6.5.1 (b24c23e) compiled by 'conda@728c89f4b128' on 2022-07-12
          program call               : xtb Ni_Py_C2_4.xyz --gfn 1 --opt -T 48

   ID    Z sym.   atoms
    1   28 Ni     1, 55, 115, 168
    2    6 C      2-6, 8-11, 13-17, 19-24, 26-29, 31-36, 56-60, 62-65, 67-71,
                  73-78, 80-83, 85-90, 109-114, 116-120, 122-125, 127-131,
                  133-138, 140-143, 145-150, 169-173, 175-178, 180-184,
                  186-191, 193-196, 198-203
    3    7 N      7, 12, 18, 25, 30, 37, 61, 66, 72, 79, 84, 91, 121, 126,
                  132, 139, 144, 151, 174, 179, 185, 192, 197, 204
    4    1 H      38-54, 92-108, 152-167, 205-220

          :  Hamiltonian                  GFN1-xTB          :
 * total energy  :  -394.2787555 Eh     change       -0.2714671E-07 Eh
 * total energy  :  -394.4728892 Eh     change       -0.1941337E+00 Eh
 * total energy  :  -394.6030517 Eh     change       -0.1301625E+00 Eh
 * total energy  :  -394.6766771 Eh     change       -0.7362542E-01 Eh
 * total energy  :  -394.7259349 Eh     change       -0.4925779E-01 Eh
 * total energy  :  -394.7547761 Eh     change       -0.2884119E-01 Eh
 * total energy  :  -394.7788907 Eh     change       -0.2411462E-01 Eh
 * total energy  :  -394.7983845 Eh     change       -0.1949378E-01 Eh
 * total energy  :  -394.8139412 Eh     change       -0.1555665E-01 Eh
 * total energy  :  -394.8263538 Eh     change       -0.1241267E-01 Eh
 * total energy  :  -394.8840616 Eh     change       -0.1143079E-04 Eh
 * total energy  :  -394.8840710 Eh     change       -0.9335628E-05 Eh
 * total energy  :  -394.8840792 Eh     change       -0.8224642E-05 Eh
 * total energy  :  -394.8840873 Eh     change       -0.8127147E-05 Eh
 * total energy  :  -394.8840945 Eh     change       -0.7197321E-05 Eh
 * total energy  :  -394.8841011 Eh     change       -0.6551367E-05 Eh
 * total energy  :  -394.8841076 Eh     change       -0.6550528E-05 Eh
 * total energy  :  -394.8841137 Eh     change       -0.6035372E-05 Eh
 * total energy  :  -394.8841179 Eh     change       -0.4205770E-05 Eh
   *** GEOMETRY OPTIMIZATION CONVERGED AFTER 56 ITERATIONS ***

 final structure:
================
220
 xtb: 6.5.1 (b24c23e)
Ni          40.98982678534208       -0.02323850414252       -0.02575011137334
C           37.59929955001094       -0.05201325629402       -0.06451320699578
C           38.25681947735792       -1.26448167013253       -0.05202476690761
C           37.58493369259064       -2.52825721695068       -0.04757650797904
C           38.54147497341995       -3.47602413449289        0.08679966280597
C           39.79898565295710       -2.79040760850431        0.15709875808557
N           39.61498014712789       -1.43457157277315        0.04869852443954
C           41.01021611243330       -3.41938897872109        0.41243678534386
C           41.02046113002614       -4.89019376594949        0.59987676163973
C           41.34488369670780       -5.46125236437802        1.82925106366419
C           41.33826948329597       -6.84173056292184        1.95452517082762
N           41.03963658731436       -7.65874766567297        0.94969055047961
C           40.73212315150651       -7.12157639819277       -0.22641742279914
C           40.70644189305536       -5.75355500869751       -0.44838787029812
C           42.21285537017434       -2.73092848153162        0.49626281149926
C           43.47544443772411       -3.36246995435955        0.73541123207319
C           44.42248069920701       -2.40183021558941        0.61545470824368
N           42.38579463460083       -1.38780988444329        0.25026200695371
C           43.73878443232159       -1.18813596755417        0.29780886150514
C           44.39826379532441       -0.00076732624133       -0.02463388539374
C           43.72217820277749        1.17971182940890       -0.33689122738023
C           44.38648358266241        2.39818563036954       -0.67617819935088
C           43.42720289496956        3.34904674525125       -0.77872804096312
C           42.17858777607319        2.70857073241152       -0.49506819556140
N           42.36822049509138        1.36549201079249       -0.26446051711323
C           40.96437448809225        3.37892237927523       -0.42447717364123
C           40.95776315278368        4.85161190317178       -0.58296001110677
C           40.27371295811378        5.46610061688469       -1.63100902080319
C           40.29900867882576        6.84795590390187       -1.73572478724185
N           40.94513899277992        7.62793068220437       -0.87515767063489
C           41.59838188383087        7.05009922214913        0.12784995445384
C           41.63646687356714        5.67708971807959        0.31276008652555
C           39.75754217183997        2.72408528271640       -0.21603746713447
C           38.49164480052232        3.38978221906740       -0.11381173000924
C           37.54732630821310        2.42432003968181       -0.02473795686942
C           38.23737826652434        1.17086183102886       -0.05641207028575
N           39.59381382672255        1.36357629966994       -0.13757257774815
H           36.51562901858620       -0.06057728612738       -0.07246191184596
H           36.51646325292189       -2.65209092377269       -0.12429653743239
H           38.41919576793710       -4.54503852028622        0.14996640470730
H           41.58525696806331       -4.83320458353970        2.67874101009835
H           41.58317268290093       -7.31085517787514        2.90293764034095
H           40.49535654372582       -7.81501551126109       -1.02807969648117
H           40.45962808075641       -5.36003143327331       -1.42723187177102
H           43.61077336595045       -4.41013372649485        0.94861521307817
H           45.49192024804833       -2.49544887931936        0.71399724573084
H           45.45149936422887        2.49943356550098       -0.80939354823847
H           43.54356838440118        4.39119986442387       -1.02742788119691
H           39.74265978370359        4.86940367796117       -2.36305770746295
H           39.77765468072914        7.34930301279761       -2.54590011490731
H           42.11445794774387        7.71394140118062        0.81528175340996
H           42.17355204431815        5.25021531513366        1.15139667345988
H           38.35699462751485        4.45917628006189       -0.11056897294154
H           36.47735386359613        2.53054491982459        0.05724082914651
Ni          73.56273228243302        0.04859395490416       -0.01347079298212
C           76.95755937012861        0.05937846361690       -0.05157974926090
C           76.30332376024275        1.22373225037800       -0.39528614078696
C           76.98097971236604        2.43144123914537       -0.75684622222879
C           76.02629801767436        3.37393636710402       -0.93350416208323
C           74.76482978913354        2.73853201564333       -0.68646200368214
N           74.94444972630548        1.41458582467485       -0.37205008975815
C           73.55051755972896        3.41094747066595       -0.67659818952308
C           73.54361822489687        4.86747955454058       -0.95503616676584
C           73.19171161413249        5.78945162218628        0.02932655347759
C           73.20330907035947        7.14115286240615       -0.27733049359486
N           73.53180783781828        7.60866448570084       -1.47730787737704
C           73.86546484673080        6.73538314205536       -2.42190097714877
C           73.88886896754961        5.36565237629439       -2.21011110080668
C           72.34190924457522        2.77999743001048       -0.41649570026090
C           71.07939879720865        3.45463928057318       -0.42420220821533
C           70.12983017432455        2.50777703851405       -0.23638409339627
N           72.16587134901914        1.42975801774374       -0.21389400172459
C           70.81122512779994        1.25748505616298       -0.12425864018714
C           70.14743435864000        0.03536162113507        0.00213193521230
C           70.82211311460209       -1.18023300103149        0.13298338693376
C           70.15429737544937       -2.43920220569466        0.22658911958346
C           71.11306347587197       -3.37653703144413        0.41725481684676
C           72.36612921767627       -2.68523643568029        0.44319230050517
N           72.17797615905262       -1.33807743999946        0.23320943161169
C           73.58448086803857       -3.31005185480945        0.67352127602844
C           73.59156125618979       -4.76205026011677        0.96800370093193
C           74.23095974806412       -5.66873547188735        0.12355896994056
C           74.20793117840304       -7.01801905549943        0.43973470611459
N           73.60503859975711       -7.49797020156495        1.52260551703593
C           72.99494749081002       -6.63997148858655        2.33389217478781
C           72.95841895857411       -5.27438124819420        2.09965545720606
C           74.79581555177356       -2.63271647115795        0.63315725826747
C           76.06357317628402       -3.24648572706030        0.90162023514228
C           77.00866078647643       -2.30100344790201        0.69153648908686
C           76.31738206338829       -1.10828282633161        0.30701480802636
N           74.95995598902013       -1.31106811276034        0.30130837733469
H           78.04127260529017        0.06380457222451       -0.05812776746111
H           78.05126738486796        2.52758503787734       -0.84673994410494
H           76.15148115206350        4.41227764258821       -1.19405023890219
H           72.92602369227426        5.45358714504528        1.02455092548755
H           72.93726479844472        7.87953393822488        0.47338259539021
H           74.12607751310468        7.14804625578319       -3.39213482751744
H           74.15804428656622        4.68979852888993       -3.01298328531005
H           70.94645942372948        4.51427131928067       -0.56833844602939
H           69.06054874488638        2.63047366017545       -0.18144432507411
H           69.08805416729980       -2.57537890269594        0.14858202117772
H           70.99335873647459       -4.44229612779032        0.52293250699180
H           74.72579739706916       -5.32376823337939       -0.77649562335767
H           74.69467022407383       -7.74402756512718       -0.20490426321018
H           72.51363585533669       -7.06233790451256        3.21111540438968
H           72.45742095241083       -4.61086352405406        2.79444685409658
H           76.19844408152404       -4.26929481495491        1.21369669677097
H           78.07987507184536       -2.38291381519337        0.78446208485611
C           45.80863081166061        0.00689901903239       -0.03230231519476
C           47.02387093716188        0.01136606981689       -0.03622971975467
C           56.66776100670543        0.01172359767341       -0.03539409234307
C           57.88385892622219        0.00574097296683       -0.03506322170882
C           67.52133232811053        0.01983053748353       -0.01081213126108
C           68.73729217863738        0.02853560574935       -0.00406447369312
Ni          51.84603822715097        0.00894615440410       -0.03989566600927
C           48.43381077993629        0.01245141384973       -0.03780474491502
C           49.10362761320497       -0.76577924446930        0.90814792365470
C           48.43569064521624       -1.52382452017232        1.91763814272427
C           49.39060154264768       -2.22976958381662        2.57010989999957
C           50.63885556478546       -1.90686794358640        1.94898471828050
N           50.45552365771913       -0.97148230180907        0.95676022369839
C           51.84551555095430       -2.51516010785171        2.26955103499064
C           51.84627008674853       -3.60313158301178        3.27399464378721
C           51.11855066718389       -4.77561240171026        3.07399643968413
C           51.14996418348990       -5.76381729291267        4.04530558084729
N           51.84172634196999       -5.64803411881515        5.17432486690091
C           52.53688270885137       -4.53286429635604        5.37343790476195
C           52.57301611553608       -3.49209323811178        4.45891063422101
C           53.05111957577126       -2.14397669988809        1.68926759317496
C           54.29766528286731       -2.79687333561727        1.94933209256196
C           55.25259267834500       -2.08702755103343        1.30105710478302
N           53.23595347299675       -1.07129311927080        0.84693422788084
C           54.58733145037758       -1.00796542251415        0.64349236179442
C           55.25957802049442        0.01145632757705       -0.03560654351525
C           54.58732366366770        1.02916047012311       -0.71722549054034
C           55.25255495640620        2.10773411326146       -1.37554939340310
C           54.29856373279442        2.81217441521041       -2.03116918779150
C           53.05257048310086        2.15714864563123       -1.77385973090415
N           53.23657280779839        1.08869253108542       -0.92605272117327
C           51.84809496801302        2.52301526543557       -2.36026870407130
C           51.85255085635562        3.60408185512401       -3.37202749189867
C           52.58981414748592        3.48778878597224       -4.54997913222606
C           52.56049516839946        4.52357883534636       -5.47037153930401
N           51.86190924626689        5.63872974325181       -5.28357366302411
C           51.15924006108610        5.75914618490671       -4.16185384409955
C           51.12079587077588        4.77628915262390       -3.18538266208384
C           50.64077729815403        1.91736181728979       -2.03689894712165
C           49.39240317242976        2.23928315566620       -2.65839410979070
C           48.43632494056441        1.54151418109444       -1.99879458459261
C           49.10379372068720        0.78742045525329       -0.98614265900149
N           50.45628800296705        0.98884131287041       -1.03825691277448
H           47.37248153708642       -1.50642555180152        2.09479730571562
H           49.27071603116275       -2.90634447408028        3.40032697502420
H           50.54867850747618       -4.91802359550311        2.16351809526062
H           50.59485997491205       -6.68751908410095        3.91054240282039
H           53.08958858105002       -4.46722798071037        6.30607130632965
H           53.14479207726894       -2.59594837115725        4.66860663021636
H           54.41593486016792       -3.68604295501354        2.54669877947675
H           56.31430334441248       -2.26837898791421        1.26111328177256
H           56.31359989006669        2.29218457930330       -1.33147145077528
H           54.41740028840208        3.69939482827983       -2.63131617429460
H           53.16494784796905        2.59151662633233       -4.74972442378396
H           53.12222523547389        4.45396850319638       -6.39727231284131
H           50.60139126975164        6.68261163349013       -4.03722266512430
H           50.54292670182058        4.92311321534146       -2.28070674422511
H           49.27306860707827        2.90980869047898       -3.49357651065494
H           47.37259924897638        1.52668814724721       -2.17324123745930
Ni          62.70162045096699        0.00132817600103       -0.03498466553715
C           59.29181106380956        0.00299490305010       -0.03624906337058
C           59.96509885915047       -0.71411197258483        0.95652107682503
C           59.30556771658297       -1.40801579549995        2.01620036813014
C           60.26025088896311       -2.10324796836228        2.68111083833300
C           61.50088505370981       -1.83554833104852        2.01996488534648
N           61.31414089765235       -0.93810611031931        0.99368322730273
C           62.70066660960463       -2.46393077092793        2.32794397154210
C           62.69997531147762       -3.52994314996125        3.35498729512289
C           61.92883147979355       -4.68176161797522        3.20234322268281
C           61.96301015014438       -5.65337281585912        4.19008310770377
N           62.69730207576225       -5.54028127990666        5.29216043813027
C           63.43259577448134       -4.44394948273861        5.44716020644733
C           63.46927061878688       -3.42085441965406        4.51300700514478
C           63.90121759024017       -2.12952901864705        1.71405293396757
C           65.14418065532597       -2.79127949522916        1.96823854995418
C           66.10026041552950       -2.09213712067323        1.30973220039267
N           64.08825974837005       -1.06892507318488        0.85758240171753
C           65.43908898455223       -1.01521121670904        0.64471171433702
C           66.11207029590898        0.01399822625466       -0.01928091899433
C           65.43772379566923        1.03557025920359       -0.69351579483947
C           66.09645194807356        2.11429020964241       -1.35782840603717
C           65.14167459251202        2.79981653794093       -2.03240696451360
C           63.90184784818082        2.12907919267595       -1.78708772039316
N           64.08873219107466        1.07609667732336       -0.92145739743480
C           62.70419156396078        2.45238685826319       -2.41281594022306
C           62.70880747046827        3.50856087512054       -3.44998701913641
C           63.48959424213918        3.38949918029404       -4.59939022630304
C           63.46064282623423        4.40329342329282       -5.54382913084696
N           62.72216408462004        5.49989425458489       -5.40670152362693
C           61.97706598383181        5.62252999559122       -4.31299825316079
C           61.93463062913614        4.66060041990560       -3.31603628966698
C           61.50422202788113        1.82480226012561       -2.10441838033953
C           60.26414578803058        2.08987076398494       -2.76759578590089
C           59.30774314021927        1.40310396449573       -2.09628343549701
C           59.96605755248174        0.71499427664247       -1.03214700692425
N           61.31559575330174        0.93524014648642       -1.07135076504766
H           58.24744581993811       -1.35941381323614        2.21568822548277
H           60.14521048308084       -2.73803183231668        3.54443210957526
H           61.32376863480022       -4.82201339969909        2.31453293909319
H           61.37511998575108       -6.56122064682787        4.09138602298442
H           64.01922343568539       -4.37972966721358        6.35890865880896
H           64.07459491577026       -2.53926041462485        4.68727450936946
H           65.26093979644713       -3.67544650813079        2.57325241272505
H           67.16181519043074       -2.27503101620906        1.27570994403839
H           67.15572949106841        2.30758552410563       -1.31335331484443
H           65.25749656994689        3.68103867807399       -2.64186366421201
H           64.09834988052678        2.50743710968682       -4.75868422313686
H           64.05649015550803        4.33122618032582       -6.44898347635370
H           61.38724044216208        6.53059821762282       -4.22878953393933
H           61.32130324410671        4.80911689609305       -2.43527701024183
H           60.15005955856137        2.71826919062216       -3.63569938291839
H           58.24932225407873        1.35610494944805       -2.29471326203170

          :  Hamiltonian                  GFN1-xTB          :
         :: total energy            -394.884117879738 Eh    ::
         :: gradient norm              0.000592020552 Eh/a0 ::
         :: HOMO-LUMO gap              0.979447075376 eV    ::
         :: SCC energy              -400.929196975065 Eh    ::
         :: repulsion energy           6.257815847363 Eh    ::

    * Orbital Energies and Occupations

         #    Occupation            Energy/Eh            Energy/eV
      -------------------------------------------------------------
         1        2.0000           -0.7897686             -21.4907
       ...           ...                  ...                  ...
       353        2.0000           -0.4044158             -11.0047
       354        2.0000           -0.4043642             -11.0033
       355        2.0000           -0.4043228             -11.0022
       356        2.0000           -0.4042863             -11.0012
       357        2.0000           -0.4042422             -11.0000
       358        2.0000           -0.4041429             -10.9973
       359        2.0000           -0.4032858             -10.9740
       360        2.0000           -0.4032375             -10.9727
       361        2.0000           -0.4032060             -10.9718
       362        2.0000           -0.4031675             -10.9707
       363        2.0000           -0.4020038             -10.9391
       364        2.0000           -0.3949282             -10.7465
       365        2.0000           -0.3882574             -10.5650 (HOMO)
       366                         -0.3522634              -9.5856 (LUMO)
       367                         -0.3441457              -9.3647
       368                         -0.3387002              -9.2165
       369                         -0.3386499              -9.2151
       370                         -0.3374560              -9.1826
       371                         -0.3373287              -9.1792
       372                         -0.3367767              -9.1642
       373                         -0.3357511              -9.1363
       374                         -0.3355793              -9.1316
       375                         -0.3350514              -9.1172
       376                         -0.3348739              -9.1124
       ...                                ...                  ...
       768                          1.3386137              36.4255
      -------------------------------------------------------------
                  HL-Gap            0.0359940 Eh            0.9794 eV

Wiberg/Mayer (AO) data.
largest (>0.10) Wiberg bond orders for each atom

     #   Z sym  total        # sym  WBO       # sym  WBO       # sym  WBO
 ---------------------------------------------------------------------------
     1  28 Ni   3.018 --    37 N    0.665     7 N    0.665    18 N    0.662
                            25 N    0.662
     2   6 C    3.936 --     3 C    1.364    36 C    1.364    38 H    0.970
     3   6 C    3.923 --     2 C    1.364     7 N    1.213     4 C    1.174
     4   6 C    3.960 --     5 C    1.651     3 C    1.174    39 H    0.975
     5   6 C    3.963 --     4 C    1.651     6 C    1.175    40 H    0.972
     6   6 C    3.920 --     8 C    1.325     7 N    1.220     5 C    1.175
     7   7 N    3.403 --     6 C    1.220     3 C    1.213     1 Ni   0.665
     8   6 C    3.940 --    15 C    1.329     6 C    1.325     9 C    1.022
     9   6 C    3.986 --    10 C    1.395    14 C    1.395     8 C    1.022
                            12 N    0.107
    10   6 C    3.988 --    11 C    1.441     9 C    1.395    41 H    0.973
                            13 C    0.109
    11   6 C    3.972 --    10 C    1.441    12 N    1.416    42 H    0.972
                            14 C    0.109
    12   7 N    3.031 --    13 C    1.416    11 C    1.416     9 C    0.107
    13   6 C    3.972 --    14 C    1.441    12 N    1.416    43 H    0.972
                            10 C    0.109
    14   6 C    3.988 --    13 C    1.441     9 C    1.395    44 H    0.973
                            11 C    0.109
    15   6 C    3.916 --     8 C    1.329    18 N    1.207    16 C    1.182
    16   6 C    3.960 --    17 C    1.638    15 C    1.182    45 H    0.972
    17   6 C    3.962 --    16 C    1.638    19 C    1.189    46 H    0.972
    18   7 N    3.407 --    19 C    1.235    15 C    1.207     1 Ni   0.662
    19   6 C    3.911 --    20 C    1.272    18 N    1.235    17 C    1.189
    20   6 C    3.945 --    21 C    1.273    19 C    1.272   109 C    1.162
    21   6 C    3.911 --    20 C    1.273    25 N    1.234    22 C    1.189
    22   6 C    3.962 --    23 C    1.637    21 C    1.189    47 H    0.972
    23   6 C    3.960 --    22 C    1.637    24 C    1.183    48 H    0.973
    24   6 C    3.916 --    26 C    1.326    25 N    1.209    23 C    1.183
    25   7 N    3.406 --    21 C    1.234    24 C    1.209     1 Ni   0.662
    26   6 C    3.940 --    24 C    1.326    33 C    1.323    27 C    1.028
    27   6 C    3.986 --    28 C    1.393    32 C    1.393    26 C    1.028
                            30 N    0.107
    28   6 C    3.987 --    29 C    1.442    27 C    1.393    49 H    0.973
                            31 C    0.109
    29   6 C    3.972 --    28 C    1.442    30 N    1.416    50 H    0.972
                            32 C    0.109
    30   7 N    3.030 --    29 C    1.416    31 C    1.416    27 C    0.107
    31   6 C    3.972 --    32 C    1.442    30 N    1.416    51 H    0.972
                            28 C    0.109
    32   6 C    3.987 --    31 C    1.442    27 C    1.393    52 H    0.973
                            29 C    0.109
    33   6 C    3.921 --    26 C    1.323    37 N    1.221    34 C    1.176
    34   6 C    3.963 --    35 C    1.650    33 C    1.176    53 H    0.972
    35   6 C    3.960 --    34 C    1.650    36 C    1.174    54 H    0.975
    36   6 C    3.923 --     2 C    1.364    37 N    1.213    35 C    1.174
    37   7 N    3.403 --    33 C    1.221    36 C    1.213     1 Ni   0.665
    38   1 H    1.000 --     2 C    0.970
    39   1 H    0.997 --     4 C    0.975
    40   1 H    1.004 --     5 C    0.972
    41   1 H    1.003 --    10 C    0.973
    42   1 H    1.013 --    11 C    0.972
    43   1 H    1.013 --    13 C    0.972
    44   1 H    1.003 --    14 C    0.973
    45   1 H    1.004 --    16 C    0.972
    46   1 H    1.003 --    17 C    0.972
    47   1 H    1.003 --    22 C    0.972
    48   1 H    1.004 --    23 C    0.973
    49   1 H    1.004 --    28 C    0.973
    50   1 H    1.013 --    29 C    0.972
    51   1 H    1.013 --    31 C    0.972
    52   1 H    1.004 --    32 C    0.973
    53   1 H    1.004 --    34 C    0.972
    54   1 H    0.997 --    35 C    0.975
    55  28 Ni   3.011 --    91 N    0.664    61 N    0.664    72 N    0.662
                            79 N    0.661
    56   6 C    3.935 --    57 C    1.364    90 C    1.364    92 H    0.970
    57   6 C    3.923 --    56 C    1.364    61 N    1.214    58 C    1.174
    58   6 C    3.960 --    59 C    1.651    57 C    1.174    93 H    0.975
    59   6 C    3.963 --    58 C    1.651    60 C    1.176    94 H    0.972
    60   6 C    3.920 --    62 C    1.325    61 N    1.221    59 C    1.176
    61   7 N    3.403 --    60 C    1.221    57 C    1.214    55 Ni   0.664
    62   6 C    3.939 --    69 C    1.329    60 C    1.325    63 C    1.022
    63   6 C    3.986 --    68 C    1.395    64 C    1.395    62 C    1.022
                            66 N    0.107
    64   6 C    3.988 --    65 C    1.441    63 C    1.395    95 H    0.973
                            67 C    0.109
    65   6 C    3.972 --    64 C    1.441    66 N    1.416    96 H    0.972
                            68 C    0.109
    66   7 N    3.032 --    67 C    1.416    65 C    1.416    63 C    0.107
    67   6 C    3.972 --    68 C    1.441    66 N    1.416    97 H    0.972
                            64 C    0.109
    68   6 C    3.988 --    67 C    1.441    63 C    1.395    98 H    0.973
                            65 C    0.109
    69   6 C    3.916 --    62 C    1.329    72 N    1.207    70 C    1.183
    70   6 C    3.959 --    71 C    1.637    69 C    1.183    99 H    0.972
    71   6 C    3.962 --    70 C    1.637    73 C    1.190   100 H    0.969
    72   7 N    3.406 --    73 C    1.237    69 C    1.207    55 Ni   0.662
    73   6 C    3.909 --    74 C    1.270    72 N    1.237    71 C    1.190
    74   6 C    3.944 --    75 C    1.270    73 C    1.270   114 C    1.167
    75   6 C    3.909 --    74 C    1.270    79 N    1.236    76 C    1.191
    76   6 C    3.962 --    77 C    1.636    75 C    1.191   101 H    0.970
    77   6 C    3.959 --    76 C    1.636    78 C    1.184   102 H    0.973
    78   6 C    3.916 --    80 C    1.326    79 N    1.208    77 C    1.184
    79   7 N    3.406 --    75 C    1.236    78 C    1.208    55 Ni   0.661
    80   6 C    3.939 --    78 C    1.326    87 C    1.323    81 C    1.027
    81   6 C    3.986 --    86 C    1.393    82 C    1.393    80 C    1.027
                            84 N    0.107
    82   6 C    3.987 --    83 C    1.442    81 C    1.393   103 H    0.973
                            85 C    0.109
    83   6 C    3.972 --    82 C    1.442    84 N    1.416   104 H    0.972
                            86 C    0.109
    84   7 N    3.030 --    83 C    1.416    85 C    1.416    81 C    0.107
    85   6 C    3.972 --    86 C    1.442    84 N    1.416   105 H    0.972
                            82 C    0.109
    86   6 C    3.987 --    85 C    1.442    81 C    1.393   106 H    0.973
                            83 C    0.109
    87   6 C    3.921 --    80 C    1.323    91 N    1.221    88 C    1.176
    88   6 C    3.963 --    89 C    1.650    87 C    1.176   107 H    0.973
    89   6 C    3.960 --    88 C    1.650    90 C    1.174   108 H    0.975
    90   6 C    3.923 --    56 C    1.364    91 N    1.213    89 C    1.174
    91   7 N    3.402 --    87 C    1.221    90 C    1.213    55 Ni   0.664
    92   1 H    1.000 --    56 C    0.970
    93   1 H    0.997 --    58 C    0.975
    94   1 H    1.004 --    59 C    0.972
    95   1 H    1.003 --    64 C    0.973
    96   1 H    1.013 --    65 C    0.972
    97   1 H    1.013 --    67 C    0.972
    98   1 H    1.003 --    68 C    0.973
    99   1 H    1.004 --    70 C    0.972
   100   1 H    1.005 --    71 C    0.969
   101   1 H    1.005 --    76 C    0.970
   102   1 H    1.004 --    77 C    0.973
   103   1 H    1.004 --    82 C    0.973
   104   1 H    1.013 --    83 C    0.972
   105   1 H    1.013 --    85 C    0.972
   106   1 H    1.004 --    86 C    0.973
   107   1 H    1.004 --    88 C    0.973
   108   1 H    0.997 --    89 C    0.975
   109   6 C    3.933 --   110 C    2.591    20 C    1.162
   110   6 C    3.936 --   109 C    2.591   116 C    1.164
   111   6 C    3.934 --   112 C    2.583   134 C    1.173
   112   6 C    3.935 --   111 C    2.583   169 C    1.173
   113   6 C    3.937 --   114 C    2.588   187 C    1.169
   114   6 C    3.934 --   113 C    2.588    74 C    1.167
   115  28 Ni   3.006 --   139 N    0.661   132 N    0.661   151 N    0.660
                           121 N    0.660
   116   6 C    3.934 --   150 C    1.271   117 C    1.270   110 C    1.164
   117   6 C    3.911 --   116 C    1.270   121 N    1.235   118 C    1.191
   118   6 C    3.960 --   119 C    1.634   117 C    1.191   152 H    0.972
   119   6 C    3.960 --   118 C    1.634   120 C    1.185   153 H    0.973
   120   6 C    3.914 --   122 C    1.323   121 N    1.208   119 C    1.185
   121   7 N    3.399 --   117 C    1.235   120 C    1.208   115 Ni   0.660
   122   6 C    3.935 --   129 C    1.325   120 C    1.323   123 C    1.029
   123   6 C    3.986 --   124 C    1.392   128 C    1.392   122 C    1.029
                           126 N    0.106
   124   6 C    3.987 --   125 C    1.442   123 C    1.392   154 H    0.973
                           127 C    0.109
   125   6 C    3.972 --   124 C    1.442   126 N    1.416   155 H    0.972
                           128 C    0.109
   126   7 N    3.030 --   127 C    1.416   125 C    1.416   123 C    0.106
   127   6 C    3.972 --   128 C    1.442   126 N    1.416   156 H    0.972
                           124 C    0.109
   128   6 C    3.987 --   127 C    1.442   123 C    1.392   157 H    0.973
                           125 C    0.109
   129   6 C    3.915 --   122 C    1.325   132 N    1.206   130 C    1.185
   130   6 C    3.960 --   131 C    1.634   129 C    1.185   158 H    0.973
   131   6 C    3.960 --   130 C    1.634   133 C    1.192   159 H    0.971
   132   7 N    3.399 --   133 C    1.237   129 C    1.206   115 Ni   0.661
   133   6 C    3.909 --   134 C    1.266   132 N    1.237   131 C    1.192
   134   6 C    3.936 --   135 C    1.266   133 C    1.266   111 C    1.173
   135   6 C    3.909 --   134 C    1.266   139 N    1.237   136 C    1.192
   136   6 C    3.960 --   137 C    1.633   135 C    1.192   160 H    0.971
   137   6 C    3.960 --   136 C    1.633   138 C    1.185   161 H    0.973
   138   6 C    3.915 --   140 C    1.324   139 N    1.206   137 C    1.185
   139   7 N    3.400 --   135 C    1.237   138 C    1.206   115 Ni   0.661
   140   6 C    3.935 --   138 C    1.324   147 C    1.323   141 C    1.029
   141   6 C    3.986 --   146 C    1.392   142 C    1.392   140 C    1.029
                           144 N    0.106
   142   6 C    3.987 --   143 C    1.442   141 C    1.392   162 H    0.973
                           145 C    0.109
   143   6 C    3.972 --   142 C    1.442   144 N    1.416   163 H    0.972
                           146 C    0.109
   144   7 N    3.030 --   145 C    1.416   143 C    1.416   141 C    0.106
   145   6 C    3.972 --   146 C    1.442   144 N    1.416   164 H    0.972
                           142 C    0.109
   146   6 C    3.987 --   145 C    1.442   141 C    1.392   165 H    0.973
                           143 C    0.109
   147   6 C    3.914 --   140 C    1.323   151 N    1.208   148 C    1.185
   148   6 C    3.960 --   149 C    1.634   147 C    1.185   166 H    0.973
   149   6 C    3.960 --   148 C    1.634   150 C    1.191   167 H    0.972
   150   6 C    3.911 --   116 C    1.271   151 N    1.235   149 C    1.191
   151   7 N    3.399 --   150 C    1.235   147 C    1.208   115 Ni   0.660
   152   1 H    1.003 --   118 C    0.972
   153   1 H    1.004 --   119 C    0.973
   154   1 H    1.004 --   124 C    0.973
   155   1 H    1.013 --   125 C    0.972
   156   1 H    1.013 --   127 C    0.972
   157   1 H    1.004 --   128 C    0.973
   158   1 H    1.004 --   130 C    0.973
   159   1 H    1.004 --   131 C    0.971
   160   1 H    1.004 --   136 C    0.971
   161   1 H    1.004 --   137 C    0.973
   162   1 H    1.004 --   142 C    0.973
   163   1 H    1.013 --   143 C    0.972
   164   1 H    1.013 --   145 C    0.972
   165   1 H    1.004 --   146 C    0.973
   166   1 H    1.004 --   148 C    0.973
   167   1 H    1.003 --   149 C    0.972
   168  28 Ni   3.014 --   192 N    0.662   185 N    0.662   174 N    0.661
                           204 N    0.661
   169   6 C    3.935 --   170 C    1.266   203 C    1.266   112 C    1.173
   170   6 C    3.909 --   169 C    1.266   174 N    1.237   171 C    1.192
   171   6 C    3.960 --   172 C    1.633   170 C    1.192   205 H    0.971
   172   6 C    3.960 --   171 C    1.633   173 C    1.186   206 H    0.973
   173   6 C    3.914 --   175 C    1.324   174 N    1.206   172 C    1.186
   174   7 N    3.399 --   170 C    1.237   173 C    1.206   168 Ni   0.661
   175   6 C    3.935 --   173 C    1.324   182 C    1.323   176 C    1.030
   176   6 C    3.986 --   177 C    1.392   181 C    1.392   175 C    1.030
                           179 N    0.106
   177   6 C    3.987 --   178 C    1.442   176 C    1.392   207 H    0.973
                           180 C    0.109
   178   6 C    3.972 --   177 C    1.442   179 N    1.416   208 H    0.972
                           181 C    0.109
   179   7 N    3.030 --   178 C    1.416   180 C    1.416   176 C    0.106
   180   6 C    3.972 --   181 C    1.442   179 N    1.416   209 H    0.972
                           177 C    0.109
   181   6 C    3.987 --   180 C    1.442   176 C    1.392   210 H    0.973
                           178 C    0.109
   182   6 C    3.914 --   175 C    1.323   185 N    1.206   183 C    1.186
   183   6 C    3.960 --   184 C    1.633   182 C    1.186   211 H    0.973
   184   6 C    3.960 --   183 C    1.633   186 C    1.192   212 H    0.970
   185   7 N    3.399 --   186 C    1.235   182 C    1.206   168 Ni   0.662
   186   6 C    3.910 --   187 C    1.268   185 N    1.235   184 C    1.192
   187   6 C    3.935 --   188 C    1.268   186 C    1.268   113 C    1.169
   188   6 C    3.910 --   187 C    1.268   192 N    1.235   189 C    1.192
   189   6 C    3.960 --   190 C    1.633   188 C    1.192   213 H    0.970
   190   6 C    3.960 --   189 C    1.633   191 C    1.186   214 H    0.973
   191   6 C    3.914 --   193 C    1.322   192 N    1.207   190 C    1.186
   192   7 N    3.399 --   188 C    1.235   191 C    1.207   168 Ni   0.662
   193   6 C    3.935 --   200 C    1.324   191 C    1.322   194 C    1.030
   194   6 C    3.986 --   199 C    1.392   195 C    1.391   193 C    1.030
                           197 N    0.106
   195   6 C    3.987 --   196 C    1.442   194 C    1.391   215 H    0.973
                           198 C    0.109
   196   6 C    3.972 --   195 C    1.442   197 N    1.415   216 H    0.972
                           199 C    0.109
   197   7 N    3.030 --   198 C    1.416   196 C    1.415   194 C    0.106
   198   6 C    3.972 --   199 C    1.442   197 N    1.416   217 H    0.972
                           195 C    0.109
   199   6 C    3.987 --   198 C    1.442   194 C    1.392   218 H    0.973
                           196 C    0.109
   200   6 C    3.915 --   193 C    1.324   204 N    1.205   201 C    1.186
   201   6 C    3.960 --   202 C    1.633   200 C    1.186   219 H    0.973
   202   6 C    3.960 --   201 C    1.633   203 C    1.192   220 H    0.971
   203   6 C    3.909 --   169 C    1.266   204 N    1.237   202 C    1.192
   204   7 N    3.399 --   203 C    1.237   200 C    1.205   168 Ni   0.661
   205   1 H    1.004 --   171 C    0.971
   206   1 H    1.004 --   172 C    0.973
   207   1 H    1.004 --   177 C    0.973
   208   1 H    1.013 --   178 C    0.972
   209   1 H    1.013 --   180 C    0.972
   210   1 H    1.004 --   181 C    0.973
   211   1 H    1.004 --   183 C    0.973
   212   1 H    1.005 --   184 C    0.970
   213   1 H    1.005 --   189 C    0.970
   214   1 H    1.004 --   190 C    0.973
   215   1 H    1.004 --   195 C    0.973
   216   1 H    1.013 --   196 C    0.972
   217   1 H    1.013 --   198 C    0.972
   218   1 H    1.004 --   199 C    0.973
   219   1 H    1.004 --   201 C    0.973
   220   1 H    1.004 --   202 C    0.971
 ---------------------------------------------------------------------------

           -------------------------------------------------
          | TOTAL ENERGY             -394.884117879738 Eh   |
          | GRADIENT NORM               0.000592020552 Eh/α |
          | HOMO-LUMO GAP               0.979447075376 eV   |
           -------------------------------------------------

 * finished run on 2022/07/30 at 02:23:56.636
