   * xtb version 6.5.1 (b24c23e) compiled by 'conda@728c89f4b128' on 2022-07-12
          program call               : xtb Co_Ph3Me_C8_2.xyz --gfn 1 --opt -T 48

   ID    Z sym.   atoms
    1   27 Co     1, 75
    2    6 C      2-6, 8-20, 22-27, 29-42, 76-80, 82-94, 96-101, 103-116,
                  149-156
    3    7 N      7, 21, 28, 43, 81, 95, 102, 117
    4    1 H      44-74, 118-148
########################################################################
[WARNING] Please study the warnings concerning your input carefully
-1- prog_main_parseArguments: Unknown option '-T' provided
########################################################################

          :  Hamiltonian                  GFN1-xTB          :
 * total energy  :  -242.9022009 Eh     change       -0.6703971E-08 Eh
 * total energy  :  -243.3225203 Eh     change       -0.4203194E+00 Eh
 * total energy  :  -243.4136525 Eh     change       -0.9113213E-01 Eh
 * total energy  :  -243.4513594 Eh     change       -0.3770693E-01 Eh
 * total energy  :  -243.4646926 Eh     change       -0.1333324E-01 Eh
 * total energy  :  -243.4724190 Eh     change       -0.7726406E-02 Eh
 * total energy  :  -243.4771281 Eh     change       -0.4709107E-02 Eh
 * total energy  :  -243.4799321 Eh     change       -0.2803924E-02 Eh
 * total energy  :  -243.4811747 Eh     change       -0.1242620E-02 Eh
 * total energy  :  -243.4829030 Eh     change       -0.1728299E-02 Eh
 * total energy  :  -243.4873532 Eh     change       -0.1743601E-04 Eh
 * total energy  :  -243.4873640 Eh     change       -0.1089356E-04 Eh
 * total energy  :  -243.4873740 Eh     change       -0.9931271E-05 Eh
 * total energy  :  -243.4873840 Eh     change       -0.1006445E-04 Eh
 * total energy  :  -243.4873927 Eh     change       -0.8625801E-05 Eh
 * total energy  :  -243.4874018 Eh     change       -0.9094984E-05 Eh
 * total energy  :  -243.4874125 Eh     change       -0.1071348E-04 Eh
 * total energy  :  -243.4874225 Eh     change       -0.9992263E-05 Eh
 * total energy  :  -243.4874244 Eh     change       -0.1920834E-05 Eh
   *** GEOMETRY OPTIMIZATION CONVERGED AFTER 44 ITERATIONS ***

 final structure:
================
156
 xtb: 6.5.1 (b24c23e)
Co          13.23887016771025        0.04633317231733       -0.01215151417567
C            9.85013856489948        0.11270676397007       -0.03637230792540
C           10.51872177165848        1.12866609429389        0.61114770973547
C            9.86045353311226        2.21568233955681        1.27073174667609
C           10.82898216753950        3.07931945221734        1.65534729751898
C           12.07645212187232        2.51710564777953        1.22836648523740
N           11.88053793485098        1.29968192256784        0.62791974368684
C           13.28731579523874        3.18452139244920        1.32099311812859
C           13.30580163424555        4.56387418115608        1.88285037655238
C           13.09676074926374        5.66009079130489        1.04127169764750
C           12.85452809679160        5.44351617456645       -0.42869258844976
C           13.11305285614286        6.94336492028346        1.57516672453719
C           13.33183382014502        7.14965488276069        2.93315986555536
C           13.36555401094038        8.54397396265345        3.49822028093271
C           13.53916733994936        6.05075019013776        3.76094558448761
C           13.52847185516679        4.75874265940360        3.24899205159724
C           13.75109660832909        3.57384798048005        4.15048246656004
C           14.47713157437544        2.61748068172118        0.90035445649460
C           15.73949931308263        3.28914985412619        0.96813823941140
C           16.68144804688487        2.38362319832478        0.61132642298688
N           14.64124486939662        1.31988727227524        0.47033785594348
C           15.99114195159676        1.16448103258378        0.32881424315099
C           16.64661458690889       -0.03922086537332        0.05502367195819
C           15.94586630832797       -1.21318214345550       -0.23308195463888
C           16.58888047115325       -2.46194696394822       -0.49752170440212
C           15.61660455458978       -3.32731072340839       -0.87198007602359
C           14.38350452734769       -2.60063971548093       -0.83657243725302
N           14.59312404264032       -1.31183296896614       -0.39864756303633
C           13.18231991779442       -3.11350390603903       -1.29248097404118
C           13.15229012961948       -4.49199676400090       -1.85607468296377
C           13.41425555376606       -4.69688921808767       -3.21426739307880
C           13.73069897782385       -3.52425324326433       -4.10370740494563
C           13.37786065628982       -5.98688599783336       -3.72861194478291
C           13.08607985285664       -7.07524403725503       -2.91115400671668
C           13.03985287834636       -8.46272102097594       -3.49207467618758
C           12.82684212829655       -6.85906426667804       -1.56263054911239
C           12.85631540111821       -5.57646807355961       -1.02618683274415
C           12.57035163649982       -5.34928727509758        0.43426272588432
C           12.00135456642303       -2.38986836969818       -1.23941701521242
C           10.74370511729533       -2.89216630503109       -1.70893728207688
C            9.80404582684579       -1.98604737203449       -1.35085110238206
C           10.49029165639690       -0.93245253384381       -0.66624019707786
N           11.84174575001998       -1.16927045914404       -0.63540497734325
H            8.76688759110336        0.13766677694728       -0.05230984185230
H            8.79266020914764        2.29388184072249        1.40019652498119
H           10.72845309261628        4.02094738551482        2.17075741003729
H           11.94590455445709        4.85739507930592       -0.57970645052828
H           13.68477433974857        4.89172342214807       -0.87325679230802
H           12.74687841817782        6.39427230787031       -0.94984172052074
H           12.95041018895092        7.79445291940364        0.92198868750421
H           12.97516334264487        8.55940452917718        4.51619827460592
H           14.39479111522919        8.90944822888419        3.52467323790078
H           12.77819368710197        9.22705880286497        2.88432918184624
H           13.70987898812937        6.20275409833919        4.82171510468859
H           14.63557664300459        3.01800015907941        3.83363214498461
H           13.88975458042631        3.89117846703397        5.18353463785354
H           12.89688400250755        2.89585331995631        4.10367737535934
H           15.87004972909393        4.31814884371865        1.26177937534189
H           17.75042296655884        2.50946222224887        0.55033064740168
H           17.64999355059432       -2.63269757379954       -0.41220787028697
H           15.70845637569176       -4.36192159796695       -1.16055657362350
H           12.92033395679187       -2.79368883829488       -4.07117558457847
H           13.87168065716021       -3.84508707313312       -5.13537789882709
H           14.64160649495020       -3.02712457728600       -3.76471207175420
H           13.58009314844575       -6.14757406915461       -4.78256327349447
H           13.91801570968548       -8.64819452095560       -4.11225960443587
H           13.00086638912581       -9.21521745024103       -2.70457808203161
H           12.15408324196403       -8.57588170031307       -4.12092478120855
H           12.59811027647905       -7.70082551806889       -0.91723063558708
H           11.68141485186328       -4.72648236413377        0.55232881385541
H           13.40551895980186       -4.83151368296860        0.90935577658173
H           12.40463491850919       -6.29447644038347        0.95028298473974
H           10.61619777473033       -3.82580494010535       -2.23284689323041
H            8.73865837254302       -2.01394322099658       -1.51586983623237
Co          31.79075757236151       -0.02562610581074       -0.04681068444334
C           35.17944916632129       -0.05293569371888       -0.11886673122357
C           34.51180552941791       -1.23506681812656       -0.35391808341097
C           35.17116168712005       -2.47498176242276       -0.63287314875091
C           34.20280745983850       -3.36664741386791       -0.94753270375372
C           32.95443171970563       -2.66757073298737       -0.86122413175148
N           33.14977626944760       -1.37256871116016       -0.45395954395777
C           31.74298898471672       -3.21619942796864       -1.25050980531849
C           31.72485574986835       -4.60129329763511       -1.79806020139114
C           31.92737137732970       -4.81038920194124       -3.16516924943748
C           32.16279643806669       -3.63670806643943       -4.07809065999171
C           31.91116560889297       -6.10644924021973       -3.66716955273829
C           31.69884321000474       -7.19520305666375       -2.82804445442698
C           31.66496225986907       -8.59296487512463       -3.38452121409718
C           31.49818815868597       -6.97463580825064       -1.46904331325100
C           31.50900262664799       -5.68742171403983       -0.94510049137888
C           31.29378533190476       -5.45565017250968        0.52669470780787
C           30.55264700766207       -2.51684814396936       -1.16065448140153
C           29.29031257858880       -3.05012367507069       -1.57462968463587
C           28.34854879743046       -2.14737463946980       -1.21044336942245
N           30.38863754578726       -1.28045644619613       -0.57755959237550
C           29.03886377923103       -1.06959191617017       -0.57442343165634
C           28.38280867369436       -0.00931059221481        0.05719639786813
C           29.08290307211848        1.03747568306168        0.66242513894665
C           28.43927699196231        2.12150784031481        1.33576803119000
C           29.41183758280605        3.00288894732791        1.66991708377032
C           30.64560678707829        2.45329509428791        1.19491142087538
N           30.43606467923020        1.22151174494453        0.61557030021325
C           31.84708690127047        3.13834798144232        1.22437182604391
C           31.87689660356171        4.52249174708681        1.77401239317945
C           31.61897060167343        5.61167338363445        0.93584232234013
C           31.30654283336426        5.38286618339687       -0.51892377871099
C           31.65560694109299        6.89816441075021        1.45883931635297
C           31.94367399212418        7.11618020229050        2.80322406275865
C           31.99051878043380        8.51914966841334        3.34561150707027
C           32.19865976046124        6.02557620268800        3.62664662358842
C           32.16883256398041        4.72906874117728        3.12472779530125
C           32.45005359340405        3.55293640350587        4.02134118374680
C           33.02802539369711        2.58087142288852        0.75985545321669
C           34.28519553826582        3.26925671503043        0.76847724087166
C           35.22457161651097        2.36970203800445        0.39355600366489
C           34.53871523498746        1.13572405473601        0.15565791118081
N           33.18764724136440        1.28334538275202        0.34624383669944
H           36.26259819933029       -0.05833796829821       -0.15163086097833
H           36.23940985276909       -2.61894418138305       -0.59860391619544
H           34.30386853343479       -4.40301288389621       -1.22707583717338
H           33.07144471799262       -3.10678110759756       -3.78571553639130
H           31.33115485103108       -2.93266470597377       -4.01390649198536
H           32.26670367859185       -3.96266652019923       -5.11253126051872
H           32.06877166854018       -6.26894589805367       -4.72839744691514
H           32.05773919549375       -9.30806436104464       -2.66115207567104
H           30.63539922064628       -8.87600501597634       -3.61580634891140
H           32.25012125634574       -8.66093980074186       -4.30182309956443
H           31.33265071980025       -7.81851072946476       -0.80726213298182
H           30.40875931499728       -4.83705211976291        0.68710946350809
H           31.16018593759796       -6.39964791277384        1.05409181022811
H           32.14917214782429       -4.93164687956307        0.95714022044619
H           29.15960383351021       -3.99833794728895       -2.07051766172812
H           27.27967546516762       -2.19597368670472       -1.34236066896985
H           27.37766388868333        2.18696123575576        1.51206562233309
H           29.31984189875459        3.94827295693153        2.17974330667709
H           32.11937884904636        4.83587761348913       -1.00016744183232
H           31.16464061005659        6.32912420427994       -1.04007980843136
H           30.39730334266990        4.78744730976843       -0.62162767272037
H           31.45655076085999        7.74453511295047        0.80956116197532
H           31.11458218185334        9.08416715181628        3.02360405810763
H           32.02555140488143        8.51629460267611        4.43496000808665
H           32.87860845445830        9.03472471472786        2.97367924807303
H           32.42434484307543        6.18507131648567        4.67595611977875
H           33.33775394894224        3.01907882407702        3.67638339469165
H           31.61268306355634        2.85304592803602        4.00443467288827
H           32.61537411423176        3.87694337334380        5.04838415315243
H           34.41261057705410        4.30476461953752        1.04033624300298
H           36.28958159181984        2.50526570126141        0.29139347947867
C           18.04835980783002       -0.06475957144861        0.06857685230018
C           19.27374472655015       -0.06806717218711        0.07903199649109
C           20.61495674670869       -0.06497441878951        0.09069858757220
C           21.84661727876088       -0.05118053463534        0.10008365714928
C           23.18302806407132       -0.03972542697381        0.10097359577387
C           24.41459436424945       -0.02102564617797        0.10417681230077
C           25.75574436170475       -0.00866357444442        0.09524520806385
C           26.98103483453244       -0.00092711683005        0.08330949246223

          :  Hamiltonian                  GFN1-xTB          :
         :: total energy            -243.487424390940 Eh    ::
         :: gradient norm              0.000628155262 Eh/a0 ::
         :: HOMO-LUMO gap              0.007018805817 eV    ::
         :: SCC energy              -247.500527144837 Eh    ::
         :: repulsion energy           4.151240747559 Eh    ::

    * Orbital Energies and Occupations

         #    Occupation            Energy/Eh            Energy/eV
      -------------------------------------------------------------
         1        2.0000           -0.7703074             -20.9611
       ...           ...                  ...                  ...
       216        2.0000           -0.4183809             -11.3847
       217        2.0000           -0.4097224             -11.1491
       218        2.0000           -0.3964046             -10.7867
       219        2.0000           -0.3963770             -10.7860
       220        2.0000           -0.3948657             -10.7448
       221        2.0000           -0.3948550             -10.7446
       222        2.0000           -0.3939844             -10.7209
       223        1.9998           -0.3916992             -10.6587
       224        1.9998           -0.3916870             -10.6583
       225        1.9998           -0.3916247             -10.6567
       226        1.9998           -0.3916102             -10.6563
       227        1.8778           -0.3853433             -10.4857
       228        1.1290           -0.3829938             -10.4218 (HOMO)
       229        0.9939           -0.3827359             -10.4148 (LUMO)
       230                         -0.3389817              -9.2242
       231                         -0.3286289              -8.9424
       232                         -0.3252889              -8.8516
       233                         -0.3252616              -8.8508
       234                         -0.3027612              -8.2386
       235                         -0.3013823              -8.2010
       236                         -0.2952103              -8.0331
       237                         -0.2951208              -8.0306
       238                         -0.2903497              -7.9008
       239                         -0.2744215              -7.4674
       ...                                ...                  ...
       510                          1.6020051              43.5928
      -------------------------------------------------------------
                  HL-Gap            0.0002579 Eh            0.0070 eV

Wiberg/Mayer (AO) data.
largest (>0.10) Wiberg bond orders for each atom

     #   Z sym  total        # sym  WBO       # sym  WBO       # sym  WBO
 ---------------------------------------------------------------------------
     1  27 Co   3.029 --     7 N    0.638    43 N    0.636    28 N    0.633
                            21 N    0.631
     2   6 C    3.927 --     3 C    1.365    42 C    1.364    44 H    0.970
     3   6 C    3.926 --     2 C    1.365     7 N    1.203     4 C    1.174
     4   6 C    3.960 --     5 C    1.649     3 C    1.174    45 H    0.975
     5   6 C    3.963 --     4 C    1.649     6 C    1.175    46 H    0.974
     6   6 C    3.919 --     8 C    1.324     7 N    1.211     5 C    1.175
     7   7 N    3.345 --     6 C    1.211     3 C    1.203     1 Co   0.638
     8   6 C    3.931 --    18 C    1.339     6 C    1.324     9 C    1.004
     9   6 C    3.987 --    10 C    1.381    16 C    1.380     8 C    1.004
                            13 C    0.104
    10   6 C    3.984 --    12 C    1.420     9 C    1.381    11 C    1.021
                            15 C    0.103
    11   6 C    3.995 --    10 C    1.021    49 H    0.986    48 H    0.974
                            47 H    0.973
    12   6 C    3.993 --    10 C    1.420    13 C    1.415    50 H    0.970
                            16 C    0.102
    13   6 C    3.988 --    12 C    1.415    15 C    1.413    14 C    1.020
                             9 C    0.104
    14   6 C    3.996 --    13 C    1.020    53 H    0.984    51 H    0.982
                            52 H    0.971
    15   6 C    3.993 --    16 C    1.421    13 C    1.413    54 H    0.970
                            10 C    0.103
    16   6 C    3.985 --    15 C    1.421     9 C    1.380    17 C    1.021
                            12 C    0.102
    17   6 C    3.995 --    16 C    1.021    56 H    0.986    57 H    0.974
                            55 H    0.973
    18   6 C    3.916 --     8 C    1.339    21 N    1.190    19 C    1.180
    19   6 C    3.958 --    20 C    1.638    18 C    1.180    58 H    0.974
    20   6 C    3.961 --    19 C    1.638    22 C    1.190    59 H    0.973
    21   7 N    3.348 --    22 C    1.235    18 C    1.190     1 Co   0.631
    22   6 C    3.904 --    23 C    1.255    21 N    1.235    20 C    1.190
    23   6 C    3.933 --    24 C    1.257    22 C    1.255   149 C    1.196
    24   6 C    3.904 --    23 C    1.257    28 N    1.235    25 C    1.189
    25   6 C    3.962 --    26 C    1.639    24 C    1.189    60 H    0.973
    26   6 C    3.959 --    25 C    1.639    27 C    1.180    61 H    0.974
    27   6 C    3.917 --    29 C    1.340    28 N    1.189    26 C    1.180
    28   7 N    3.346 --    24 C    1.235    27 C    1.189     1 Co   0.633
    29   6 C    3.931 --    27 C    1.340    39 C    1.322    30 C    1.004
    30   6 C    3.987 --    37 C    1.383    31 C    1.377    29 C    1.004
                            34 C    0.104
    31   6 C    3.984 --    33 C    1.425    30 C    1.377    32 C    1.020
                            36 C    0.102
    32   6 C    3.995 --    31 C    1.020    63 H    0.986    62 H    0.974
                            64 H    0.973
    33   6 C    3.993 --    31 C    1.425    34 C    1.410    65 H    0.971
                            37 C    0.103
    34   6 C    3.988 --    36 C    1.418    33 C    1.410    35 C    1.020
                            30 C    0.104
    35   6 C    3.996 --    34 C    1.020    67 H    0.985    66 H    0.979
                            68 H    0.973
    36   6 C    3.992 --    34 C    1.418    37 C    1.417    69 H    0.970
                            31 C    0.102
    37   6 C    3.984 --    36 C    1.417    30 C    1.383    38 C    1.021
                            33 C    0.103
    38   6 C    3.995 --    37 C    1.021    72 H    0.986    71 H    0.975
                            70 H    0.973
    39   6 C    3.919 --    29 C    1.322    43 N    1.211    40 C    1.176
    40   6 C    3.963 --    41 C    1.649    39 C    1.176    73 H    0.974
    41   6 C    3.960 --    40 C    1.649    42 C    1.175    74 H    0.975
    42   6 C    3.926 --     2 C    1.364    43 N    1.203    41 C    1.175
    43   7 N    3.347 --    39 C    1.211    42 C    1.203     1 Co   0.636
    44   1 H    1.000 --     2 C    0.970
    45   1 H    0.998 --     4 C    0.975
    46   1 H    1.001 --     5 C    0.974
    47   1 H    1.008 --    11 C    0.973
    48   1 H    1.007 --    11 C    0.974
    49   1 H    1.004 --    11 C    0.986
    50   1 H    1.000 --    12 C    0.970
    51   1 H    1.004 --    14 C    0.982
    52   1 H    1.006 --    14 C    0.971
    53   1 H    1.004 --    14 C    0.984
    54   1 H    1.000 --    15 C    0.970
    55   1 H    1.008 --    17 C    0.973
    56   1 H    1.004 --    17 C    0.986
    57   1 H    1.007 --    17 C    0.974
    58   1 H    1.001 --    19 C    0.974
    59   1 H    1.001 --    20 C    0.973
    60   1 H    1.001 --    25 C    0.973
    61   1 H    1.001 --    26 C    0.974
    62   1 H    1.007 --    32 C    0.974
    63   1 H    1.004 --    32 C    0.986
    64   1 H    1.008 --    32 C    0.973
    65   1 H    0.999 --    33 C    0.971
    66   1 H    1.005 --    35 C    0.979
    67   1 H    1.004 --    35 C    0.985
    68   1 H    1.006 --    35 C    0.973
    69   1 H    1.000 --    36 C    0.970
    70   1 H    1.008 --    38 C    0.973
    71   1 H    1.007 --    38 C    0.975
    72   1 H    1.004 --    38 C    0.986
    73   1 H    1.002 --    40 C    0.974
    74   1 H    0.998 --    41 C    0.975
    75  27 Co   3.030 --    81 N    0.638   117 N    0.636   102 N    0.633
                            95 N    0.631
    76   6 C    3.927 --    77 C    1.365   116 C    1.364   118 H    0.970
    77   6 C    3.926 --    76 C    1.365    81 N    1.203    78 C    1.174
    78   6 C    3.960 --    79 C    1.649    77 C    1.174   119 H    0.975
    79   6 C    3.963 --    78 C    1.649    80 C    1.175   120 H    0.974
    80   6 C    3.919 --    82 C    1.324    81 N    1.211    79 C    1.175
    81   7 N    3.345 --    80 C    1.211    77 C    1.203    75 Co   0.638
    82   6 C    3.931 --    92 C    1.339    80 C    1.324    83 C    1.004
    83   6 C    3.987 --    84 C    1.380    90 C    1.380    82 C    1.004
                            87 C    0.104
    84   6 C    3.984 --    86 C    1.420    83 C    1.380    85 C    1.021
                            89 C    0.103
    85   6 C    3.995 --    84 C    1.021   123 H    0.986   122 H    0.974
                           121 H    0.973
    86   6 C    3.993 --    84 C    1.420    87 C    1.415   124 H    0.970
                            90 C    0.102
    87   6 C    3.988 --    86 C    1.415    89 C    1.413    88 C    1.020
                            83 C    0.104
    88   6 C    3.996 --    87 C    1.020   127 H    0.984   125 H    0.982
                           126 H    0.971
    89   6 C    3.993 --    90 C    1.421    87 C    1.413   128 H    0.970
                            84 C    0.103
    90   6 C    3.985 --    89 C    1.421    83 C    1.380    91 C    1.021
                            86 C    0.102
    91   6 C    3.995 --    90 C    1.021   130 H    0.986   131 H    0.974
                           129 H    0.974
    92   6 C    3.916 --    82 C    1.339    95 N    1.190    93 C    1.180
    93   6 C    3.958 --    94 C    1.638    92 C    1.180   132 H    0.974
    94   6 C    3.961 --    93 C    1.638    96 C    1.190   133 H    0.973
    95   7 N    3.348 --    96 C    1.235    92 C    1.190    75 Co   0.631
    96   6 C    3.904 --    97 C    1.255    95 N    1.235    94 C    1.190
    97   6 C    3.933 --    98 C    1.257    96 C    1.255   156 C    1.196
    98   6 C    3.904 --    97 C    1.257   102 N    1.235    99 C    1.189
    99   6 C    3.962 --   100 C    1.639    98 C    1.189   134 H    0.973
   100   6 C    3.959 --    99 C    1.639   101 C    1.180   135 H    0.974
   101   6 C    3.917 --   103 C    1.341   102 N    1.189   100 C    1.180
   102   7 N    3.346 --    98 C    1.235   101 C    1.189    75 Co   0.633
   103   6 C    3.931 --   101 C    1.341   113 C    1.322   104 C    1.004
   104   6 C    3.987 --   111 C    1.383   105 C    1.377   103 C    1.004
                           108 C    0.104
   105   6 C    3.984 --   107 C    1.425   104 C    1.377   106 C    1.020
                           110 C    0.102
   106   6 C    3.995 --   105 C    1.020   137 H    0.986   136 H    0.974
                           138 H    0.973
   107   6 C    3.993 --   105 C    1.425   108 C    1.410   139 H    0.971
                           111 C    0.103
   108   6 C    3.988 --   110 C    1.418   107 C    1.410   109 C    1.020
                           104 C    0.104
   109   6 C    3.996 --   108 C    1.020   141 H    0.985   140 H    0.979
                           142 H    0.973
   110   6 C    3.992 --   108 C    1.418   111 C    1.417   143 H    0.970
                           105 C    0.102
   111   6 C    3.984 --   110 C    1.417   104 C    1.383   112 C    1.021
                           107 C    0.103
   112   6 C    3.995 --   111 C    1.021   146 H    0.986   145 H    0.975
                           144 H    0.973
   113   6 C    3.919 --   103 C    1.322   117 N    1.212   114 C    1.176
   114   6 C    3.963 --   115 C    1.649   113 C    1.176   147 H    0.974
   115   6 C    3.960 --   114 C    1.649   116 C    1.175   148 H    0.975
   116   6 C    3.926 --    76 C    1.364   117 N    1.203   115 C    1.175
   117   7 N    3.347 --   113 C    1.212   116 C    1.203    75 Co   0.636
   118   1 H    1.000 --    76 C    0.970
   119   1 H    0.998 --    78 C    0.975
   120   1 H    1.001 --    79 C    0.974
   121   1 H    1.008 --    85 C    0.973
   122   1 H    1.007 --    85 C    0.974
   123   1 H    1.004 --    85 C    0.986
   124   1 H    1.000 --    86 C    0.970
   125   1 H    1.004 --    88 C    0.982
   126   1 H    1.006 --    88 C    0.971
   127   1 H    1.004 --    88 C    0.984
   128   1 H    1.000 --    89 C    0.970
   129   1 H    1.007 --    91 C    0.974
   130   1 H    1.004 --    91 C    0.986
   131   1 H    1.007 --    91 C    0.974
   132   1 H    1.001 --    93 C    0.974
   133   1 H    1.001 --    94 C    0.973
   134   1 H    1.001 --    99 C    0.973
   135   1 H    1.001 --   100 C    0.974
   136   1 H    1.007 --   106 C    0.974
   137   1 H    1.004 --   106 C    0.986
   138   1 H    1.008 --   106 C    0.973
   139   1 H    0.999 --   107 C    0.971
   140   1 H    1.005 --   109 C    0.979
   141   1 H    1.004 --   109 C    0.985
   142   1 H    1.006 --   109 C    0.973
   143   1 H    1.000 --   110 C    0.970
   144   1 H    1.008 --   112 C    0.973
   145   1 H    1.007 --   112 C    0.975
   146   1 H    1.004 --   112 C    0.986
   147   1 H    1.002 --   114 C    0.974
   148   1 H    0.998 --   115 C    0.975
   149   6 C    3.870 --   150 C    2.428    23 C    1.196   152 C    0.185
   150   6 C    3.930 --   149 C    2.428   151 C    1.352
   151   6 C    3.886 --   152 C    2.322   150 C    1.352   154 C    0.180
   152   6 C    3.920 --   151 C    2.322   153 C    1.378   149 C    0.185
   153   6 C    3.920 --   154 C    2.322   152 C    1.378   156 C    0.185
   154   6 C    3.886 --   153 C    2.322   155 C    1.352   151 C    0.180
   155   6 C    3.930 --   156 C    2.428   154 C    1.352
   156   6 C    3.870 --   155 C    2.428    97 C    1.196   153 C    0.185
 ---------------------------------------------------------------------------

           -------------------------------------------------
          | TOTAL ENERGY             -243.487424390940 Eh   |
          | GRADIENT NORM               0.000628155262 Eh/α |
          | HOMO-LUMO GAP               0.007018805817 eV   |
           -------------------------------------------------

 * finished run on 2022/07/30 at 03:53:59.860
