   * xtb version 6.5.1 (b24c23e) compiled by 'conda@728c89f4b128' on 2022-07-12
          program call               : xtb Zn_NMA_C6_3.xyz --gfn 1 --opt -T 48

   ID    Z sym.   atoms
    1   30 Zn     1, 67, 145
    2    6 C      2-6, 8-12, 14-19, 21-26, 28-32, 34-40, 68-72, 74-78, 80-85,
                  87-92, 94-98, 100-106, 133-144, 146-150, 152-156, 158-163,
                  165-170, 172-176, 178-184
    3    7 N      7, 13, 20, 27, 33, 41, 73, 79, 86, 93, 99, 107, 151, 157,
                  164, 171, 177, 185
    4    1 H      42-66, 108-132, 186-209

          :  Hamiltonian                  GFN1-xTB          :
 * total energy  :  -313.0975923 Eh     change       -0.7457857E-08 Eh
 * total energy  :  -333.1829444 Eh     change       -0.2008535E+02 Eh
 * total energy  :  -335.6152487 Eh     change       -0.2432304E+01 Eh
 * total energy  :  -337.3804757 Eh     change       -0.1765227E+01 Eh
 * total energy  :  -338.2637431 Eh     change       -0.8832674E+00 Eh
 * total energy  :  -338.7855594 Eh     change       -0.5218164E+00 Eh
 * total energy  :  -339.1306555 Eh     change       -0.3450960E+00 Eh
 * total energy  :  -339.3904497 Eh     change       -0.2597942E+00 Eh
 * total energy  :  -339.6057896 Eh     change       -0.2153399E+00 Eh
 * total energy  :  -339.7825794 Eh     change       -0.1767898E+00 Eh
 * total energy  :  -340.4700784 Eh     change       -0.1731393E-04 Eh
 * total energy  :  -340.4700896 Eh     change       -0.1118788E-04 Eh
 * total energy  :  -340.4700987 Eh     change       -0.9105593E-05 Eh
 * total energy  :  -340.4701104 Eh     change       -0.1165565E-04 Eh
 * total energy  :  -340.4701270 Eh     change       -0.1666999E-04 Eh
 * total energy  :  -340.4701395 Eh     change       -0.1243192E-04 Eh
 * total energy  :  -340.4701459 Eh     change       -0.6400477E-05 Eh
 * total energy  :  -340.4701509 Eh     change       -0.5062163E-05 Eh
 * total energy  :  -340.4701554 Eh     change       -0.4484688E-05 Eh
   *** GEOMETRY OPTIMIZATION CONVERGED AFTER 87 ITERATIONS ***

 final structure:
================
209
 xtb: 6.5.1 (b24c23e)
Zn          33.45407196631052        0.04113466965343       -0.04351978128538
C           30.04392595803532        0.07268143009165       -0.04891305166718
C           30.66950468493586        0.99838707764137        0.77776466332570
C           29.99143670945098        1.92088938595930        1.64387669649818
C           30.94739333607211        2.64307254442739        2.28087544823766
C           32.22204554588873        2.17953145591351        1.80083206354863
N           32.01809195297548        1.17587216664913        0.89950602294468
C           33.47102077043567        2.66617745490209        2.20984304571660
C           33.47761823993994        3.78701120122129        3.18046786405249
C           32.87180596853034        5.00736522044367        2.86877831922739
C           32.88119204880633        6.05326230836883        3.77240194314351
C           33.49354076661910        5.90736966056138        5.02299043232120
N           33.42724986880699        6.96516002512219        5.91937473705553
C           34.42412935038362        7.07314179388139        6.97649811652135
C           34.08766842323654        4.68430698728316        5.34610789378528
C           34.08364751322513        3.64594154293981        4.43005838171886
C           34.71173180452156        2.18152731398062        1.77955724944648
C           35.98839815882195        2.72409385700796        2.15296011876864
C           36.93813809451679        1.98458197590560        1.52445208065928
N           34.91051108156599        1.13416304852188        0.91897728096926
C           36.25253363612624        0.99014901325695        0.75358828919702
C           36.88840893204600        0.01649117407078       -0.04409311282055
C           36.23811152626985       -0.94992210602713       -0.83889744111248
C           36.90861668101437       -1.95810362135151       -1.60509030951944
C           35.94771797909052       -2.68793823080760       -2.22796501280785
C           34.67934280203285       -2.12466647489197       -1.85703421372944
N           34.89399130664248       -1.07533609095328       -1.00258802934679
C           33.43121912688326       -2.59253606462199       -2.28439157044903
C           33.41987947106645       -3.72433586920052       -3.24218684562754
C           34.02944857100697       -3.60973693533457       -4.49270162315679
C           34.01921919389802       -4.66091401386672       -5.39404076219981
C           33.40679349686999       -5.87041948523306       -5.05452387691216
N           33.32793186030717       -6.94048846070555       -5.93527030631821
C           34.32675209836336       -7.07803370374492       -6.98718320426204
C           32.78928017744868       -5.98912400433382       -3.80360655824609
C           32.79419851767326       -4.93055203617878       -2.91489913151355
C           32.19003684473182       -2.08115540614909       -1.88190412512806
C           30.90892448578411       -2.52428886980589       -2.36384631521249
C           29.96402878397742       -1.78034132260800       -1.73538114279529
C           30.65558866446026       -0.86590545291759       -0.87145828130333
N           32.00120645045826       -1.06850407949504       -0.98734296674695
H           28.95819850007534        0.08271474854371       -0.05111884675519
H           28.92017695455096        1.99140197787311        1.75122079825871
H           30.80529756245212        3.41347127185193        3.02182211466637
H           32.40941600612402        5.14137643763445        1.89685623274982
H           32.41345194319106        6.99764054424972        3.51429203769178
H           33.25660393451315        7.85255834422351        5.46139197004487
H           35.44321968986669        7.01450567580328        6.57725596051083
H           34.27956246112146        6.27827755272928        7.70932176695085
H           34.28601061625253        8.03382116660182        7.47266450950274
H           34.55166463463522        4.53458361432436        6.31330536460024
H           34.53962138996685        2.69853471304794        4.69676650616696
H           36.13823231373832        3.57267979199569        2.80098635901333
H           38.00932183577862        2.10210012245511        1.56806709003900
H           37.97797043686229       -2.09118919599937       -1.64894923600528
H           36.08490126151995       -3.54246903689577       -2.87094918954492
H           34.49998694672448       -2.67312655706657       -4.77193692810738
H           34.48682408368131       -4.53184086384989       -6.36248064534115
H           33.14424097883167       -7.81839170422576       -5.46417711314056
H           34.19354465066971       -6.29423673195028       -7.73396552554064
H           34.17918599720782       -8.04545863836350       -7.46723041828623
H           35.34519905908650       -7.02414515821239       -6.58565382805277
H           32.30663913029262       -6.92252781315478       -3.53327679358899
H           32.32774880047000       -5.04353101809572       -1.94223534477238
H           30.75555088444383       -3.29670508454928       -3.10044411675773
H           28.89208007687964       -1.83176174988314       -1.84662536325851
Zn          65.55088779771800        0.01552883624250       -0.01210732745641
C           68.95950474781421        0.05338052310224       -0.09877376376612
C           68.33430227013346       -0.96315835024410       -0.81109879367434
C           69.01297923235127       -2.00058458751932       -1.53512854305303
C           68.05718712648972       -2.79012889107354       -2.08670329504614
C           66.78176895127035       -2.23659540687847       -1.71666842850960
N           66.98547022715692       -1.13673305626611       -0.93553381627044
C           65.53288246649986       -2.75681967760155       -2.08192274267523
C           65.52561981262410       -3.94590289359760       -2.96779958390102
C           66.10469906828196       -3.89435056551396       -4.23877222604566
C           66.09210863555050       -5.00054260559330       -5.06747259776820
C           65.50364638911168       -6.19877029880170       -4.64540724990708
N           65.56506563863307       -7.29923485551246       -5.48940987267079
C           64.58343653838459       -8.36668196381911       -5.34788408926472
C           64.93766377312596       -6.26111898488704       -3.36908437693771
C           64.94419403647005       -5.14433906899289       -2.55041187627968
C           64.29238560157557       -2.24695068181530       -1.68127063312372
C           63.01440339200236       -2.74510823141749       -2.10818762632086
C           62.06525261147163       -1.98024564905917       -1.50986257460442
N           64.09467773873065       -1.18037049964868       -0.84441101492729
C           62.75237633019101       -1.00208645982040       -0.71975486390249
C           62.11766642043358       -0.01543811355068        0.06264810576291
C           62.76873771570899        0.97783987560503        0.82296156627627
C           62.09997709750679        1.93841961949624        1.64931448467631
C           63.06087973039762        2.71725386346657        2.20979825622910
C           64.32722393448529        2.24715252159641        1.72093533719659
N           64.11182849494666        1.18021647990094        0.88880396283483
C           65.57469381535036        2.78385566496863        2.06086332957588
C           65.58547670101105        3.97152486408017        2.94818351846708
C           64.94736060614174        5.15354012316628        2.56815763720647
C           64.95612855613184        6.26885090943297        3.38875663469860
C           65.59681564175632        6.22175300924961        4.62991962963634
N           65.67537936288608        7.32261122853767        5.47197502989385
C           64.65580887298577        8.36047951677498        5.39175715841200
C           66.24319218596014        5.04065672162199        5.01383701219782
C           66.23874649385971        3.93580820100537        4.18333616202665
C           66.81495979603514        2.29298551985709        1.63073263920155
C           68.09447402297974        2.87708393092518        1.93337532581528
C           69.03867867072469        2.10960978912420        1.33278315755254
C           68.34804683614402        1.05552116683256        0.64527027285387
N           67.00372333686738        1.19746824124666        0.83967379397732
H           70.04484261008329        0.06624605977168       -0.12676801018756
H           70.08470376451942       -2.10769667432457       -1.59854930088631
H           68.19987152920022       -3.67823163890302       -2.68138764156027
H           66.54811894476700       -2.96761644868069       -4.58656557471909
H           66.53835487811452       -4.94405107738354       -6.05486186018162
H           65.71061971679698       -7.03849413832035       -6.45750816992975
H           63.55948776595017       -7.97565935799011       -5.34937256708521
H           64.75719681665063       -8.91382912395014       -4.42040921184740
H           64.70865648010147       -9.05254393263890       -6.18576882484832
H           64.49345579892400       -7.18010377467234       -3.00666077101944
H           64.50961857108028       -5.20827134810900       -1.55860489490797
H           62.86308563477078       -3.56563879728527       -2.79106505131583
H           60.99338429186340       -2.06090887257153       -1.59783544277863
H           61.03191924104963        1.99757741608388        1.78684592077532
H           62.92501759971661        3.52968920798541        2.90547066648421
H           64.45503793467677        5.20633190486498        1.60304503166159
H           64.46533051027997        7.17489408794944        3.05502818137266
H           65.88514827035205        7.06500287941954        6.42909226134050
H           64.75642510555848        8.91189457890635        4.45605345478036
H           64.81154936959901        9.05030895555245        6.22123039901555
H           63.64587734042658        7.93928090493762        5.45525758556950
H           66.74792476592762        4.99638079931180        5.97328084145304
H           66.72748319218103        3.02179605035024        4.50287186308055
H           68.24727673833981        3.76963911301539        2.51878286762098
H           70.10937806189720        2.24241405206269        1.34007017143554
C           42.09052462433078       -0.00529536517911       -0.04267303818830
C           40.86172658194602       -0.00268513120522       -0.04481708852198
C           39.51769820181454        0.00181626493375       -0.04623146629153
C           38.29317800865805        0.00795648367809       -0.04531246111410
C           43.43442505052148       -0.00605853176979       -0.03750979911968
C           44.65907622344642       -0.00493805247794       -0.03106077467778
C           58.14463594487577       -0.01710109978085        0.09248121507976
C           56.91577536033553       -0.01290049309054        0.08848911457373
C           55.57195545634674       -0.00835442569628        0.07823613037177
C           54.34739944966547       -0.00398658181123        0.06583945481265
C           59.48862541190220       -0.01933908121232        0.09000362856420
C           60.71306722897905       -0.02004690172705        0.08253693538663
Zn          49.50299725205817        0.00148838055061        0.00886020210931
C           46.06323658584780       -0.00304167667715       -0.02081013143396
C           46.71528910966124       -1.01415107374713       -0.75653035259075
C           46.04626721848373       -2.05708014293198       -1.47504622478003
C           47.00888154994196       -2.81943694141532       -2.05558596660540
C           48.27553292676155       -2.24209588646930       -1.70423555868645
N           48.06010146991479       -1.15136041391033       -0.90422588724555
C           49.52517497353907       -2.73215062276023       -2.10149500464208
C           49.53632549199228       -3.90273485620700       -3.01219090280238
C           50.14026129119824       -5.10260969864390       -2.62646413561246
C           50.15437095044462       -6.19235436066402       -3.47650200952966
C           49.57489786856744       -6.10995638984287       -4.74851150984939
N           49.57534015359784       -7.24361029462883       -5.54924423226081
C           49.44577571689167       -7.10314120004892       -6.99343504978116
C           48.96254516864590       -4.91497884677377       -5.13642693252614
C           48.94551939042271       -3.83106540737749       -4.27478323359490
C           50.76667889866067       -2.21297523453244       -1.71522577258936
C           52.04201390822119       -2.68740671093103       -2.17290491398701
C           52.99241565034479       -1.92688822006452       -1.57013831348429
N           50.96483235411296       -1.16290571720263       -0.85841621120211
C           52.30710121615794       -0.97471470532111       -0.74859662313666
C           52.94338435770289       -0.00102302354613        0.04894604831341
C           52.29080108604042        0.97637873936931        0.82847409080134
C           52.95883495887333        1.93182847277734        1.66037306923328
C           51.99629683157897        2.69892298801172        2.23498464636604
C           50.73091253538749        2.22430368603947        1.75047134641025
N           50.94674765207331        1.16816727106038        0.90558358952464
C           49.48157964383358        2.74800025400144        2.10469279307896
C           49.47257730293847        3.93159600851583        2.99794035548987
C           48.84121799978496        3.88542596623338        4.24202268915543
C           48.83024507453680        4.98658644668324        5.08157651671643
C           49.45568907773858        6.17364091000790        4.69015543559856
N           49.42624090324330        7.32457528689038        5.46474933404342
C           49.23712483954152        7.21848628147292        6.90521844472069
C           50.08043184942070        6.22895367980434        3.43824756544560
C           50.09285866765745        5.12258178689774        2.61008689561078
C           48.24030304763166        2.25282657997463        1.68709678730390
C           46.96601457635991        2.83035947058456        2.00958645528690
C           46.01581487843207        2.05960128659253        1.41983313236237
C           46.70017141815708        1.01249268250873        0.72229888791888
N           48.04180079506138        1.15464373512192        0.89277543296084
H           44.97677469191736       -2.18876543854385       -1.51860568353897
H           46.87389457693961       -3.70401310580724       -2.65695572449392
H           50.58611770476298       -5.18363164415326       -1.64104016073201
H           50.61710475670141       -7.12139248423240       -3.16024430957253
H           50.30048259920517       -7.90215096917265       -5.29102578956384
H           48.43829956261290       -6.77152946690467       -7.24782022150918
H           50.17297579842703       -6.38884373605768       -7.39629116273157
H           49.61461617576109       -8.08152489259450       -7.44339719541948
H           48.49756228664449       -4.82352798503327       -6.11043450298678
H           48.48332586922992       -2.90329931814273       -4.59461364721153
H           52.19131121639644       -3.49020149601473       -2.87691851613821
H           54.06359264298735       -1.99389146142170       -1.67571456847609
H           54.02742609123923        1.99692992008910        1.79071302917590
H           52.13107427458763        3.50575320657706        2.93733553081294
H           48.36794161393466        2.96450912415687        4.56534204434357
H           48.33223061694269        4.91510542720113        6.04076352653462
H           50.15994527230166        7.97863971955184        5.21992806471265
H           49.94722964489408        6.51497930827217        7.35489253174524
H           49.38683275955469        8.20760565809608        7.33816693583173
H           48.22000819586673        6.89174630005744        7.12551314789429
H           50.55571319342341        7.15079632768667        3.11961103798041
H           50.57161903614159        5.18367095630894        1.63879229644026
H           46.81707519170684        3.72069530300792        2.59896773037655
H           44.94543243438056        2.18906209493178        1.44347701583590

          :  Hamiltonian                  GFN1-xTB          :
         :: total energy            -340.470155408270 Eh    ::
         :: gradient norm              0.000457996857 Eh/a0 ::
         :: HOMO-LUMO gap              0.881260453969 eV    ::
         :: SCC energy              -346.043502149713 Eh    ::
         :: repulsion energy           5.751042644867 Eh    ::

    * Orbital Energies and Occupations

         #    Occupation            Energy/Eh            Energy/eV
      -------------------------------------------------------------
         1        2.0000           -0.7760347             -21.1170
       ...           ...                  ...                  ...
       301        2.0000           -0.4012350             -10.9182
       302        2.0000           -0.3924320             -10.6786
       303        2.0000           -0.3904494             -10.6247
       304        2.0000           -0.3895700             -10.6007
       305        2.0000           -0.3886928             -10.5769
       306        2.0000           -0.3886292             -10.5751
       307        2.0000           -0.3882312             -10.5643
       308        2.0000           -0.3848765             -10.4730
       309        2.0000           -0.3843279             -10.4581
       310        2.0000           -0.3839403             -10.4475
       311        2.0000           -0.3754289             -10.2159
       312        2.0000           -0.3700731             -10.0702
       313        2.0000           -0.3633872              -9.8883 (HOMO)
       314                         -0.3310015              -9.0070 (LUMO)
       315                         -0.3218669              -8.7584
       316                         -0.3163557              -8.6085
       317                         -0.3160803              -8.6010
       318                         -0.3156819              -8.5901
       319                         -0.3151920              -8.5768
       320                         -0.2929376              -7.9712
       321                         -0.2840028              -7.7281
       322                         -0.2806680              -7.6374
       323                         -0.2734923              -7.4421
       324                         -0.2731140              -7.4318
       ...                                ...                  ...
       688                          1.5895706              43.2544
      -------------------------------------------------------------
                  HL-Gap            0.0323857 Eh            0.8813 eV

Wiberg/Mayer (AO) data.
largest (>0.10) Wiberg bond orders for each atom

     #   Z sym  total        # sym  WBO       # sym  WBO       # sym  WBO
 ---------------------------------------------------------------------------
     1  30 Zn   2.000 --    41 N    0.460     7 N    0.460    27 N    0.457
                            20 N    0.457
     2   6 C    3.924 --    40 C    1.356     3 C    1.356    42 H    0.972
     3   6 C    3.923 --     2 C    1.356     7 N    1.232     4 C    1.173
     4   6 C    3.959 --     5 C    1.655     3 C    1.173    43 H    0.976
     5   6 C    3.963 --     4 C    1.655     6 C    1.175    44 H    0.973
     6   6 C    3.916 --     8 C    1.310     7 N    1.245     5 C    1.175
     7   7 N    3.293 --     6 C    1.245     3 C    1.232     1 Zn   0.460
     8   6 C    3.933 --    17 C    1.322     6 C    1.310     9 C    1.034
     9   6 C    3.988 --    16 C    1.385    10 C    1.375     8 C    1.034
    10   6 C    3.987 --    11 C    1.475     9 C    1.375    45 H    0.973
    11   6 C    3.989 --    10 C    1.475    12 C    1.346    46 H    0.971
                            16 C    0.100
    12   6 C    3.952 --    15 C    1.355    11 C    1.346    13 N    1.106
    13   7 N    3.176 --    12 C    1.106    14 C    0.972    47 H    0.932
    14   6 C    3.968 --    50 H    0.990    49 H    0.986    48 H    0.984
                            13 N    0.972
    15   6 C    3.990 --    16 C    1.463    12 C    1.355    51 H    0.970
    16   6 C    3.987 --    15 C    1.463     9 C    1.385    52 H    0.973
                            11 C    0.100
    17   6 C    3.912 --     8 C    1.322    20 N    1.224    18 C    1.181
    18   6 C    3.960 --    19 C    1.643    17 C    1.181    53 H    0.973
    19   6 C    3.961 --    18 C    1.643    21 C    1.188    54 H    0.974
    20   7 N    3.296 --    21 C    1.264    17 C    1.224     1 Zn   0.457
    21   6 C    3.903 --    20 N    1.264    22 C    1.251    19 C    1.188
    22   6 C    3.936 --    23 C    1.251    21 C    1.251   136 C    1.195
    23   6 C    3.903 --    27 N    1.263    22 C    1.251    24 C    1.189
    24   6 C    3.961 --    25 C    1.643    23 C    1.189    55 H    0.974
    25   6 C    3.960 --    24 C    1.643    26 C    1.181    56 H    0.973
    26   6 C    3.912 --    28 C    1.322    27 N    1.224    25 C    1.181
    27   7 N    3.296 --    23 C    1.263    26 C    1.224     1 Zn   0.457
    28   6 C    3.933 --    26 C    1.322    37 C    1.310    29 C    1.034
    29   6 C    3.988 --    30 C    1.385    36 C    1.375    28 C    1.034
    30   6 C    3.988 --    31 C    1.463    29 C    1.385    57 H    0.973
                            35 C    0.100
    31   6 C    3.990 --    30 C    1.463    32 C    1.355    58 H    0.970
    32   6 C    3.952 --    31 C    1.355    35 C    1.346    33 N    1.106
    33   7 N    3.176 --    32 C    1.106    34 C    0.972    59 H    0.932
    34   6 C    3.968 --    61 H    0.990    60 H    0.986    62 H    0.984
                            33 N    0.972
    35   6 C    3.989 --    36 C    1.475    32 C    1.346    63 H    0.971
                            30 C    0.100
    36   6 C    3.987 --    35 C    1.475    29 C    1.375    64 H    0.973
    37   6 C    3.916 --    28 C    1.310    41 N    1.245    38 C    1.175
    38   6 C    3.963 --    39 C    1.655    37 C    1.175    65 H    0.973
    39   6 C    3.959 --    38 C    1.655    40 C    1.173    66 H    0.976
    40   6 C    3.923 --     2 C    1.356    41 N    1.232    39 C    1.173
    41   7 N    3.293 --    37 C    1.245    40 C    1.232     1 Zn   0.460
    42   1 H    1.002 --     2 C    0.972
    43   1 H    0.998 --     4 C    0.976
    44   1 H    1.006 --     5 C    0.973
    45   1 H    1.005 --    10 C    0.973
    46   1 H    0.999 --    11 C    0.971
    47   1 H    0.966 --    13 N    0.932
    48   1 H    1.004 --    14 C    0.984
    49   1 H    1.012 --    14 C    0.986
    50   1 H    1.007 --    14 C    0.990
    51   1 H    1.001 --    15 C    0.970
    52   1 H    1.006 --    16 C    0.973
    53   1 H    1.006 --    18 C    0.973
    54   1 H    1.003 --    19 C    0.974
    55   1 H    1.003 --    24 C    0.974
    56   1 H    1.006 --    25 C    0.973
    57   1 H    1.006 --    30 C    0.973
    58   1 H    1.001 --    31 C    0.970
    59   1 H    0.966 --    33 N    0.932
    60   1 H    1.012 --    34 C    0.986
    61   1 H    1.007 --    34 C    0.990
    62   1 H    1.004 --    34 C    0.984
    63   1 H    0.999 --    35 C    0.971
    64   1 H    1.005 --    36 C    0.973
    65   1 H    1.006 --    38 C    0.973
    66   1 H    0.998 --    39 C    0.976
    67  30 Zn   2.000 --   107 N    0.460    73 N    0.460    93 N    0.457
                            86 N    0.457
    68   6 C    3.924 --    69 C    1.356   106 C    1.356   108 H    0.972
    69   6 C    3.923 --    68 C    1.356    73 N    1.232    70 C    1.173
    70   6 C    3.959 --    71 C    1.655    69 C    1.173   109 H    0.976
    71   6 C    3.963 --    70 C    1.655    72 C    1.175   110 H    0.973
    72   6 C    3.916 --    74 C    1.310    73 N    1.245    71 C    1.175
    73   7 N    3.293 --    72 C    1.245    69 C    1.232    67 Zn   0.460
    74   6 C    3.933 --    83 C    1.322    72 C    1.310    75 C    1.033
    75   6 C    3.988 --    82 C    1.385    76 C    1.375    74 C    1.033
    76   6 C    3.987 --    77 C    1.475    75 C    1.375   111 H    0.973
    77   6 C    3.989 --    76 C    1.475    78 C    1.347   112 H    0.971
                            82 C    0.100
    78   6 C    3.952 --    81 C    1.355    77 C    1.347    79 N    1.106
    79   7 N    3.176 --    78 C    1.106    80 C    0.972   113 H    0.932
    80   6 C    3.968 --   116 H    0.990   115 H    0.986   114 H    0.984
                            79 N    0.972
    81   6 C    3.990 --    82 C    1.463    78 C    1.355   117 H    0.970
    82   6 C    3.988 --    81 C    1.463    75 C    1.385   118 H    0.973
                            77 C    0.100
    83   6 C    3.912 --    74 C    1.322    86 N    1.224    84 C    1.181
    84   6 C    3.960 --    85 C    1.643    83 C    1.181   119 H    0.973
    85   6 C    3.961 --    84 C    1.643    87 C    1.188   120 H    0.974
    86   7 N    3.296 --    87 C    1.263    83 C    1.224    67 Zn   0.457
    87   6 C    3.903 --    86 N    1.263    88 C    1.251    85 C    1.188
    88   6 C    3.936 --    87 C    1.251    89 C    1.251   144 C    1.195
    89   6 C    3.903 --    93 N    1.263    88 C    1.251    90 C    1.189
    90   6 C    3.961 --    91 C    1.642    89 C    1.189   121 H    0.974
    91   6 C    3.960 --    90 C    1.642    92 C    1.182   122 H    0.973
    92   6 C    3.912 --    94 C    1.322    93 N    1.224    91 C    1.182
    93   7 N    3.297 --    89 C    1.263    92 C    1.224    67 Zn   0.457
    94   6 C    3.933 --    92 C    1.322   103 C    1.310    95 C    1.034
    95   6 C    3.988 --    96 C    1.385   102 C    1.375    94 C    1.034
    96   6 C    3.987 --    97 C    1.463    95 C    1.385   123 H    0.973
                           101 C    0.100
    97   6 C    3.990 --    96 C    1.463    98 C    1.355   124 H    0.970
    98   6 C    3.952 --    97 C    1.355   101 C    1.346    99 N    1.106
    99   7 N    3.176 --    98 C    1.106   100 C    0.972   125 H    0.932
   100   6 C    3.968 --   127 H    0.990   126 H    0.986   128 H    0.984
                            99 N    0.972
   101   6 C    3.989 --   102 C    1.475    98 C    1.346   129 H    0.971
                            96 C    0.100
   102   6 C    3.987 --   101 C    1.475    95 C    1.375   130 H    0.973
   103   6 C    3.916 --    94 C    1.310   107 N    1.245   104 C    1.175
   104   6 C    3.963 --   105 C    1.655   103 C    1.175   131 H    0.973
   105   6 C    3.959 --   104 C    1.655   106 C    1.173   132 H    0.976
   106   6 C    3.923 --    68 C    1.356   107 N    1.232   105 C    1.173
   107   7 N    3.293 --   103 C    1.245   106 C    1.232    67 Zn   0.460
   108   1 H    1.002 --    68 C    0.972
   109   1 H    0.998 --    70 C    0.976
   110   1 H    1.006 --    71 C    0.973
   111   1 H    1.005 --    76 C    0.973
   112   1 H    0.999 --    77 C    0.971
   113   1 H    0.966 --    79 N    0.932
   114   1 H    1.004 --    80 C    0.984
   115   1 H    1.012 --    80 C    0.986
   116   1 H    1.007 --    80 C    0.990
   117   1 H    1.001 --    81 C    0.970
   118   1 H    1.005 --    82 C    0.973
   119   1 H    1.006 --    84 C    0.973
   120   1 H    1.003 --    85 C    0.974
   121   1 H    1.003 --    90 C    0.974
   122   1 H    1.006 --    91 C    0.973
   123   1 H    1.006 --    96 C    0.973
   124   1 H    1.001 --    97 C    0.970
   125   1 H    0.966 --    99 N    0.932
   126   1 H    1.012 --   100 C    0.986
   127   1 H    1.007 --   100 C    0.990
   128   1 H    1.004 --   100 C    0.984
   129   1 H    0.999 --   101 C    0.971
   130   1 H    1.005 --   102 C    0.973
   131   1 H    1.006 --   104 C    0.973
   132   1 H    0.998 --   105 C    0.976
   133   6 C    3.925 --   134 C    2.363   137 C    1.339   136 C    0.190
   134   6 C    3.923 --   133 C    2.363   135 C    1.338   138 C    0.189
   135   6 C    3.932 --   136 C    2.444   134 C    1.338
   136   6 C    3.889 --   135 C    2.444    22 C    1.195   133 C    0.190
   137   6 C    3.929 --   138 C    2.442   133 C    1.339
   138   6 C    3.890 --   137 C    2.442   146 C    1.197   134 C    0.189
   139   6 C    3.923 --   140 C    2.363   143 C    1.338   142 C    0.190
   140   6 C    3.925 --   139 C    2.363   141 C    1.339   144 C    0.190
   141   6 C    3.929 --   142 C    2.442   140 C    1.339
   142   6 C    3.890 --   141 C    2.442   166 C    1.197   139 C    0.190
   143   6 C    3.932 --   144 C    2.444   139 C    1.338
   144   6 C    3.889 --   143 C    2.444    88 C    1.195   140 C    0.190
   145  30 Zn   1.997 --   151 N    0.457   185 N    0.457   164 N    0.457
                           171 N    0.456
   146   6 C    3.923 --   147 C    1.249   184 C    1.248   138 C    1.197
   147   6 C    3.903 --   151 N    1.263   146 C    1.249   148 C    1.191
   148   6 C    3.959 --   149 C    1.640   147 C    1.191   186 H    0.974
   149   6 C    3.960 --   148 C    1.640   150 C    1.184   187 H    0.973
   150   6 C    3.909 --   152 C    1.317   151 N    1.224   149 C    1.184
   151   7 N    3.291 --   147 C    1.263   150 C    1.224   145 Zn   0.457
   152   6 C    3.928 --   150 C    1.317   161 C    1.317   153 C    1.032
   153   6 C    3.988 --   160 C    1.386   154 C    1.375   152 C    1.032
   154   6 C    3.988 --   155 C    1.475   153 C    1.375   188 H    0.973
   155   6 C    3.989 --   154 C    1.475   156 C    1.346   189 H    0.971
                           160 C    0.100
   156   6 C    3.953 --   159 C    1.355   155 C    1.346   157 N    1.107
   157   7 N    3.177 --   156 C    1.107   158 C    0.972   190 H    0.931
   158   6 C    3.968 --   193 H    0.990   191 H    0.986   192 H    0.984
                           157 N    0.972
   159   6 C    3.990 --   160 C    1.463   156 C    1.355   194 H    0.970
   160   6 C    3.988 --   159 C    1.463   153 C    1.386   195 H    0.973
                           155 C    0.100
   161   6 C    3.909 --   152 C    1.317   164 N    1.224   162 C    1.185
   162   6 C    3.960 --   163 C    1.639   161 C    1.185   196 H    0.973
   163   6 C    3.959 --   162 C    1.639   165 C    1.191   197 H    0.974
   164   7 N    3.291 --   165 C    1.263   161 C    1.224   145 Zn   0.457
   165   6 C    3.903 --   164 N    1.263   166 C    1.248   163 C    1.191
   166   6 C    3.923 --   167 C    1.249   165 C    1.248   142 C    1.197
   167   6 C    3.903 --   171 N    1.263   166 C    1.249   168 C    1.191
   168   6 C    3.959 --   169 C    1.639   167 C    1.191   198 H    0.974
   169   6 C    3.960 --   168 C    1.639   170 C    1.185   199 H    0.973
   170   6 C    3.909 --   172 C    1.316   171 N    1.225   169 C    1.185
   171   7 N    3.290 --   167 C    1.263   170 C    1.225   145 Zn   0.456
   172   6 C    3.928 --   181 C    1.317   170 C    1.316   173 C    1.034
   173   6 C    3.988 --   174 C    1.385   180 C    1.374   172 C    1.034
   174   6 C    3.987 --   175 C    1.463   173 C    1.385   200 H    0.973
                           179 C    0.100
   175   6 C    3.990 --   174 C    1.463   176 C    1.354   201 H    0.970
   176   6 C    3.952 --   175 C    1.354   179 C    1.346   177 N    1.107
   177   7 N    3.178 --   176 C    1.107   178 C    0.972   202 H    0.931
   178   6 C    3.968 --   204 H    0.990   205 H    0.986   203 H    0.984
                           177 N    0.972
   179   6 C    3.989 --   180 C    1.476   176 C    1.346   206 H    0.971
                           174 C    0.100
   180   6 C    3.988 --   179 C    1.476   173 C    1.374   207 H    0.973
   181   6 C    3.909 --   172 C    1.317   185 N    1.224   182 C    1.184
   182   6 C    3.960 --   183 C    1.639   181 C    1.184   208 H    0.973
   183   6 C    3.959 --   182 C    1.639   184 C    1.191   209 H    0.974
   184   6 C    3.903 --   185 N    1.263   146 C    1.248   183 C    1.191
   185   7 N    3.291 --   184 C    1.263   181 C    1.224   145 Zn   0.457
   186   1 H    1.002 --   148 C    0.974
   187   1 H    1.005 --   149 C    0.973
   188   1 H    1.005 --   154 C    0.973
   189   1 H    0.999 --   155 C    0.971
   190   1 H    0.966 --   157 N    0.931
   191   1 H    1.012 --   158 C    0.986
   192   1 H    1.004 --   158 C    0.984
   193   1 H    1.007 --   158 C    0.990
   194   1 H    1.001 --   159 C    0.970
   195   1 H    1.005 --   160 C    0.973
   196   1 H    1.006 --   162 C    0.973
   197   1 H    1.003 --   163 C    0.974
   198   1 H    1.002 --   168 C    0.974
   199   1 H    1.006 --   169 C    0.973
   200   1 H    1.006 --   174 C    0.973
   201   1 H    1.001 --   175 C    0.970
   202   1 H    0.966 --   177 N    0.931
   203   1 H    1.003 --   178 C    0.984
   204   1 H    1.007 --   178 C    0.990
   205   1 H    1.012 --   178 C    0.986
   206   1 H    0.999 --   179 C    0.971
   207   1 H    1.005 --   180 C    0.973
   208   1 H    1.006 --   182 C    0.973
   209   1 H    1.002 --   183 C    0.974
 ---------------------------------------------------------------------------

           -------------------------------------------------
          | TOTAL ENERGY             -340.470155408270 Eh   |
          | GRADIENT NORM               0.000457996857 Eh/α |
          | HOMO-LUMO GAP               0.881260453969 eV   |
           -------------------------------------------------

 * finished run on 2022/07/30 at 09:09:41.032
