   * xtb version 6.5.1 (b24c23e) compiled by 'conda@728c89f4b128' on 2022-07-12
          program call               : xtb Fe_Ph3OH_C2_3.xyz --gfn 1 --opt -T 48

   ID    Z sym.   atoms
    1   26 Fe     1, 63, 129
    2    6 C      2-6, 8-11, 13, 15, 17-20, 22-27, 29-32, 34, 36, 38-42,
                  64-68, 70-73, 75, 77, 79-82, 84-89, 91-94, 96, 98, 100-104,
                  125-128, 130-134, 136-139, 141, 143, 145-148, 150-155,
                  157-160, 162, 164, 166-170
    3    7 N      7, 21, 28, 43, 69, 83, 90, 105, 135, 149, 156, 171
    4    8 O      12, 14, 16, 33, 35, 37, 74, 76, 78, 95, 97, 99, 140, 142,
                  144, 161, 163, 165
    5    1 H      44-62, 106-124, 172-189
########################################################################
[WARNING] Please study the warnings concerning your input carefully
-1- prog_main_parseArguments: Unknown option '-T' provided
########################################################################

          :  Hamiltonian                  GFN1-xTB          :
 * total energy  :  -372.9758614 Eh     change        0.8641507E-08 Eh
 * total energy  :  -373.1818337 Eh     change       -0.2059723E+00 Eh
 * total energy  :  -373.3174537 Eh     change       -0.1356200E+00 Eh
 * total energy  :  -373.3800553 Eh     change       -0.6260157E-01 Eh
 * total energy  :  -373.4114757 Eh     change       -0.3142048E-01 Eh
 * total energy  :  -373.4333200 Eh     change       -0.2184429E-01 Eh
 * total energy  :  -373.4484725 Eh     change       -0.1515246E-01 Eh
 * total energy  :  -373.4602575 Eh     change       -0.1178497E-01 Eh
 * total energy  :  -373.4692153 Eh     change       -0.8957801E-02 Eh
 * total energy  :  -373.4757066 Eh     change       -0.6491335E-02 Eh
 * total energy  :  -373.5047208 Eh     change       -0.2250220E-04 Eh
 * total energy  :  -373.5047521 Eh     change       -0.3125576E-04 Eh
 * total energy  :  -373.5047713 Eh     change       -0.1927754E-04 Eh
 * total energy  :  -373.5048088 Eh     change       -0.3746593E-04 Eh
 * total energy  :  -373.5048210 Eh     change       -0.1219616E-04 Eh
 * total energy  :  -373.5048551 Eh     change       -0.3411835E-04 Eh
 * total energy  :  -373.5048622 Eh     change       -0.7078412E-05 Eh
 * total energy  :  -373.5048741 Eh     change       -0.1188101E-04 Eh
 * total energy  :  -373.5048782 Eh     change       -0.4128735E-05 Eh
   *** GEOMETRY OPTIMIZATION CONVERGED AFTER 56 ITERATIONS ***

 final structure:
================
189
 xtb: 6.5.1 (b24c23e)
Fe          35.88658378577639        0.02211366905224       -0.04935782881268
C           32.49370386823367        0.03021299255700       -0.15279052940894
C           33.13658147248066        1.24728670080036       -0.06829378097008
C           32.44648794922367        2.49954999854463        0.00559736815669
C           33.39637810496911        3.46210605012277        0.05839542529219
C           34.66562142374981        2.79537492748538        0.00421800807898
N           34.49336519070677        1.43902158875043       -0.05266023687006
C           35.88845417847920        3.45796372109068        0.01262717515820
C           35.88922005740250        4.94132170213342        0.03965220948592
C           35.33834572562569        5.66107451979518       -1.02048422480415
C           35.34388250969869        7.05083258019006       -0.99580309163120
O           34.82012526459745        7.76102335809346       -2.02433762313638
C           35.89243895820557        7.72470324642960        0.09674537342155
O           35.87952687412637        9.09455466361802        0.09509992280230
C           36.43748022649058        7.00509159434527        1.15723107747211
O           36.95242327824075        7.73618056342273        2.19512787955190
C           36.44324544902990        5.61608996039128        1.13075057906824
C           37.10713595449834        2.79495916763404       -0.00551371273628
C           38.37337115090077        3.46330809385603       -0.05567310292204
C           39.32403956856064        2.49865846040904       -0.04635032745991
N           37.28740453309150        1.43189814307458        0.01039412418541
C           38.63776076458796        1.24621025252423        0.00486182513275
C           39.30223545390234        0.01364938195291        0.03938403839360
C           38.63101967433724       -1.21545322117239        0.05160059729736
C           39.31105641454748       -2.47190717229926        0.09705353396882
C           38.35746631678232       -3.43225643498769        0.05922517567369
C           37.09431481384799       -2.75786257639171        0.00391182872944
N           37.28067771162745       -1.39504734949422        0.00311664913166
C           35.87634873570570       -3.41393723243958       -0.09618978110665
C           35.86919108441152       -4.89786076440025       -0.12390352613529
C           36.30650872411402       -5.62352382629876        0.98381204997865
C           36.29394316796884       -7.01332053266316        0.95467234215697
O           36.70880241490962       -7.72946867619004        2.02781665688265
C           35.85135986708680       -7.68099588359814       -0.18848552602196
O           35.85422267197000       -9.05131886209372       -0.18997320546033
C           35.41863117408565       -6.95532210004348       -1.29545062484227
O           35.00243204678791       -7.68006687280909       -2.38128475980978
C           35.42138527842910       -5.56636565692526       -1.26631724616421
C           34.65902780892504       -2.74529513758368       -0.17737848076928
C           33.38863761678037       -3.40859816116814       -0.24478375445897
C           32.44226202245027       -2.44101823594465       -0.26381666177128
C           33.13510159807441       -1.19010226337019       -0.19773683104271
N           34.49002238561744       -1.38781099958755       -0.14785100652593
H           31.40969626104589        0.03193474046378       -0.17892936531386
H           31.37349477466189        2.60691237913864        0.01979227585874
H           33.26233370733046        4.52890225422037        0.13340824832998
H           34.92154932759856        5.14834295543198       -1.87767331920779
H           34.91616958327295        8.70645768058775       -1.82256364440719
H           36.29178725886592        9.39898427337354        0.91921993181863
H           37.30139420092240        7.15654975326319        2.88487569770331
H           36.85868056354396        5.06131989141954        1.96374409128827
H           38.50831396234614        4.53144816479951       -0.10567052879265
H           40.39517146804467        2.61204228772257       -0.08172562504158
H           40.38083587283497       -2.59052986077526        0.14945627281290
H           38.48895088367235       -4.50182214689265        0.05933846301299
H           36.63960065435436       -5.11569787243585        1.87963562182867
H           36.62228117616897       -8.67364651536154        1.81661709958569
H           35.51514354411647       -9.34947642785746       -1.04898733780279
H           34.72159642522141       -7.09561184630643       -3.09758256636001
H           35.09456148764185       -5.00710253164033       -2.13505737229474
H           33.25006574319259       -4.47745273657925       -0.26045849349721
H           31.36970616856611       -2.54498855690399       -0.30758754865968
Fe          57.57043345554207       -0.07124959653050        0.00090244780554
C           60.96323395998993       -0.09276645271129       -0.09520212870332
C           60.31126221134415       -1.30668297125690       -0.15041796604970
C           60.99144434364489       -2.56446210170010       -0.22023441280491
C           60.03409383062881       -3.51835686573946       -0.29364107653565
C           58.77032863932499       -2.83941470123035       -0.27809760743015
N           58.95293104405724       -1.48791573480290       -0.16849171664506
C           57.54235226621543       -3.48820283070132       -0.35952144832138
C           57.53185592259062       -4.96304511804773       -0.51792379771344
C           58.09081439961726       -5.54928324650242       -1.65345521894372
C           58.07861498843670       -6.93129333067719       -1.80123276684478
O           58.61105399739252       -7.51165295087889       -2.90386510956553
C           57.51530948442069       -7.73200695066913       -0.80602972155493
O           57.52316613650208       -9.09125040110752       -0.97616557935681
C           56.96169758594151       -7.14598318887508        0.32950129445685
O           56.43276617828614       -7.99679430924429        1.26422333350239
C           56.96271714734570       -5.76447226338594        0.47539198930146
C           56.32877901784158       -2.81891788507885       -0.29556632657226
C           55.05697150046023       -3.46570395466902       -0.42626133427081
C           54.11403519335143       -2.50400017833043       -0.28463155752074
N           56.15922390911616       -1.46790315193267       -0.10297016442569
C           54.81043328931617       -1.27366485051873       -0.07541450174932
C           54.15600796974711       -0.05087827199627        0.12143280253798
C           54.83688820120231        1.16319229962412        0.27693006371063
C           54.16724722041588        2.40963910736840        0.47864609068728
C           55.12725453292793        3.36297023214591        0.53303206873248
C           56.38405510166505        2.69229150280033        0.37954540007241
N           56.18757682392253        1.33925900397700        0.22847017096233
C           57.60511791782148        3.34849507618491        0.33169770575140
C           57.62296804078817        4.82665147485921        0.46332657136125
C           57.21030076646371        5.43106572222450        1.65042547904835
C           57.23244722393071        6.81581839597772        1.77067124952998
O           56.84100701004849        7.41423708415364        2.92167960276540
C           57.66008494420558        7.60019474415830        0.69798446375232
O           57.66732791525383        8.96212405276747        0.84452147404402
C           58.06809542566169        6.99552227056863       -0.48835394276136
O           58.47035517682018        7.83056723868173       -1.49713893669728
C           58.05599571563948        5.61145809049388       -0.60853412617404
C           58.81671118012259        2.68501007440670        0.16635846337072
C           60.09117403383038        3.34373911697871        0.16316203479127
C           61.03133821412177        2.37682588758080        0.04700212353770
C           60.33041373659741        1.13022357851338       -0.01397418473314
N           58.97675003435863        1.33069233937539        0.05563593263085
H           62.04732931640847       -0.09979664146684       -0.11622875465321
H           62.06342103922928       -2.68186299534503       -0.20954853250151
H           60.15974492613073       -4.58746293554335       -0.34713295128777
H           58.51902677481492       -4.93665986003797       -2.43621545329275
H           58.50561198089520       -8.47403188299675       -2.82369305633951
H           57.09684744817692       -9.49217993570761       -0.20207113662022
H           56.07315400234364       -7.50365649335911        2.01317605851579
H           56.54147571712115       -5.31470730387745        1.36672186650227
H           54.91315265749027       -4.51691425956625       -0.61538944919969
H           53.04193761888178       -2.60421814984721       -0.32787467919267
H           53.09936773089805        2.52718197653260        0.56301682904533
H           55.00372075558692        4.42632024108744        0.65666095967205
H           56.88939220743116        4.83139401724130        2.49231179921497
H           56.92780832479563        8.37546800294895        2.81098178446966
H           57.98677800420069        9.35093056661823        0.01469443825179
H           58.72833920692157        7.32588535500267       -2.27961378379055
H           58.36371382089757        5.14688168410399       -1.53792270486389
H           60.23632007302192        4.40791653715309        0.25449000144309
H           62.10454096526804        2.47776541843168        0.01327505493825
C           40.70565476590555        0.01086723620751        0.05284345457369
C           41.92513708228318        0.01102717207995        0.05707950534395
C           51.53347205671683       -0.03057905459891        0.14486300915964
C           52.75298468406750       -0.03976478388415        0.14229593010905
Fe          46.72964450782310       -0.00345889550458        0.06930526703899
C           43.32689361999935        0.00877601625746        0.05241199999825
C           44.00826930604087        1.18602875103670        0.39453128095774
C           43.36551180763328        2.38959340718883        0.81494552281619
C           44.32365745167657        3.35002833821825        0.85413943984455
C           45.54832322912426        2.72641140683301        0.45420265251872
N           45.34763905544150        1.38672705208802        0.23619312583652
C           46.74254414023596        3.40285857284123        0.21881429685919
C           46.74268480584013        4.87994415329258        0.27724430666775
C           47.61197165997034        5.55506096431419        1.13648711730535
C           47.61856453627596        6.94509903236450        1.20214671185594
O           48.44883688704950        7.61300135816940        2.04355656506323
C           46.75352145398885        7.68231582229558        0.38576848606713
O           46.74266779929864        9.03874800829183        0.41969134880064
C           45.88975296480558        6.99972375312938       -0.47597345142911
O           45.07385614822953        7.78197237333028       -1.25114157948926
C           45.87064272905713        5.61390261821050       -0.53091567266572
C           47.93453869991633        2.74299990983072       -0.06344197740459
C           49.17374652480157        3.39266162157503       -0.36690940740628
C           50.12764079296753        2.42788998325876       -0.37760449083620
N           48.12339647782871        1.38571898821947        0.03001135983257
C           49.46674296269091        1.19406621706648       -0.09546916933048
C           50.13206780547547       -0.02120306143202        0.12579256115417
C           49.44390864809503       -1.23012226711185        0.30357373607170
C           50.07820165826959       -2.47941008614103        0.57987383384290
C           49.12076936484033       -3.43477806197342        0.47261931135953
C           47.90488462999537       -2.76194832321191        0.12879315886097
N           48.10844296330733       -1.40542444745605        0.09202459576486
C           46.71968823707227       -3.39889859043197       -0.22665808383293
C           46.72095175303668       -4.87298210854662       -0.36194271469625
C           47.60596574949437       -5.48878038024865       -1.24907885387133
C           47.59613647123254       -6.87075540392998       -1.39189375342214
O           48.43500023849501       -7.47815739090922       -2.26350700208392
C           46.70793142229875       -7.64095696775813       -0.63752140724356
O           46.73377383131020       -9.01541401371754       -0.81037769227570
C           45.85292420935303       -7.03084610325561        0.27861275643358
O           45.00841281969383       -7.77973388105551        1.04493068113718
C           45.84527745400560       -5.64610531069386        0.40166605608458
C           45.53445394933578       -2.70681368931865       -0.45185384317740
C           44.30296964930362       -3.31170293818802       -0.86155435437363
C           43.34722639063025       -2.35392205729113       -0.76532816118829
C           43.99958968720615       -1.16681372526718       -0.31256985236995
N           45.34081448265005       -1.37300806657469       -0.18721890795427
H           42.31742021860804        2.47783674853105        1.05032264886277
H           44.21816307981975        4.38473607865671        1.13717424615924
H           48.27525349742167        4.99345059348278        1.78453377839398
H           48.99696911593481        7.00203469320256        2.55347057681098
H           46.07979433846451        9.35408662371466       -0.21573403631713
H           44.51565282834109        7.23878140227326       -1.82261377190514
H           45.20251901412492        5.10842635747938       -1.21812407398984
H           49.29235898928084        4.44783699729995       -0.55174267868271
H           51.18380105998904        2.53141204338960       -0.56527717984789
H           51.12090575831012       -2.59901560742783        0.82502047556422
H           49.22042737961856       -4.49799324010823        0.61844229929719
H           48.28211112396266       -4.89913355681166       -1.85448530059437
H           48.27722465359168       -8.43626424385322       -2.22429980332425
H           45.84125127561559       -9.38296874503347       -0.77272341628946
H           45.30193353012074       -8.70095488847023        1.07249209813950
H           45.17834011331681       -5.18408200565491        1.11793066463699
H           44.19074343540978       -4.33501597029314       -1.18055761304125
H           42.29492443150951       -2.43205901811850       -0.98451791547513

          :  Hamiltonian                  GFN1-xTB          :
         :: total energy            -373.504878215258 Eh    ::
         :: gradient norm              0.000800018460 Eh/a0 ::
         :: HOMO-LUMO gap              0.051226999225 eV    ::
         :: SCC energy              -378.363391174253 Eh    ::
         :: repulsion energy           5.033914932081 Eh    ::

    * Orbital Energies and Occupations

         #    Occupation            Energy/Eh            Energy/eV
      -------------------------------------------------------------
         1        2.0000           -0.8161359             -22.2082
       ...           ...                  ...                  ...
       312        2.0000           -0.3972456             -10.8096
       313        2.0000           -0.3970410             -10.8040
       314        1.9999           -0.3916664             -10.6578
       315        1.9938           -0.3876128             -10.5475
       316        1.9917           -0.3873359             -10.5399
       317        1.9916           -0.3873275             -10.5397
       318        1.9700           -0.3861077             -10.5065
       319        1.9635           -0.3859175             -10.5014
       320        1.9624           -0.3858906             -10.5006
       321        1.9609           -0.3858525             -10.4996
       322        1.9597           -0.3858225             -10.4988
       323        1.9588           -0.3858005             -10.4982
       324        1.2144           -0.3825461             -10.4096 (HOMO)
       325        0.3513           -0.3806636             -10.3584 (LUMO)
       326        0.3492           -0.3806566             -10.3582
       327        0.3327           -0.3806012             -10.3567
       328                         -0.3446097              -9.3773
       329                         -0.3319765              -9.0335
       330                         -0.3310548              -9.0085
       331                         -0.3278160              -8.9203
       332                         -0.3275938              -8.9143
       333                         -0.3209458              -8.7334
       334                         -0.3025949              -8.2340
       335                         -0.3013816              -8.2010
       ...                                ...                  ...
       659                          1.3300151              36.1916
      -------------------------------------------------------------
                  HL-Gap            0.0018826 Eh            0.0512 eV

Wiberg/Mayer (AO) data.
largest (>0.10) Wiberg bond orders for each atom

     #   Z sym  total        # sym  WBO       # sym  WBO       # sym  WBO
 ---------------------------------------------------------------------------
     1  26 Fe   3.073 --     7 N    0.658    43 N    0.657    28 N    0.652
                            21 N    0.651
     2   6 C    3.915 --     3 C    1.364    42 C    1.362    44 H    0.970
     3   6 C    3.926 --     2 C    1.364     7 N    1.211     4 C    1.173
     4   6 C    3.959 --     5 C    1.650     3 C    1.173    45 H    0.975
     5   6 C    3.962 --     4 C    1.650     6 C    1.175    46 H    0.973
     6   6 C    3.920 --     8 C    1.312     7 N    1.228     5 C    1.175
     7   7 N    3.374 --     6 C    1.228     3 C    1.211     1 Fe   0.658
     8   6 C    3.918 --    18 C    1.335     6 C    1.312     9 C    1.026
     9   6 C    3.988 --    10 C    1.398    17 C    1.386     8 C    1.026
    10   6 C    3.977 --     9 C    1.398    11 C    1.380    47 H    0.970
    11   6 C    3.917 --    10 C    1.380    13 C    1.324    12 O    1.053
    12   8 O    2.049 --    11 C    1.053    48 H    0.847
    13   6 C    3.903 --    15 C    1.340    11 C    1.324    14 O    1.022
    14   8 O    2.021 --    13 C    1.022    49 H    0.846
    15   6 C    3.905 --    17 C    1.384    13 C    1.340    16 O    1.014
    16   8 O    2.025 --    15 C    1.014    50 H    0.860
    17   6 C    3.973 --     9 C    1.386    15 C    1.384    51 H    0.969
    18   6 C    3.919 --     8 C    1.335    21 N    1.201    19 C    1.180
    19   6 C    3.957 --    20 C    1.636    18 C    1.180    52 H    0.973
    20   6 C    3.961 --    19 C    1.636    22 C    1.189    53 H    0.969
    21   7 N    3.373 --    22 C    1.250    18 C    1.201     1 Fe   0.651
    22   6 C    3.909 --    23 C    1.250    21 N    1.250    20 C    1.189
    23   6 C    3.917 --    24 C    1.251    22 C    1.250   125 C    1.199
    24   6 C    3.909 --    23 C    1.251    28 N    1.250    25 C    1.187
    25   6 C    3.961 --    26 C    1.639    24 C    1.187    54 H    0.969
    26   6 C    3.957 --    25 C    1.639    27 C    1.178    55 H    0.973
    27   6 C    3.918 --    29 C    1.338    28 N    1.200    26 C    1.178
    28   7 N    3.373 --    24 C    1.250    27 C    1.200     1 Fe   0.652
    29   6 C    3.918 --    27 C    1.338    39 C    1.311    30 C    1.024
    30   6 C    3.988 --    31 C    1.400    38 C    1.387    29 C    1.024
    31   6 C    3.977 --    30 C    1.400    32 C    1.379    56 H    0.970
    32   6 C    3.917 --    31 C    1.379    34 C    1.324    33 O    1.053
    33   8 O    2.049 --    32 C    1.053    57 H    0.848
    34   6 C    3.903 --    36 C    1.340    32 C    1.324    35 O    1.021
    35   8 O    2.020 --    34 C    1.021    58 H    0.846
    36   6 C    3.905 --    38 C    1.384    34 C    1.340    37 O    1.014
    37   8 O    2.025 --    36 C    1.014    59 H    0.861
    38   6 C    3.973 --    30 C    1.387    36 C    1.384    60 H    0.969
    39   6 C    3.920 --    29 C    1.311    43 N    1.229    40 C    1.176
    40   6 C    3.962 --    41 C    1.649    39 C    1.176    61 H    0.973
    41   6 C    3.959 --    40 C    1.649    42 C    1.174    62 H    0.975
    42   6 C    3.926 --     2 C    1.362    43 N    1.211    41 C    1.174
    43   7 N    3.374 --    39 C    1.229    42 C    1.211     1 Fe   0.657
    44   1 H    1.001 --     2 C    0.970
    45   1 H    0.998 --     4 C    0.975
    46   1 H    1.005 --     5 C    0.973
    47   1 H    0.999 --    10 C    0.970
    48   1 H    0.877 --    12 O    0.847
    49   1 H    0.876 --    14 O    0.846
    50   1 H    0.881 --    16 O    0.860
    51   1 H    1.000 --    17 C    0.969
    52   1 H    1.006 --    19 C    0.973
    53   1 H    1.006 --    20 C    0.969
    54   1 H    1.005 --    25 C    0.969
    55   1 H    1.005 --    26 C    0.973
    56   1 H    0.999 --    31 C    0.970
    57   1 H    0.878 --    33 O    0.848
    58   1 H    0.876 --    35 O    0.846
    59   1 H    0.881 --    37 O    0.861
    60   1 H    1.000 --    38 C    0.969
    61   1 H    1.006 --    40 C    0.973
    62   1 H    0.998 --    41 C    0.975
    63  26 Fe   3.073 --    69 N    0.658   105 N    0.658    90 N    0.652
                            83 N    0.651
    64   6 C    3.914 --    65 C    1.364   104 C    1.362   106 H    0.970
    65   6 C    3.926 --    64 C    1.364    69 N    1.210    66 C    1.173
    66   6 C    3.959 --    67 C    1.650    65 C    1.173   107 H    0.975
    67   6 C    3.962 --    66 C    1.650    68 C    1.175   108 H    0.973
    68   6 C    3.920 --    70 C    1.311    69 N    1.229    67 C    1.175
    69   7 N    3.374 --    68 C    1.229    65 C    1.210    63 Fe   0.658
    70   6 C    3.917 --    80 C    1.336    68 C    1.311    71 C    1.027
    71   6 C    3.987 --    72 C    1.398    79 C    1.386    70 C    1.027
    72   6 C    3.977 --    71 C    1.398    73 C    1.380   109 H    0.970
    73   6 C    3.917 --    72 C    1.380    75 C    1.323    74 O    1.053
    74   8 O    2.049 --    73 C    1.053   110 H    0.847
    75   6 C    3.903 --    77 C    1.340    73 C    1.323    76 O    1.022
    76   8 O    2.021 --    75 C    1.022   111 H    0.846
    77   6 C    3.905 --    79 C    1.384    75 C    1.340    78 O    1.014
    78   8 O    2.025 --    77 C    1.014   112 H    0.861
    79   6 C    3.973 --    71 C    1.386    77 C    1.384   113 H    0.969
    80   6 C    3.918 --    70 C    1.336    83 N    1.201    81 C    1.179
    81   6 C    3.957 --    82 C    1.637    80 C    1.179   114 H    0.973
    82   6 C    3.961 --    81 C    1.637    84 C    1.189   115 H    0.969
    83   7 N    3.372 --    84 C    1.250    80 C    1.201    63 Fe   0.651
    84   6 C    3.909 --    83 N    1.250    85 C    1.250    82 C    1.189
    85   6 C    3.915 --    86 C    1.250    84 C    1.250   128 C    1.200
    86   6 C    3.909 --    90 N    1.250    85 C    1.250    87 C    1.188
    87   6 C    3.961 --    88 C    1.638    86 C    1.188   116 H    0.969
    88   6 C    3.957 --    87 C    1.638    89 C    1.179   117 H    0.973
    89   6 C    3.918 --    91 C    1.338    90 N    1.200    88 C    1.179
    90   7 N    3.372 --    86 C    1.250    89 C    1.200    63 Fe   0.652
    91   6 C    3.917 --    89 C    1.338   101 C    1.311    92 C    1.024
    92   6 C    3.987 --    93 C    1.399   100 C    1.387    91 C    1.024
    93   6 C    3.977 --    92 C    1.399    94 C    1.379   118 H    0.970
    94   6 C    3.917 --    93 C    1.379    96 C    1.324    95 O    1.053
    95   8 O    2.049 --    94 C    1.053   119 H    0.847
    96   6 C    3.904 --    98 C    1.340    94 C    1.324    97 O    1.022
    97   8 O    2.022 --    96 C    1.022   120 H    0.846
    98   6 C    3.905 --   100 C    1.384    96 C    1.340    99 O    1.014
    99   8 O    2.025 --    98 C    1.014   121 H    0.860
   100   6 C    3.973 --    92 C    1.387    98 C    1.384   122 H    0.970
   101   6 C    3.920 --    91 C    1.311   105 N    1.228   102 C    1.176
   102   6 C    3.962 --   103 C    1.648   101 C    1.176   123 H    0.973
   103   6 C    3.959 --   102 C    1.648   104 C    1.174   124 H    0.975
   104   6 C    3.926 --    64 C    1.362   105 N    1.211   103 C    1.174
   105   7 N    3.374 --   101 C    1.228   104 C    1.211    63 Fe   0.658
   106   1 H    1.001 --    64 C    0.970
   107   1 H    0.998 --    66 C    0.975
   108   1 H    1.005 --    67 C    0.973
   109   1 H    0.999 --    72 C    0.970
   110   1 H    0.877 --    74 O    0.847
   111   1 H    0.876 --    76 O    0.846
   112   1 H    0.881 --    78 O    0.861
   113   1 H    1.001 --    79 C    0.969
   114   1 H    1.005 --    81 C    0.973
   115   1 H    1.005 --    82 C    0.969
   116   1 H    1.005 --    87 C    0.969
   117   1 H    1.005 --    88 C    0.973
   118   1 H    0.999 --    93 C    0.970
   119   1 H    0.877 --    95 O    0.847
   120   1 H    0.875 --    97 O    0.846
   121   1 H    0.881 --    99 O    0.860
   122   1 H    1.000 --   100 C    0.970
   123   1 H    1.006 --   102 C    0.973
   124   1 H    0.998 --   103 C    0.975
   125   6 C    3.915 --   126 C    2.540    23 C    1.199
   126   6 C    3.923 --   125 C    2.540   130 C    1.205
   127   6 C    3.922 --   128 C    2.539   151 C    1.205
   128   6 C    3.915 --   127 C    2.539    85 C    1.200
   129  26 Fe   3.097 --   171 N    0.652   149 N    0.651   156 N    0.647
                           135 N    0.645
   130   6 C    3.903 --   131 C    1.246   170 C    1.245   126 C    1.205
   131   6 C    3.910 --   130 C    1.246   135 N    1.244   132 C    1.196
   132   6 C    3.958 --   133 C    1.626   131 C    1.196   172 H    0.970
   133   6 C    3.959 --   132 C    1.626   134 C    1.188   173 H    0.973
   134   6 C    3.916 --   136 C    1.312   135 N    1.208   133 C    1.188
   135   7 N    3.361 --   131 C    1.244   134 C    1.208   129 Fe   0.645
   136   6 C    3.911 --   146 C    1.318   134 C    1.312   137 C    1.041
   137   6 C    3.986 --   138 C    1.386   145 C    1.377   136 C    1.041
   138   6 C    3.972 --   137 C    1.386   139 C    1.383   174 H    0.969
   139   6 C    3.914 --   138 C    1.383   141 C    1.317   140 O    1.046
   140   8 O    2.054 --   139 C    1.046   175 H    0.866
   141   6 C    3.911 --   143 C    1.324   139 C    1.317   142 O    1.055
   142   8 O    2.049 --   141 C    1.055   176 H    0.849
   143   6 C    3.903 --   145 C    1.394   141 C    1.324   144 O    1.014
   144   8 O    2.027 --   143 C    1.014   177 H    0.860
   145   6 C    3.971 --   143 C    1.394   137 C    1.377   178 H    0.969
   146   6 C    3.916 --   136 C    1.318   149 N    1.204   147 C    1.186
   147   6 C    3.958 --   148 C    1.628   146 C    1.186   179 H    0.973
   148   6 C    3.959 --   147 C    1.628   150 C    1.195   180 H    0.970
   149   7 N    3.364 --   150 C    1.248   146 C    1.204   129 Fe   0.651
   150   6 C    3.910 --   149 N    1.248   151 C    1.244   148 C    1.195
   151   6 C    3.902 --   152 C    1.247   150 C    1.244   127 C    1.205
   152   6 C    3.910 --   151 C    1.247   156 N    1.244   153 C    1.194
   153   6 C    3.960 --   154 C    1.629   152 C    1.194   181 H    0.970
   154   6 C    3.959 --   153 C    1.629   155 C    1.186   182 H    0.973
   155   6 C    3.916 --   157 C    1.315   156 N    1.207   154 C    1.186
   156   7 N    3.361 --   152 C    1.244   155 C    1.207   129 Fe   0.647
   157   6 C    3.910 --   167 C    1.320   155 C    1.315   158 C    1.036
   158   6 C    3.988 --   166 C    1.393   159 C    1.392   157 C    1.036
   159   6 C    3.974 --   158 C    1.392   160 C    1.380   183 H    0.969
   160   6 C    3.917 --   159 C    1.380   162 C    1.329   161 O    1.056
   161   8 O    2.052 --   160 C    1.056   184 H    0.847
   162   6 C    3.886 --   164 C    1.345   160 C    1.329   163 O    0.984
   163   8 O    1.988 --   162 C    0.984   185 H    0.862
   164   6 C    3.910 --   166 C    1.380   162 C    1.345   165 O    1.027
   165   8 O    2.030 --   164 C    1.027   186 H    0.862
   166   6 C    3.975 --   158 C    1.393   164 C    1.380   187 H    0.969
   167   6 C    3.916 --   157 C    1.320   171 N    1.203   168 C    1.185
   168   6 C    3.958 --   169 C    1.630   167 C    1.185   188 H    0.973
   169   6 C    3.959 --   168 C    1.630   170 C    1.194   189 H    0.970
   170   6 C    3.910 --   171 N    1.247   130 C    1.245   169 C    1.194
   171   7 N    3.364 --   170 C    1.247   167 C    1.203   129 Fe   0.652
   172   1 H    1.004 --   132 C    0.970
   173   1 H    1.005 --   133 C    0.973
   174   1 H    1.001 --   138 C    0.969
   175   1 H    0.885 --   140 O    0.866
   176   1 H    0.880 --   142 O    0.849
   177   1 H    0.881 --   144 O    0.860
   178   1 H    1.001 --   145 C    0.969
   179   1 H    1.005 --   147 C    0.973
   180   1 H    1.005 --   148 C    0.970
   181   1 H    1.004 --   153 C    0.970
   182   1 H    1.004 --   154 C    0.973
   183   1 H    1.000 --   159 C    0.969
   184   1 H    0.880 --   161 O    0.847
   185   1 H    0.883 --   163 O    0.862
   186   1 H    0.885 --   165 O    0.862
   187   1 H    1.000 --   166 C    0.969
   188   1 H    1.005 --   168 C    0.973
   189   1 H    1.004 --   169 C    0.970
 ---------------------------------------------------------------------------

           -------------------------------------------------
          | TOTAL ENERGY             -373.504878215258 Eh   |
          | GRADIENT NORM               0.000800018460 Eh/α |
          | HOMO-LUMO GAP               0.051226999225 eV   |
           -------------------------------------------------

 * finished run on 2022/07/29 at 21:18:57.384
