   * xtb version 6.5.1 (b24c23e) compiled by 'conda@728c89f4b128' on 2022-07-12
          program call               : xtb Cu_m-CP_C2_2.xyz --gfn 1 --opt -T 48

   ID    Z sym.   atoms
    1   29 Cu     1, 63
    2    6 C      2-6, 8-12, 15-20, 22-27, 29-35, 38-42, 64-68, 70-74, 77-82,
                  84-89, 91-97, 100-104, 125, 126
    3    7 N      7, 21, 28, 43, 69, 83, 90, 105
    4    8 O      13, 14, 36, 37, 75, 76, 98, 99
    5    1 H      44-62, 106-124
########################################################################
[WARNING] Please study the warnings concerning your input carefully
-1- prog_main_parseArguments: Unknown option '-T' provided
########################################################################

          :  Hamiltonian                  GFN1-xTB          :
 * total energy  :  -240.1076342 Eh     change       -0.1778375E-08 Eh
 * total energy  :  -240.4454968 Eh     change       -0.3378626E+00 Eh
 * total energy  :  -240.5492481 Eh     change       -0.1037513E+00 Eh
 * total energy  :  -240.5938701 Eh     change       -0.4462196E-01 Eh
 * total energy  :  -240.6115809 Eh     change       -0.1771078E-01 Eh
 * total energy  :  -240.6204427 Eh     change       -0.8861860E-02 Eh
 * total energy  :  -240.6260611 Eh     change       -0.5618386E-02 Eh
 * total energy  :  -240.6302671 Eh     change       -0.4205976E-02 Eh
 * total energy  :  -240.6333759 Eh     change       -0.3108823E-02 Eh
 * total energy  :  -240.6355263 Eh     change       -0.2150433E-02 Eh
 * total energy  :  -240.6411577 Eh     change       -0.9070993E-05 Eh
 * total energy  :  -240.6411637 Eh     change       -0.6025109E-05 Eh
 * total energy  :  -240.6411691 Eh     change       -0.5361846E-05 Eh
 * total energy  :  -240.6411751 Eh     change       -0.6072061E-05 Eh
 * total energy  :  -240.6411829 Eh     change       -0.7764017E-05 Eh
 * total energy  :  -240.6411917 Eh     change       -0.8801450E-05 Eh
 * total energy  :  -240.6411998 Eh     change       -0.8102048E-05 Eh
 * total energy  :  -240.6412071 Eh     change       -0.7332226E-05 Eh
 * total energy  :  -240.6412097 Eh     change       -0.2558542E-05 Eh
   *** GEOMETRY OPTIMIZATION CONVERGED AFTER 44 ITERATIONS ***

 final structure:
================
126
 xtb: 6.5.1 (b24c23e)
Cu          17.01515650917418        0.02933891749339        0.01483923839066
C           13.61041282087164        0.01887691966358        0.17467131201052
C           14.23759054129043        1.25047086855387        0.28867701394459
C           13.55607160898569        2.50753976472532        0.41389300686562
C           14.50989880870281        3.46581066527191        0.51384840535653
C           15.78400048083786        2.80005195718815        0.46690354839175
N           15.58714016352404        1.45807104613492        0.31516201285594
C           17.02727964097289        3.42763521737413        0.56942584432888
C           17.04009195323271        4.89451028978853        0.79384144251483
C           16.45019581729746        5.44605275116149        1.92754047119044
C           16.46656580418655        6.82504147065283        2.13378057311073
C           15.82442291092583        7.35166465238130        3.36413804622087
O           15.90996935951206        8.68457510246736        3.48497246294867
O           15.27420258767413        6.66897758144097        4.18994416507717
C           17.07300388455907        7.66493671711581        1.19979755291593
C           17.65976840770728        7.11854289222607        0.06915122780947
C           17.64681591981342        5.74581361051576       -0.13320525561571
C           18.26343408228676        2.78248592995055        0.48308290149909
C           19.53293668451673        3.41345096183164        0.70565926837315
C           20.48436296664160        2.46164984268502        0.53151927170296
N           18.46237124795460        1.45953976637948        0.19147523528258
C           19.80766739299559        1.24523402696552        0.19790471271561
C           20.45185278145310        0.03335620142530       -0.11047844124656
C           19.78893030399142       -1.17608570926014       -0.38874775078983
C           20.44134446925896       -2.38581286474416       -0.78801345019438
C           19.48127069018275       -3.33799287130673       -0.90423157818404
C           18.23126537491569       -2.71456781180544       -0.57586442350940
N           18.44820040146377       -1.39354758835623       -0.28736837554720
C           16.99558183615214       -3.36584891086962       -0.55923916428779
C           16.99474253673535       -4.83234794202671       -0.78777446404788
C           17.68352546235636       -5.68057557523255        0.08255845615055
C           17.68166647294517       -7.05385463381595       -0.11811470188461
C           16.99620023839698       -7.59758353065676       -1.19150728194490
C           16.30616010284050       -6.76065110830619       -2.06990316179107
C           15.58557468055524       -7.38218074174006       -3.20889437551940
O           14.93252069556556       -6.49890304692250       -3.97846221220600
O           15.57209947094519       -8.56410098517189       -3.44084031809747
C           16.30520068382058       -5.38205550212084       -1.86636808217584
C           15.76357467733788       -2.74660154872273       -0.33784491506448
C           14.49542072985505       -3.42080908984460       -0.26395915777188
C           13.54968978836308       -2.46956891569005       -0.06566731230947
C           14.23186470188670       -1.20837028889905       -0.00269285964031
N           15.57353622822250       -1.40637800108348       -0.16249936655218
H           12.52667209147972        0.01494855911792        0.22878206656115
H           12.48420922954418        2.62773942188189        0.41355465864394
H           14.37037558356619        4.53111607475909        0.60286813153404
H           15.98620020170774        4.80777762232739        2.67152421650788
H           15.47035399662722        8.94793732749657        4.30971778684031
H           17.08246970023597        8.73615567974146        1.36041337149492
H           18.13052874178466        7.76548139821875       -0.66246255185739
H           18.09835790991652        5.32585643398859       -1.02513279679912
H           19.67434491153155        4.44590796855838        0.98153510521531
H           21.55174709938650        2.56607754765284        0.63158190900123
H           21.49814507467152       -2.48417631285493       -0.97218412269984
H           19.60304136594231       -4.36606916517595       -1.20483358700958
H           18.21075799297640       -5.25750846228111        0.93037120542498
H           18.21649627128520       -7.69951077086576        0.56909862863555
H           16.98439040941621       -8.66796237520665       -1.36327781960167
H           14.49090742945878       -6.98310273544110       -4.69495025971083
H           15.78028310459723       -4.73381395921699       -2.55803622614322
H           14.35500820763832       -4.48682648994544       -0.34321316806276
H           12.48394152758489       -2.59737146557122        0.04031310102353
Cu          27.92773989560970       -0.03256805849745        0.00442446761125
C           31.33248052658692       -0.07481526036346        0.15895881327122
C           30.70530312072705       -1.27623321495793       -0.13500065570544
C           31.38682334910538       -2.50538960269193       -0.42667482336418
C           30.43299698888052       -3.44385466128572       -0.64475160422750
C           29.15889714210616       -2.79919163501526       -0.47198157123388
N           29.35575379443347       -1.48111569241364       -0.17768299916686
C           27.91562690181617       -3.42590204143150       -0.57975617816542
C           27.90286860560072       -4.88574634116740       -0.84612089140759
C           28.49295297959368       -5.77689905090668        0.04555849431260
C           28.47633743147358       -7.14775466695331       -0.20915324769374
C           29.11718548030781       -8.04704954871669        0.78287176963995
O           29.03292095657254       -9.34632481510655        0.46161620333948
O           29.66871170565229       -7.67089605766740        1.78541842744415
C           27.86993160264141       -7.63705696027055       -1.36602887700454
C           27.28310407700069       -6.75175490572417       -2.25657685533394
C           27.29608841131301       -5.38809921884370       -2.00011678492095
C           26.67946966925291       -2.78788163048710       -0.45091629193737
C           25.40996565922833       -3.45693625222862       -0.44633418703212
C           24.45853878019343       -2.50039097213957       -0.30049042502254
N           26.48052984384440       -1.44217220887285       -0.29505991085961
C           25.13523308491498       -1.24168509780821       -0.21908519746183
C           24.49104484024384        0.00449965827728       -0.11531580619036
C           25.15396623369888        1.23855988880445        0.01613497357047
C           24.50155030065974        2.51235578684785        0.03330041447839
C           25.46162317753596        3.45036733884029        0.23402183647534
C           26.71162850949367        2.75393265965044        0.34108028424329
N           26.49469603775624        1.41106071319798        0.18290152041750
C           27.94731017567066        3.36417226746511        0.56923266540770
C           27.94814847517377        4.82500853478222        0.83154083974346
C           27.25936246661365        5.34295799650348        1.93094687937291
C           27.26121855522529        6.70658471185034        2.18918589134980
C           27.94668657403184        7.57069645611472        1.35185610881581
C           28.63672912138086        7.06605478721959        0.24851178956312
C           29.35730498376456        8.02511107095879       -0.62545908170063
O           30.01037810782230        7.44116000854250       -1.64103300162079
O           29.37078299811444        9.21804478743485       -0.45919560774755
C           28.63769186231853        5.69646867946403       -0.00875562697761
C           29.17931580415258        2.70657765347777        0.57653097887118
C           30.44746883089517        3.31981071091018        0.86629323455546
C           31.39320047784987        2.35591954472361        0.74345747569571
C           30.71102571374116        1.14315910809932        0.39160658349803
N           29.36935443589928        1.38246215180989        0.30512216191856
H           32.41622152799174       -0.08875001676971        0.21138603683952
H           32.45868573647550       -2.61890505510331       -0.46620116355911
H           30.57251898218341       -4.47993560382276       -0.90807276758954
H           28.95672993875944       -5.41624090100173        0.95717030309890
H           29.47322354304871       -9.86423818125190        1.15496996002876
H           27.86035446770322       -8.70208841319505       -1.56354961538729
H           26.81234239846191       -7.12466653664013       -3.15919795275109
H           26.84463166897129       -4.70016783347476       -2.70632209184082
H           25.26855630563393       -4.52290944167193       -0.52232653934440
H           23.39115387034287       -2.63174462201012       -0.23997198395549
H           23.44474937196980        2.66541199622309       -0.10871217250628
H           25.33985154708707        4.52026599167586        0.28520061012276
H           26.73212995449931        4.66648867698040        2.59439356111384
H           26.72638440613100        7.09277206764787        3.04941186962294
H           27.95849090443300        8.63856229128240        1.53861465969594
H           30.45199609675720        8.13258245074658       -2.16039345408679
H           29.16261210005313        5.30929077369362       -0.87403729626291
H           30.58788046663369        4.35337472030205        1.13909353065040
H           32.45894882082887        2.44216350219116        0.88532798224451
C           21.86264740576240        0.02735284131364       -0.13351270665792
C           23.08024993159371        0.01768693104259       -0.13513413904530

          :  Hamiltonian                  GFN1-xTB          :
         :: total energy            -240.641209693329 Eh    ::
         :: gradient norm              0.000539656735 Eh/a0 ::
         :: HOMO-LUMO gap              0.007630164655 eV    ::
         :: SCC energy              -243.967674097958 Eh    ::
         :: repulsion energy           3.441270783811 Eh    ::

    * Orbital Energies and Occupations

         #    Occupation            Energy/Eh            Energy/eV
      -------------------------------------------------------------
         1        2.0000           -0.8335080             -22.6809
       ...           ...                  ...                  ...
       202        2.0000           -0.4172669             -11.3544
       203        2.0000           -0.4172342             -11.3535
       204        2.0000           -0.4141291             -11.2690
       205        2.0000           -0.4141228             -11.2689
       206        2.0000           -0.4140080             -11.2657
       207        2.0000           -0.4139431             -11.2640
       208        2.0000           -0.4139281             -11.2636
       209        2.0000           -0.4139029             -11.2629
       210        2.0000           -0.4020422             -10.9401
       211        2.0000           -0.4019111             -10.9366
       212        2.0000           -0.4019078             -10.9365
       213        2.0000           -0.3874814             -10.5439
       214        1.0737           -0.3614699              -9.8361 (HOMO)
       215        0.9263           -0.3611895              -9.8285 (LUMO)
       216                         -0.3446904              -9.3795
       217                         -0.3352455              -9.1225
       218                         -0.3352395              -9.1223
       219                         -0.3272588              -8.9052
       220                         -0.3121015              -8.4927
       221                         -0.3115791              -8.4785
       222                         -0.3110431              -8.4639
       223                         -0.3110180              -8.4632
       224                         -0.3023544              -8.2275
       225                         -0.2944682              -8.0129
       ...                                ...                  ...
       438                          1.3286513              36.1544
      -------------------------------------------------------------
                  HL-Gap            0.0002804 Eh            0.0076 eV

Wiberg/Mayer (AO) data.
largest (>0.10) Wiberg bond orders for each atom

     #   Z sym  total        # sym  WBO       # sym  WBO       # sym  WBO
 ---------------------------------------------------------------------------
     1  29 Cu   2.180 --     7 N    0.503    43 N    0.503    21 N    0.500
                            28 N    0.500
     2   6 C    3.929 --     3 C    1.362    42 C    1.361    44 H    0.971
     3   6 C    3.916 --     2 C    1.362     7 N    1.230     4 C    1.169
     4   6 C    3.955 --     5 C    1.658     3 C    1.169    45 H    0.975
     5   6 C    3.958 --     4 C    1.658     6 C    1.170    46 H    0.973
     6   6 C    3.914 --     8 C    1.321     7 N    1.239     5 C    1.170
     7   7 N    3.243 --     6 C    1.239     3 C    1.230     1 Cu   0.503
     8   6 C    3.932 --    18 C    1.322     6 C    1.321     9 C    1.028
     9   6 C    3.988 --    10 C    1.408    17 C    1.386     8 C    1.028
                            15 C    0.102
    10   6 C    3.984 --     9 C    1.408    11 C    1.396    47 H    0.968
                            16 C    0.104
    11   6 C    3.988 --    10 C    1.396    15 C    1.391    12 C    1.005
    12   6 C    3.836 --    14 O    1.692    13 O    1.090    11 C    1.005
    13   8 O    2.098 --    12 C    1.090    48 H    0.838    14 O    0.129
    14   8 O    1.961 --    12 C    1.692    13 O    0.129
    15   6 C    3.986 --    16 C    1.448    11 C    1.391    49 H    0.971
                             9 C    0.102
    16   6 C    3.994 --    15 C    1.448    17 C    1.442    50 H    0.972
                            10 C    0.104
    17   6 C    3.987 --    16 C    1.442     9 C    1.386    51 H    0.973
    18   6 C    3.910 --     8 C    1.322    21 N    1.226    19 C    1.180
    19   6 C    3.954 --    20 C    1.640    18 C    1.180    52 H    0.973
    20   6 C    3.957 --    19 C    1.640    22 C    1.188    53 H    0.967
    21   7 N    3.245 --    22 C    1.254    18 C    1.226     1 Cu   0.500
    22   6 C    3.902 --    23 C    1.264    21 N    1.254    20 C    1.188
    23   6 C    3.939 --    22 C    1.264    24 C    1.262   125 C    1.178
    24   6 C    3.902 --    23 C    1.262    28 N    1.255    25 C    1.189
    25   6 C    3.957 --    26 C    1.639    24 C    1.189    54 H    0.967
    26   6 C    3.954 --    25 C    1.639    27 C    1.180    55 H    0.973
    27   6 C    3.910 --    29 C    1.323    28 N    1.225    26 C    1.180
    28   7 N    3.245 --    24 C    1.255    27 C    1.225     1 Cu   0.500
    29   6 C    3.932 --    27 C    1.323    39 C    1.321    30 C    1.028
    30   6 C    3.988 --    38 C    1.406    31 C    1.388    29 C    1.028
                            33 C    0.102
    31   6 C    3.987 --    32 C    1.440    30 C    1.388    56 H    0.973
    32   6 C    3.994 --    33 C    1.450    31 C    1.440    57 H    0.972
                            38 C    0.104
    33   6 C    3.985 --    32 C    1.450    34 C    1.388    58 H    0.969
                            30 C    0.102
    34   6 C    3.988 --    38 C    1.399    33 C    1.388    35 C    1.006
    35   6 C    3.836 --    37 O    1.692    36 O    1.089    34 C    1.006
    36   8 O    2.098 --    35 C    1.089    59 H    0.838    37 O    0.129
    37   8 O    1.961 --    35 C    1.692    36 O    0.129
    38   6 C    3.985 --    30 C    1.406    34 C    1.399    60 H    0.969
                            32 C    0.104
    39   6 C    3.915 --    29 C    1.321    43 N    1.239    40 C    1.171
    40   6 C    3.958 --    41 C    1.657    39 C    1.171    61 H    0.973
    41   6 C    3.955 --    40 C    1.657    42 C    1.170    62 H    0.975
    42   6 C    3.916 --     2 C    1.361    43 N    1.231    41 C    1.170
    43   7 N    3.242 --    39 C    1.239    42 C    1.231     1 Cu   0.503
    44   1 H    1.001 --     2 C    0.971
    45   1 H    0.997 --     4 C    0.975
    46   1 H    1.004 --     5 C    0.973
    47   1 H    1.007 --    10 C    0.968
    48   1 H    0.873 --    13 O    0.838
    49   1 H    1.005 --    15 C    0.971
    50   1 H    1.002 --    16 C    0.972
    51   1 H    1.005 --    17 C    0.973
    52   1 H    1.004 --    19 C    0.973
    53   1 H    1.007 --    20 C    0.967
    54   1 H    1.007 --    25 C    0.967
    55   1 H    1.004 --    26 C    0.973
    56   1 H    1.005 --    31 C    0.973
    57   1 H    1.002 --    32 C    0.972
    58   1 H    1.005 --    33 C    0.969
    59   1 H    0.873 --    36 O    0.838
    60   1 H    1.008 --    38 C    0.969
    61   1 H    1.004 --    40 C    0.973
    62   1 H    0.997 --    41 C    0.975
    63  29 Cu   2.180 --    69 N    0.503   105 N    0.503    83 N    0.500
                            90 N    0.500
    64   6 C    3.929 --    65 C    1.362   104 C    1.361   106 H    0.971
    65   6 C    3.916 --    64 C    1.362    69 N    1.230    66 C    1.169
    66   6 C    3.955 --    67 C    1.658    65 C    1.169   107 H    0.975
    67   6 C    3.958 --    66 C    1.658    68 C    1.170   108 H    0.973
    68   6 C    3.914 --    70 C    1.321    69 N    1.239    67 C    1.170
    69   7 N    3.243 --    68 C    1.239    65 C    1.230    63 Cu   0.503
    70   6 C    3.932 --    80 C    1.322    68 C    1.321    71 C    1.028
    71   6 C    3.988 --    72 C    1.408    79 C    1.386    70 C    1.028
                            77 C    0.102
    72   6 C    3.984 --    71 C    1.408    73 C    1.396   109 H    0.968
                            78 C    0.104
    73   6 C    3.988 --    72 C    1.396    77 C    1.391    74 C    1.005
    74   6 C    3.836 --    76 O    1.692    75 O    1.090    73 C    1.005
    75   8 O    2.098 --    74 C    1.090   110 H    0.838    76 O    0.129
    76   8 O    1.961 --    74 C    1.692    75 O    0.129
    77   6 C    3.986 --    78 C    1.448    73 C    1.391   111 H    0.971
                            71 C    0.102
    78   6 C    3.994 --    77 C    1.448    79 C    1.442   112 H    0.972
                            72 C    0.104
    79   6 C    3.987 --    78 C    1.442    71 C    1.386   113 H    0.973
    80   6 C    3.910 --    70 C    1.322    83 N    1.226    81 C    1.180
    81   6 C    3.954 --    82 C    1.640    80 C    1.180   114 H    0.973
    82   6 C    3.957 --    81 C    1.640    84 C    1.188   115 H    0.967
    83   7 N    3.245 --    84 C    1.254    80 C    1.226    63 Cu   0.500
    84   6 C    3.902 --    85 C    1.264    83 N    1.254    82 C    1.188
    85   6 C    3.939 --    84 C    1.264    86 C    1.262   126 C    1.178
    86   6 C    3.902 --    85 C    1.262    90 N    1.255    87 C    1.189
    87   6 C    3.957 --    88 C    1.639    86 C    1.189   116 H    0.967
    88   6 C    3.954 --    87 C    1.639    89 C    1.180   117 H    0.973
    89   6 C    3.910 --    91 C    1.323    90 N    1.225    88 C    1.180
    90   7 N    3.245 --    86 C    1.255    89 C    1.225    63 Cu   0.500
    91   6 C    3.932 --    89 C    1.323   101 C    1.321    92 C    1.028
    92   6 C    3.988 --   100 C    1.406    93 C    1.388    91 C    1.028
                            95 C    0.102
    93   6 C    3.987 --    94 C    1.440    92 C    1.388   118 H    0.973
    94   6 C    3.994 --    95 C    1.450    93 C    1.440   119 H    0.972
                           100 C    0.104
    95   6 C    3.985 --    94 C    1.450    96 C    1.388   120 H    0.969
                            92 C    0.102
    96   6 C    3.988 --   100 C    1.399    95 C    1.388    97 C    1.006
    97   6 C    3.836 --    99 O    1.692    98 O    1.089    96 C    1.006
    98   8 O    2.098 --    97 C    1.089   121 H    0.838    99 O    0.129
    99   8 O    1.961 --    97 C    1.692    98 O    0.129
   100   6 C    3.985 --    92 C    1.406    96 C    1.399   122 H    0.969
                            94 C    0.104
   101   6 C    3.915 --    91 C    1.321   105 N    1.239   102 C    1.171
   102   6 C    3.958 --   103 C    1.657   101 C    1.171   123 H    0.973
   103   6 C    3.955 --   102 C    1.657   104 C    1.170   124 H    0.975
   104   6 C    3.916 --    64 C    1.361   105 N    1.231   103 C    1.170
   105   7 N    3.242 --   101 C    1.239   104 C    1.231    63 Cu   0.503
   106   1 H    1.001 --    64 C    0.971
   107   1 H    0.997 --    66 C    0.975
   108   1 H    1.004 --    67 C    0.973
   109   1 H    1.007 --    72 C    0.968
   110   1 H    0.873 --    75 O    0.838
   111   1 H    1.005 --    77 C    0.971
   112   1 H    1.002 --    78 C    0.972
   113   1 H    1.005 --    79 C    0.973
   114   1 H    1.004 --    81 C    0.973
   115   1 H    1.007 --    82 C    0.967
   116   1 H    1.007 --    87 C    0.967
   117   1 H    1.004 --    88 C    0.973
   118   1 H    1.005 --    93 C    0.973
   119   1 H    1.002 --    94 C    0.972
   120   1 H    1.005 --    95 C    0.969
   121   1 H    0.873 --    98 O    0.838
   122   1 H    1.008 --   100 C    0.969
   123   1 H    1.004 --   102 C    0.973
   124   1 H    0.997 --   103 C    0.975
   125   6 C    3.936 --   126 C    2.581    23 C    1.178
   126   6 C    3.936 --   125 C    2.581    85 C    1.178
 ---------------------------------------------------------------------------

           -------------------------------------------------
          | TOTAL ENERGY             -240.641209693329 Eh   |
          | GRADIENT NORM               0.000539656735 Eh/α |
          | HOMO-LUMO GAP               0.007630164655 eV   |
           -------------------------------------------------

 * finished run on 2022/07/30 at 06:57:44.837
