   * xtb version 6.5.1 (b24c23e) compiled by 'conda@728c89f4b128' on 2022-07-12
          program call               : xtb Co_C2Py_C8_3.xyz --gfn 1 --opt -T 48

   ID    Z sym.   atoms
    1   27 Co     1, 59, 133
    2    6 C      2-6, 8-13, 15-19, 21-26, 28-33, 35-40, 60-64, 66-71, 73-77,
                  79-84, 86-91, 93-98, 117-132, 134-138, 140-145, 147-151,
                  153-158, 160-165, 167-172
    3    7 N      7, 14, 20, 27, 34, 41, 65, 72, 78, 85, 92, 99, 139, 146,
                  152, 159, 166, 173
    4    1 H      42-58, 100-116, 174-189

          :  Hamiltonian                  GFN1-xTB          :
 * total energy  :  -342.5789025 Eh     change       -0.4156163E-08 Eh
 * total energy  :  -342.9697734 Eh     change       -0.3908708E+00 Eh
 * total energy  :  -343.1352239 Eh     change       -0.1654506E+00 Eh
 * total energy  :  -343.2397728 Eh     change       -0.1045489E+00 Eh
 * total energy  :  -343.3310407 Eh     change       -0.9126787E-01 Eh
 * total energy  :  -343.3975167 Eh     change       -0.6647602E-01 Eh
 * total energy  :  -343.4391192 Eh     change       -0.4160246E-01 Eh
 * total energy  :  -343.4716388 Eh     change       -0.3251963E-01 Eh
 * total energy  :  -343.4941617 Eh     change       -0.2252294E-01 Eh
 * total energy  :  -343.5085988 Eh     change       -0.1443712E-01 Eh
 * total energy  :  -343.5497186 Eh     change        0.2818819E-04 Eh
 * total energy  :  -343.5497343 Eh     change       -0.1570000E-04 Eh
 * total energy  :  -343.5497451 Eh     change       -0.1081445E-04 Eh
 * total energy  :  -343.5497414 Eh     change        0.3691532E-05 Eh
 * total energy  :  -343.5496567 Eh     change        0.8471561E-04 Eh
 * total energy  :  -343.5497529 Eh     change       -0.9615011E-04 Eh
 * total energy  :  -343.5497572 Eh     change       -0.4359205E-05 Eh
 * total energy  :  -343.5497646 Eh     change       -0.7369802E-05 Eh
 * total energy  :  -343.5497676 Eh     change       -0.2950424E-05 Eh
   *** GEOMETRY OPTIMIZATION CONVERGED AFTER 111 ITERATIONS ***

 final structure:
================
189
 xtb: 6.5.1 (b24c23e)
Co          27.29422880246772        0.00712007621364       -0.03070884077274
C           23.91188424834313        0.05460772970433       -0.20229312267400
C           24.52418181402226        0.73358769557087        0.82877887151227
C           23.81431339647616        1.43581713676749        1.85403671642872
C           24.74488425768551        2.08096556832512        2.59705720466014
C           26.01659367622288        1.77850790391030        2.01476917383033
N           25.87910827444039        0.91882150156271        0.96097507811847
C           27.20343937388301        2.40739099877165        2.38904811085489
C           27.17076716736826        3.38470581945984        3.40693343231789
C           27.14736937620460        4.22739773581202        4.27939064315703
C           27.12663724483149        5.21089009922738        5.29495497293403
C           28.28433817593658        5.91663444714319        5.64293476126673
C           28.21228451175179        6.87139953237208        6.64156067004321
N           27.08912153278061        7.15625222798949        7.29569353237248
C           25.98450511692831        6.48921712151452        6.97115693805925
C           25.94957398835560        5.51658596815318        5.98777850300091
C           28.41935714170313        2.11780009570116        1.77323688339919
C           29.64180866806336        2.78701930857645        2.08860589512990
C           30.62130068098531        2.14918835366341        1.40264229932083
N           28.63472668919323        1.10607411989173        0.87330055211236
C           29.99052719036416        1.08979242705547        0.68096544899932
C           30.69922387887143        0.09613486592975        0.00371779281118
C           30.05613696527007       -0.94643880024087       -0.66672921911412
C           30.75129433827716       -2.00965014615547       -1.31991283585813
C           29.81603652313065       -2.73764541770463       -1.97771519372533
C           28.55766905114982       -2.10885762122834       -1.72682645045434
N           28.70796178961834       -1.03529084328474       -0.88657360001842
C           27.37764512682240       -2.46716276484753       -2.37497303805091
C           27.40647084622779       -3.50720402864892       -3.32890901388408
C           27.42434214299154       -4.39723099323291       -4.15319399720271
C           27.44114055738978       -5.43169683332872       -5.11695881469781
C           28.61431235056361       -6.13843171966830       -5.40543234267450
C           28.57572180270157       -7.13989369107368       -6.35930581460388
N           27.47101117324722       -7.46965230863672       -7.02362511178504
C           26.35153035794817       -6.80246740547843       -6.75507185186714
C           26.28341762070011       -5.78508788375084       -5.82000166839897
C           26.16899007460437       -1.81815826873825       -2.12370682250966
C           24.94871678213093       -2.12762263458680       -2.80411564659389
C           23.97423996982148       -1.40500996714376       -2.20248359244315
C           24.60389452284639       -0.66439320806134       -1.15179538652597
N           25.96028548680667       -0.88856979817468       -1.14418994482003
H           22.82977828026227        0.07190138764957       -0.25832414407807
H           22.74206092990319        1.42863379176514        1.96843653435836
H           24.60237403848425        2.72195982133570        3.45230718703240
H           29.22013106564193        5.71618792666598        5.13529750365338
H           29.09473258427857        7.43458016744468        6.93135140778346
H           25.08611749976677        6.74673745676301        7.52472499105001
H           25.02758417725553        4.99760088870185        5.75515116724065
H           29.72363121316499        3.62839539731398        2.75769707998128
H           31.67994346710442        2.35235929247882        1.38959957207390
H           31.81805609798369       -2.15960398357200       -1.27797892780343
H           29.95060793010130       -3.61240748975321       -2.59336644263051
H           29.53629488906547       -5.90223426609149       -4.88806331447330
H           29.47107310867581       -7.70441417320169       -6.60327560156997
H           25.46882610493345       -7.09711527425863       -7.31533499743595
H           25.35049730778722       -5.26729936255352       -5.63254344996084
H           24.86745760588975       -2.81924942463125       -3.62732865208155
H           22.91880544342308       -1.37611485160187       -2.42171445343803
Co          64.25581390486717       -0.07265563850215       -0.02003976717808
C           67.63826947733573       -0.20545913123140       -0.14753214549840
C           66.93324765729471       -1.38694721874463       -0.21861344528807
C           67.54848005616681       -2.67466232764835       -0.32691366464569
C           66.55014424218800       -3.56330656016604       -0.54502082539603
C           65.33130921161678       -2.81396020056410       -0.56741062530226
N           65.56697437385110       -1.48964628671536       -0.32663499225802
C           64.09644728617481       -3.36229810569066       -0.91256381532213
C           64.03365991220224       -4.72457201977038       -1.27708738280566
C           63.98462421265952       -5.89636231101164       -1.58777985176991
C           63.93110864110597       -7.26226419691587       -1.94923244875218
C           62.72756330805326       -7.86723146623716       -2.32942176397406
C           62.73053658197880       -9.20767301231281       -2.67215568801468
N           63.82829719300314       -9.95947990853351       -2.65897300669289
C           64.97644835615235       -9.39172627678264       -2.29856093236150
C           65.08119314065488       -8.06010710376476       -1.93816340232303
C           62.92459068047796       -2.60923423978768       -0.90317064188250
C           61.64506724156490       -3.14167406313508       -1.25120566363760
C           60.73379562310159       -2.18125707784481       -0.96162096311987
N           62.81020005709333       -1.31959226848624       -0.45043523801563
C           61.46402229413221       -1.06912940943953       -0.44125410193548
C           60.85379358949232        0.06242490766070        0.10305477901440
C           61.59276739196194        1.14573375445825        0.58128519821328
C           60.99603212659342        2.31353551641096        1.14750822778345
C           61.99660921700296        3.20903654937460        1.33173892640009
C           63.19690244363280        2.57973164942338        0.87909483001200
N           62.94775507647642        1.29920825145553        0.45703008516821
C           64.41949506468551        3.24044907596557        0.77875669318469
C           64.48661882830598        4.60882252435261        1.11858029712885
C           64.54337819586202        5.78489415834612        1.41122313799505
C           64.60789634820810        7.15511398880976        1.75385735690566
C           63.48347753601601        7.83612157322077        2.23461260751441
C           63.59925257145729        9.17649497160761        2.55725107161290
N           64.73458530873542        9.85914597280301        2.43273650596009
C           65.80789301662212        9.21890429977946        1.97603608102109
C           65.79818182972353        7.88038589453758        1.62611962058424
C           65.58058164898236        2.58945381543821        0.36424221368325
C           66.85364908236674        3.23508890250024        0.26211334101406
C           67.76238265056476        2.26373903875025        0.00859274539062
C           67.03821076652251        1.03040133227358       -0.04624592758789
N           65.69218002471013        1.24789426976006        0.12743866012407
H           68.72063785150061       -0.25032284816819       -0.17704804855736
H           68.60979076677842       -2.85191155053726       -0.25586315812083
H           66.61378232281054       -4.62960762612475       -0.69191321486474
H           61.81004261493367       -7.29182841013772       -2.35378853280617
H           61.81114266716912       -9.70287708358970       -2.97106906990594
H           65.85248465284371      -10.03393740926403       -2.29880157354444
H           66.03664815872553       -7.63801310587811       -1.65089124789977
H           61.48186176387932       -4.12999045404214       -1.64983595615601
H           59.66190154567759       -2.21131063802309       -1.07254057253479
H           59.94417993756289        2.42207207590985        1.35736097277663
H           61.94259953155662        4.21080575302566        1.72650117466011
H           62.53918122950641        7.31824124817775        2.35149779480494
H           62.74320249951631        9.72962317857755        2.93286381878149
H           66.71738840001493        9.80602820625197        1.88678805241796
H           66.69569137382565        7.39791556718397        1.25834810460775
H           67.01244712983932        4.29416724796375        0.38762160268901
H           68.82945513725456        2.35098129444195       -0.12024947146054
C           32.10284362617325        0.13207659929295        0.01800140743200
C           33.32674508469483        0.16065737145195        0.03612944377294
C           34.66926081517582        0.17678950066477        0.05220135569968
C           35.89995472719307        0.17986689409002        0.06346041499344
C           37.23740361888630        0.15627367450455        0.06192713448957
C           38.46753988296474        0.11471859848701        0.04564388523412
C           39.80630249969538        0.03045453453390       -0.00059210697834
C           41.02483790017039       -0.07636911753059       -0.06471923863154
C           50.53358845594854       -0.07395881072352        0.05157169156364
C           51.75038679252928        0.03802734089585        0.13570884706034
C           53.08827478008632        0.12403728248549        0.20388576841469
C           54.31801652080092        0.16699444211554        0.23434432418114
C           55.65567794680574        0.18594513048928        0.24713169121379
C           56.88631211185384        0.17915547522631        0.23469232828807
C           58.22857876215390        0.15386349508962        0.20225887531445
C           59.45154341124993        0.11401528563100        0.16187306071498
Co          45.78320440998242       -0.53352198347001       -0.33818286778090
C           42.41393551350090       -0.24106472461333       -0.17066645853863
C           43.10307919344399        0.44530836241405       -1.17452617530145
C           42.45252361092382        1.24017643553148       -2.16750648037956
C           43.38561294071494        1.52159517199081       -3.11077397228267
C           44.60877062588605        0.93668419258872       -2.66232737306319
N           44.43094676158938        0.29008651639341       -1.46969033856527
C           45.82039692890979        1.05328788471133       -3.34537666486499
C           45.82616258446248        1.64223495873425       -4.62724711411589
C           45.82585787836811        2.14530450409711       -5.73153267207349
C           45.82592695039359        2.74218053092428       -7.01317811392445
C           47.01802643237938        2.95395467788376       -7.71543630133236
C           46.96314455581057        3.54738331423129       -8.96411684409899
N           45.82536976554224        3.93050264786708       -9.53763452686084
C           44.68778725855148        3.73207325304614       -8.87672468337088
C           44.63348317161933        3.14780797092369       -7.62374024297666
C           47.03388719461076        0.70776250783346       -2.75193405291881
C           48.30570167079274        1.04392822584160       -3.30925451341572
C           49.23039192275858        0.77105995254261       -2.35553994828077
N           47.17874510020442        0.17395622397923       -1.49792097280177
C           48.52083044479573        0.22629533261507       -1.24214936333549
C           49.14718539797733       -0.24254577144974       -0.08256808625986
C           48.45958907540877       -0.99701069563307        0.87218207507966
C           49.10946803484220       -1.68841226677284        1.94010561624225
C           48.18031124973110       -2.50669956213783        2.49392476235739
C           46.95984058076986       -2.27413323603378        1.78983999279792
N           47.13555675612957       -1.33939852265271        0.80620630479777
C           45.75246420259963       -2.90064419033765        2.10308841010528
C           45.75015641823990       -3.93445105163197        3.06299202434647
C           45.75308667615361       -4.82520537118060        3.88704816731538
C           45.75553375287317       -5.85456478144597        4.85623113126574
C           44.56715518488655       -6.47334862734875        5.26116063713437
C           44.62423985027203       -7.47170402576491        6.21740770259327
N           45.76076382673989       -7.87818082140213        6.77715370096838
C           46.89483173558588       -7.29530363910797        6.39713336634672
C           46.94670620921191       -6.28835837511439        5.44969272721699
C           44.53827941568829       -2.46005866982475        1.57808953474000
C           43.26712578741730       -2.90314032119974        2.05668983497710
C           42.33726196782906       -2.09400840744758        1.49119129514030
C           43.04395098270350       -1.19439340681000        0.63620029526562
N           44.38896580860054       -1.43556403330802        0.67990680758156
H           41.40980089547743        1.51300363974257       -2.14709760121201
H           43.27488851628911        2.08707191651875       -4.02196222713847
H           47.96669077431863        2.65758676536319       -7.28453917015278
H           47.87227479589006        3.72478437896715       -9.53135210664957
H           43.77848044354649        4.05671563399760       -9.37421696892766
H           43.68515066973336        3.00542363826716       -7.11987906907507
H           48.45211629888711        1.46481143318282       -4.29091383826704
H           50.29919212353998        0.90629670389935       -2.39400240634666
H           50.14928599143464       -1.57396731495203        2.20053778868292
H           48.29191790078421       -3.19621810923815        3.31514018142437
H           43.61959763864876       -6.17209868725064        4.83121824701834
H           43.71799185818566       -7.96871666250550        6.55120702935414
H           47.80319802566065       -7.65148042042708        6.87435327822940
H           47.89216916088103       -5.83991592214586        5.16955120694801
H           43.12402798638028       -3.70783935182748        2.75969565234900
H           41.26699596927021       -2.10314629103684        1.61995610980927

          :  Hamiltonian                  GFN1-xTB          :
         :: total energy            -343.549767564651 Eh    ::
         :: gradient norm              0.000543322649 Eh/a0 ::
         :: HOMO-LUMO gap              0.004252828647 eV    ::
         :: SCC energy              -349.684359825937 Eh    ::
         :: repulsion energy           6.291074645505 Eh    ::

    * Orbital Energies and Occupations

         #    Occupation            Energy/Eh            Energy/eV
      -------------------------------------------------------------
         1        2.0000           -0.7828013             -21.3011
       ...           ...                  ...                  ...
       308        2.0000           -0.4036670             -10.9843
       309        2.0000           -0.4036466             -10.9838
       310        1.9999           -0.4011874             -10.9169
       311        1.9999           -0.4011232             -10.9151
       312        1.9998           -0.4002624             -10.8917
       313        1.9998           -0.4002451             -10.8912
       314        1.9997           -0.4000605             -10.8862
       315        1.9997           -0.4000561             -10.8861
       316        1.9731           -0.3957411             -10.7687
       317        1.9597           -0.3953484             -10.7580
       318        1.9098           -0.3945498             -10.7362
       319        1.0887           -0.3916712             -10.6579
       320        1.0722           -0.3916363             -10.6570 (HOMO)
       321        0.9977           -0.3914800             -10.6527 (LUMO)
       322                         -0.3500441              -9.5252
       323                         -0.3482365              -9.4760
       324                         -0.3442482              -9.3675
       325                         -0.3441727              -9.3654
       326                         -0.3426962              -9.3252
       327                         -0.3425983              -9.3226
       328                         -0.3288188              -8.9476
       329                         -0.3179255              -8.6512
       330                         -0.3178012              -8.6478
       331                         -0.3041858              -8.2773
       ...                                ...                  ...
       671                          1.5936798              43.3662
      -------------------------------------------------------------
                  HL-Gap            0.0001563 Eh            0.0043 eV

Wiberg/Mayer (AO) data.
largest (>0.10) Wiberg bond orders for each atom

     #   Z sym  total        # sym  WBO       # sym  WBO       # sym  WBO
 ---------------------------------------------------------------------------
     1  27 Co   3.012 --    41 N    0.635     7 N    0.633    20 N    0.631
                            27 N    0.629
     2   6 C    3.932 --    40 C    1.369     3 C    1.365    42 H    0.970
     3   6 C    3.916 --     2 C    1.365     7 N    1.196     4 C    1.176
     4   6 C    3.959 --     5 C    1.644     3 C    1.176    43 H    0.975
     5   6 C    3.962 --     4 C    1.644     6 C    1.183    44 H    0.974
     6   6 C    3.911 --     8 C    1.273     7 N    1.229     5 C    1.183
     7   7 N    3.348 --     6 C    1.229     3 C    1.196     1 Co   0.633
     8   6 C    3.934 --    17 C    1.280     6 C    1.273     9 C    1.157
     9   6 C    3.957 --    10 C    2.627     8 C    1.157
    10   6 C    3.933 --     9 C    2.627    11 C    1.140
    11   6 C    3.987 --    16 C    1.351    12 C    1.351    10 C    1.140
    12   6 C    3.973 --    13 C    1.457    11 C    1.351    45 H    0.974
                            15 C    0.104
    13   6 C    3.973 --    12 C    1.457    14 N    1.407    46 H    0.972
                            16 C    0.104
    14   7 N    2.994 --    15 C    1.407    13 C    1.407
    15   6 C    3.973 --    16 C    1.456    14 N    1.407    47 H    0.972
                            12 C    0.104
    16   6 C    3.973 --    15 C    1.456    11 C    1.351    48 H    0.974
                            13 C    0.104
    17   6 C    3.905 --     8 C    1.280    20 N    1.213    18 C    1.190
    18   6 C    3.959 --    19 C    1.633    17 C    1.190    49 H    0.974
    19   6 C    3.960 --    18 C    1.633    21 C    1.191    50 H    0.973
    20   7 N    3.347 --    21 C    1.219    17 C    1.213     1 Co   0.631
    21   6 C    3.895 --    22 C    1.265    20 N    1.219    19 C    1.191
    22   6 C    3.937 --    21 C    1.265    23 C    1.262   117 C    1.185
    23   6 C    3.895 --    22 C    1.262    27 N    1.222    24 C    1.192
    24   6 C    3.960 --    25 C    1.632    23 C    1.192    51 H    0.973
    25   6 C    3.958 --    24 C    1.632    26 C    1.190    52 H    0.974
    26   6 C    3.905 --    28 C    1.282    27 N    1.211    25 C    1.190
    27   7 N    3.349 --    23 C    1.222    26 C    1.211     1 Co   0.629
    28   6 C    3.934 --    26 C    1.282    37 C    1.272    29 C    1.157
    29   6 C    3.957 --    30 C    2.627    28 C    1.157
    30   6 C    3.933 --    29 C    2.627    31 C    1.140
    31   6 C    3.987 --    32 C    1.351    36 C    1.351    30 C    1.140
    32   6 C    3.973 --    33 C    1.456    31 C    1.351    53 H    0.974
                            35 C    0.104
    33   6 C    3.973 --    32 C    1.456    34 N    1.407    54 H    0.972
                            36 C    0.104
    34   7 N    2.994 --    33 C    1.407    35 C    1.407
    35   6 C    3.973 --    36 C    1.457    34 N    1.407    55 H    0.972
                            32 C    0.104
    36   6 C    3.973 --    35 C    1.457    31 C    1.351    56 H    0.974
                            33 C    0.104
    37   6 C    3.911 --    28 C    1.272    41 N    1.231    38 C    1.183
    38   6 C    3.962 --    39 C    1.645    37 C    1.183    57 H    0.974
    39   6 C    3.959 --    38 C    1.645    40 C    1.175    58 H    0.975
    40   6 C    3.916 --     2 C    1.369    41 N    1.192    39 C    1.175
    41   7 N    3.346 --    37 C    1.231    40 C    1.192     1 Co   0.635
    42   1 H    1.000 --     2 C    0.970
    43   1 H    0.997 --     4 C    0.975
    44   1 H    1.002 --     5 C    0.974
    45   1 H    1.002 --    12 C    0.974
    46   1 H    1.013 --    13 C    0.972
    47   1 H    1.013 --    15 C    0.972
    48   1 H    1.002 --    16 C    0.974
    49   1 H    1.002 --    18 C    0.974
    50   1 H    1.001 --    19 C    0.973
    51   1 H    1.001 --    24 C    0.973
    52   1 H    1.002 --    25 C    0.974
    53   1 H    1.002 --    32 C    0.974
    54   1 H    1.013 --    33 C    0.972
    55   1 H    1.013 --    35 C    0.972
    56   1 H    1.002 --    36 C    0.974
    57   1 H    1.002 --    38 C    0.974
    58   1 H    0.997 --    39 C    0.975
    59  27 Co   3.014 --    99 N    0.635    65 N    0.633    78 N    0.631
                            85 N    0.629
    60   6 C    3.933 --    98 C    1.368    61 C    1.367   100 H    0.970
    61   6 C    3.916 --    60 C    1.367    65 N    1.194    62 C    1.176
    62   6 C    3.959 --    63 C    1.644    61 C    1.176   101 H    0.975
    63   6 C    3.962 --    62 C    1.644    64 C    1.184   102 H    0.974
    64   6 C    3.911 --    66 C    1.272    65 N    1.231    63 C    1.184
    65   7 N    3.348 --    64 C    1.231    61 C    1.194    59 Co   0.633
    66   6 C    3.935 --    75 C    1.282    64 C    1.272    67 C    1.157
    67   6 C    3.957 --    68 C    2.627    66 C    1.157
    68   6 C    3.933 --    67 C    2.627    69 C    1.140
    69   6 C    3.987 --    70 C    1.351    74 C    1.351    68 C    1.140
    70   6 C    3.973 --    71 C    1.456    69 C    1.351   103 H    0.974
                            73 C    0.104
    71   6 C    3.973 --    70 C    1.456    72 N    1.407   104 H    0.972
                            74 C    0.104
    72   7 N    2.994 --    71 C    1.407    73 C    1.407
    73   6 C    3.973 --    74 C    1.457    72 N    1.407   105 H    0.972
                            70 C    0.104
    74   6 C    3.973 --    73 C    1.457    69 C    1.351   106 H    0.974
                            71 C    0.104
    75   6 C    3.906 --    66 C    1.282    78 N    1.212    76 C    1.189
    76   6 C    3.958 --    77 C    1.633    75 C    1.189   107 H    0.974
    77   6 C    3.960 --    76 C    1.633    79 C    1.191   108 H    0.973
    78   7 N    3.348 --    79 C    1.221    75 C    1.212    59 Co   0.631
    79   6 C    3.895 --    80 C    1.264    78 N    1.221    77 C    1.191
    80   6 C    3.938 --    81 C    1.264    79 C    1.264   132 C    1.185
    81   6 C    3.895 --    80 C    1.264    85 N    1.220    82 C    1.192
    82   6 C    3.960 --    83 C    1.632    81 C    1.192   109 H    0.973
    83   6 C    3.958 --    82 C    1.632    84 C    1.190   110 H    0.974
    84   6 C    3.905 --    86 C    1.280    85 N    1.213    83 C    1.190
    85   7 N    3.349 --    81 C    1.220    84 C    1.213    59 Co   0.629
    86   6 C    3.935 --    84 C    1.280    95 C    1.274    87 C    1.157
    87   6 C    3.957 --    88 C    2.627    86 C    1.157
    88   6 C    3.933 --    87 C    2.627    89 C    1.140
    89   6 C    3.987 --    94 C    1.351    90 C    1.351    88 C    1.140
    90   6 C    3.973 --    91 C    1.457    89 C    1.351   111 H    0.974
                            93 C    0.104
    91   6 C    3.973 --    90 C    1.457    92 N    1.407   112 H    0.972
                            94 C    0.104
    92   7 N    2.994 --    93 C    1.407    91 C    1.407
    93   6 C    3.973 --    94 C    1.456    92 N    1.407   113 H    0.972
                            90 C    0.104
    94   6 C    3.973 --    93 C    1.456    89 C    1.351   114 H    0.974
                            91 C    0.104
    95   6 C    3.911 --    86 C    1.274    99 N    1.230    96 C    1.183
    96   6 C    3.962 --    97 C    1.645    95 C    1.183   115 H    0.974
    97   6 C    3.959 --    96 C    1.645    98 C    1.175   116 H    0.975
    98   6 C    3.916 --    60 C    1.368    99 N    1.194    97 C    1.175
    99   7 N    3.347 --    95 C    1.230    98 C    1.194    59 Co   0.635
   100   1 H    1.000 --    60 C    0.970
   101   1 H    0.997 --    62 C    0.975
   102   1 H    1.002 --    63 C    0.974
   103   1 H    1.002 --    70 C    0.974
   104   1 H    1.013 --    71 C    0.972
   105   1 H    1.013 --    73 C    0.972
   106   1 H    1.002 --    74 C    0.974
   107   1 H    1.002 --    76 C    0.974
   108   1 H    1.001 --    77 C    0.973
   109   1 H    1.001 --    82 C    0.973
   110   1 H    1.002 --    83 C    0.974
   111   1 H    1.002 --    90 C    0.974
   112   1 H    1.013 --    91 C    0.972
   113   1 H    1.013 --    93 C    0.972
   114   1 H    1.002 --    94 C    0.974
   115   1 H    1.002 --    96 C    0.974
   116   1 H    0.997 --    97 C    0.975
   117   6 C    3.871 --   118 C    2.441    22 C    1.185   120 C    0.186
   118   6 C    3.935 --   117 C    2.441   119 C    1.343
   119   6 C    3.887 --   120 C    2.334   118 C    1.343   122 C    0.181
   120   6 C    3.923 --   119 C    2.334   121 C    1.370   117 C    0.186
   121   6 C    3.920 --   122 C    2.332   120 C    1.370   124 C    0.185
   122   6 C    3.889 --   121 C    2.332   123 C    1.346   119 C    0.181
   123   6 C    3.929 --   124 C    2.434   122 C    1.346
   124   6 C    3.874 --   123 C    2.434   134 C    1.192   121 C    0.185
   125   6 C    3.874 --   126 C    2.435   154 C    1.192   128 C    0.185
   126   6 C    3.929 --   125 C    2.435   127 C    1.345
   127   6 C    3.889 --   128 C    2.333   126 C    1.345   130 C    0.181
   128   6 C    3.920 --   127 C    2.333   129 C    1.369   125 C    0.185
   129   6 C    3.923 --   130 C    2.335   128 C    1.369   132 C    0.186
   130   6 C    3.888 --   129 C    2.335   131 C    1.342   127 C    0.181
   131   6 C    3.935 --   132 C    2.442   130 C    1.342
   132   6 C    3.872 --   131 C    2.442    80 C    1.185   129 C    0.186
   133  27 Co   3.022 --   152 N    0.626   173 N    0.626   159 N    0.624
                           139 N    0.624
   134   6 C    3.927 --   135 C    1.261   172 C    1.254   124 C    1.192
   135   6 C    3.895 --   134 C    1.261   139 N    1.220   136 C    1.192
   136   6 C    3.959 --   137 C    1.628   135 C    1.192   174 H    0.973
   137   6 C    3.960 --   136 C    1.628   138 C    1.193   175 H    0.974
   138   6 C    3.904 --   140 C    1.268   139 N    1.222   137 C    1.193
   139   7 N    3.344 --   138 C    1.222   135 C    1.220   133 Co   0.624
   140   6 C    3.929 --   149 C    1.278   138 C    1.268   141 C    1.160
   141   6 C    3.957 --   142 C    2.623   140 C    1.160
   142   6 C    3.930 --   141 C    2.623   143 C    1.141
   143   6 C    3.987 --   144 C    1.351   148 C    1.351   142 C    1.141
   144   6 C    3.973 --   145 C    1.456   143 C    1.351   176 H    0.974
                           147 C    0.104
   145   6 C    3.972 --   144 C    1.456   146 N    1.408   177 H    0.972
                           148 C    0.104
   146   7 N    2.994 --   145 C    1.408   147 C    1.408
   147   6 C    3.972 --   148 C    1.456   146 N    1.408   178 H    0.972
                           144 C    0.104
   148   6 C    3.973 --   147 C    1.456   143 C    1.351   179 H    0.974
                           145 C    0.104
   149   6 C    3.904 --   140 C    1.278   152 N    1.213   150 C    1.191
   150   6 C    3.959 --   151 C    1.629   149 C    1.191   180 H    0.974
   151   6 C    3.960 --   150 C    1.629   153 C    1.194   181 H    0.973
   152   7 N    3.343 --   153 C    1.228   149 C    1.213   133 Co   0.626
   153   6 C    3.895 --   154 C    1.255   152 N    1.228   151 C    1.194
   154   6 C    3.927 --   155 C    1.261   153 C    1.255   125 C    1.192
   155   6 C    3.895 --   154 C    1.261   159 N    1.220   156 C    1.193
   156   6 C    3.959 --   157 C    1.628   155 C    1.193   182 H    0.973
   157   6 C    3.960 --   156 C    1.628   158 C    1.193   183 H    0.974
   158   6 C    3.904 --   160 C    1.268   159 N    1.222   157 C    1.193
   159   7 N    3.344 --   158 C    1.222   155 C    1.220   133 Co   0.624
   160   6 C    3.929 --   169 C    1.278   158 C    1.268   161 C    1.160
   161   6 C    3.957 --   162 C    2.623   160 C    1.160
   162   6 C    3.930 --   161 C    2.623   163 C    1.141
   163   6 C    3.987 --   164 C    1.351   168 C    1.351   162 C    1.141
   164   6 C    3.973 --   165 C    1.456   163 C    1.351   184 H    0.974
                           167 C    0.104
   165   6 C    3.972 --   164 C    1.456   166 N    1.408   185 H    0.972
                           168 C    0.104
   166   7 N    2.994 --   165 C    1.408   167 C    1.408
   167   6 C    3.972 --   168 C    1.456   166 N    1.408   186 H    0.972
                           164 C    0.104
   168   6 C    3.973 --   167 C    1.456   163 C    1.351   187 H    0.974
                           165 C    0.104
   169   6 C    3.904 --   160 C    1.278   173 N    1.213   170 C    1.191
   170   6 C    3.959 --   171 C    1.629   169 C    1.191   188 H    0.974
   171   6 C    3.960 --   170 C    1.629   172 C    1.194   189 H    0.973
   172   6 C    3.895 --   134 C    1.254   173 N    1.229   171 C    1.194
   173   7 N    3.343 --   172 C    1.229   169 C    1.213   133 Co   0.626
   174   1 H    1.001 --   136 C    0.973
   175   1 H    1.002 --   137 C    0.974
   176   1 H    1.002 --   144 C    0.974
   177   1 H    1.013 --   145 C    0.972
   178   1 H    1.013 --   147 C    0.972
   179   1 H    1.002 --   148 C    0.974
   180   1 H    1.002 --   150 C    0.974
   181   1 H    1.001 --   151 C    0.973
   182   1 H    1.001 --   156 C    0.973
   183   1 H    1.002 --   157 C    0.974
   184   1 H    1.002 --   164 C    0.974
   185   1 H    1.013 --   165 C    0.972
   186   1 H    1.013 --   167 C    0.972
   187   1 H    1.002 --   168 C    0.974
   188   1 H    1.002 --   170 C    0.974
   189   1 H    1.001 --   171 C    0.973
 ---------------------------------------------------------------------------

           -------------------------------------------------
          | TOTAL ENERGY             -343.549767564651 Eh   |
          | GRADIENT NORM               0.000543322649 Eh/α |
          | HOMO-LUMO GAP               0.004252828647 eV   |
           -------------------------------------------------

 * finished run on 2022/07/30 at 00:40:23.757
