   * xtb version 6.5.1 (b24c23e) compiled by 'conda@728c89f4b128' on 2022-07-12
          program call               : xtb Zn_Ph2Me_C4_2.xyz --gfn 1 --opt -T 48

   ID    Z sym.   atoms
    1   30 Zn     1, 69
    2    6 C      2-6, 8-11, 13-31, 34-41, 70-74, 76-79, 81-99, 102-109,
                  137-140
    3    7 N      7, 12, 32, 33, 75, 80, 100, 101
    4    1 H      42-68, 110-136
########################################################################
[WARNING] Please study the warnings concerning your input carefully
-1- prog_main_parseArguments: Unknown option '-T' provided
########################################################################

          :  Hamiltonian                  GFN1-xTB          :
 * total energy  :  -215.7875555 Eh     change       -0.4514789E-09 Eh
 * total energy  :  -216.6685359 Eh     change       -0.8809804E+00 Eh
 * total energy  :  -216.7731220 Eh     change       -0.1045862E+00 Eh
 * total energy  :  -216.8272983 Eh     change       -0.5417630E-01 Eh
 * total energy  :  -216.8418022 Eh     change       -0.1450392E-01 Eh
 * total energy  :  -216.8499910 Eh     change       -0.8188772E-02 Eh
 * total energy  :  -216.8551394 Eh     change       -0.5148360E-02 Eh
 * total energy  :  -216.8587524 Eh     change       -0.3613034E-02 Eh
 * total energy  :  -216.8613833 Eh     change       -0.2630913E-02 Eh
 * total energy  :  -216.8630966 Eh     change       -0.1713251E-02 Eh
 * total energy  :  -216.8699128 Eh     change       -0.1025184E-04 Eh
 * total energy  :  -216.8699228 Eh     change       -0.9983913E-05 Eh
 * total energy  :  -216.8699354 Eh     change       -0.1254609E-04 Eh
 * total energy  :  -216.8699499 Eh     change       -0.1448918E-04 Eh
 * total energy  :  -216.8699621 Eh     change       -0.1222473E-04 Eh
 * total energy  :  -216.8699708 Eh     change       -0.8759626E-05 Eh
 * total energy  :  -216.8699774 Eh     change       -0.6603206E-05 Eh
 * total energy  :  -216.8699828 Eh     change       -0.5347994E-05 Eh
 * total energy  :  -216.8699873 Eh     change       -0.4531970E-05 Eh
   *** GEOMETRY OPTIMIZATION CONVERGED AFTER 63 ITERATIONS ***

 final structure:
================
140
 xtb: 6.5.1 (b24c23e)
Zn          15.47029583171391        0.01202338236789       -0.02024886377623
C           12.07090952897078        0.16793181554914       -0.26726980558323
C           12.71953965914184        1.34213493440918        0.09652636209282
C           12.06777489266545        2.58575367081837        0.39946774406798
C           13.03902245516245        3.47280344390051        0.73152450125287
C           14.29801355584128        2.78375641218466        0.62748963216987
N           14.06826956954329        1.49436311191517        0.24449946458121
C           15.55279708185426        3.33698817034287        0.90754223408416
C           16.77587653901935        2.66124899820059        0.84080333643640
C           18.06346073730242        3.25175837615480        1.08207640379219
C           18.99232656563287        2.28200318929680        0.88396033844970
N           16.94794547576873        1.34739719094000        0.49556442873963
C           18.28391016862323        1.09190983270913        0.51393261902110
C           18.89518973603385       -0.13555294094691        0.19081891274154
C           18.22522404479928       -1.31380867238739       -0.19174784374608
C           18.87218023100417       -2.54909593279316       -0.52444571355259
C           17.89422423949047       -3.43993598249520       -0.82939597857389
C           16.63820704793465       -2.75738083452089       -0.68240878040856
C           15.38032361149275       -3.32078939101314       -0.92183303199406
C           15.34340053082641       -4.75877723179851       -1.29273892158640
C           14.86768357905522       -5.15534745178147       -2.54055688582797
C           14.83811659136406       -6.50221279045651       -2.89071633935231
C           14.31301069776739       -6.91812162206590       -4.23860585086905
C           15.28141103484264       -7.45361255154564       -1.97870861291659
C           15.75598781585894       -7.07321455780543       -0.72557364640474
C           16.24560245236978       -8.11471308410606        0.24429815970126
C           15.78795905834343       -5.72513952641141       -0.39013726519378
C           14.15562207104634       -2.64819076737753       -0.84030834937356
C           12.86158902707802       -3.23932654625620       -1.05611794235595
C           11.93896475087095       -2.26083249056652       -0.87794864514621
C           12.65611282368387       -1.06272974832341       -0.54136023537662
N           13.99459071395487       -1.33085300235221       -0.52248149719492
N           16.87768706515342       -1.46453838071942       -0.30079416669564
C           15.59326626772042        4.76785623086097        1.30429665671043
C           15.18060324969235        5.75679875208191        0.41234128707323
C           15.22830024484869        7.09871258960282        0.77356098323899
C           14.81034682333092        8.16496106469009       -0.20301260533053
C           15.68979970039439        7.44873500527336        2.03930874636468
C           16.10228311099062        6.47327508005169        2.94182564259336
C           16.57882139778407        6.85957965154292        4.31618970850318
C           16.05250542873442        5.13439549195847        2.56831646407987
H           10.98820439925793        0.21393346054669       -0.33356476076697
H           11.00140368211452        2.74632895959400        0.36588285685211
H           12.91818591270751        4.50143279709453        1.03191334989773
H           18.23409703064783        4.28077993978468        1.35475081980472
H           20.06431601611455        2.35985180639558        0.97239900022631
H           19.93925884030434       -2.70589304306479       -0.52571817572254
H           18.01082349995017       -4.46598631411166       -1.13950006206172
H           14.53540788710398       -4.40406855459421       -3.24880749894967
H           14.65536506721374       -7.91971844940934       -4.49893631209473
H           13.22068282508082       -6.92166036706994       -4.22745751162326
H           14.63978754537190       -6.22153665142547       -5.01146387870081
H           15.25863385405029       -8.50534976878544       -2.24528565339500
H           16.31481088145933       -7.70685463701279        1.25270020200189
H           15.57510241329908       -8.97485903074835        0.25720126083730
H           17.23676200878114       -8.46413222910107       -0.05328805778198
H           16.14586311794739       -5.41612286270668        0.58601007952871
H           12.68636363826646       -4.27451106383662       -1.30218109377841
H           10.86550277744444       -2.33418683258864       -0.95725833074202
H           14.83737487163412        5.47264030082696       -0.57651310079975
H           14.33090974502501        8.99709139824664        0.31339636072607
H           14.11943609220444        7.76419498443962       -0.94486276069902
H           15.68701163968950        8.55201983506347       -0.72753735313770
H           15.72942865940408        8.49498041188748        2.32486642284288
H           15.73301383261539        6.89349881219462        5.00679593647704
H           17.04545398048718        7.84482232481334        4.30290694212811
H           17.29765780157587        6.13319950415440        4.69597776654472
H           16.36049417642662        4.36439978309892        3.26733408767729
Zn          28.92666222639158        0.01649399966439       -0.01715215928547
C           32.32575814223897        0.21506863491506       -0.23547402053976
C           31.67823937296254       -0.46357859014758       -1.26110270748895
C           32.33107503085167       -1.10148844762734       -2.37020446586041
C           31.36067233227697       -1.66903793334635       -3.12954861648712
C           30.10111253441248       -1.37731057580882       -2.49778210263101
N           30.32973780572306       -0.64952266938835       -1.36640579275042
C           28.84678596783327       -1.80021508206970       -2.95243251135187
C           27.62304064337804       -1.54738054326898       -2.32353288847820
C           26.33579619494389       -1.94234636995457       -2.82539428262266
C           25.40617868526869       -1.48220069526955       -1.94990902764074
N           27.45001953360267       -0.85069233622859       -1.15748698095675
C           26.11382046651464       -0.79682050655306       -0.90837741230197
C           25.50166420372541       -0.14640325872959        0.18098531613475
C           26.17086184331654        0.54782707102530        1.20761462743581
C           25.52301978487365        1.20943198223489        2.30192546890898
C           26.50026599888546        1.75048915943498        3.07346504690761
C           27.75671736091426        1.42107790581007        2.45885530875008
C           29.01403858050073        1.80958434932735        2.93350409271522
C           29.05014648914411        2.56619919247111        4.21126803655066
C           29.52795248974332        3.87434088455650        4.24481454891215
C           29.55818977005352        4.58578764249737        5.44080953733964
C           30.08655087384745        5.99493479806088        5.46495999525173
C           29.11280996081662        3.97582634381089        6.60827289542539
C           28.63557602235962        2.66728501003430        6.59169967385595
C           28.14361584291778        2.02721146325898        7.86190365254109
C           28.60347518164772        1.96944500162091        5.39052008151558
C           30.23913858516389        1.54646020707793        2.30981969490495
C           31.53264030638588        1.92095714320692        2.81697283214155
C           32.45580152302844        1.47955562476244        1.92627764118782
C           31.73960372761835        0.82087874972118        0.86977769311502
N           30.40112831366535        0.87461563251277        1.13307169619208
N           27.51822997645342        0.69537338185464        1.32265921057049
C           28.80710392503043       -2.57978843180731       -4.21625127009861
C           29.21886284173272       -1.99820549789173       -5.41460154447580
C           29.17004657705376       -2.71851285097617       -6.60298781512443
C           29.58563993823345       -2.07692412224333       -7.89948536713999
C           28.70902622301817       -4.03184505649292       -6.58658795604061
C           28.29800971433756       -4.62750915584374       -5.39813643969099
C           27.82200576708487       -6.05525448385919       -5.38615733818017
C           28.34836058355307       -3.89604973818507       -4.21617727881958
H           33.40836395310216        0.26782437530087       -0.29825780105141
H           33.39754869434419       -1.11317858073274       -2.53314126049043
H           31.48227045406107       -2.24488777814262       -4.03316790083509
H           26.16597558569751       -2.48987641242161       -3.73848727021458
H           24.33414459774688       -1.58780337824295       -2.00134149742705
H           24.45588774970848        1.25323651041929        2.45191688546646
H           26.38281674691874        2.33311671634038        3.97305467976848
H           29.86156943414490        4.34463386864484        3.32614253396494
H           29.74835178287859        6.52357137936069        6.35619883462484
H           31.17886257991497        5.98269947118033        5.46774780572140
H           29.75810817888621        6.54504509636258        4.58244261128030
H           29.13611399855444        4.52475099495294        7.54415246745998
H           28.07156724870306        0.94529763221436        7.75111602374033
H           28.81435661754672        2.25267253895519        8.69189883943275
H           27.15337442611988        2.41301867425030        8.11415727930462
H           28.24393155981868        0.94643057104591        5.36551519991460
H           31.70728304464368        2.44574426620858        3.74268356442532
H           33.52904942720360        1.57876544216783        1.97405106711002
H           29.56197747324575       -0.96929800554893       -5.41716571577674
H           30.06668268197278       -2.80361407474861       -8.55485089391032
H           30.27433514617308       -1.25079432388716       -7.72199312773125
H           28.70754090013093       -1.68367975082664       -8.41696862715175
H           28.66851555391942       -4.59711886684121       -7.51209087901555
H           28.66795962562742       -6.72760852679738       -5.22560384976688
H           27.35600993061301       -6.31745548126003       -6.33627182808487
H           27.10277440038776       -6.21764184561783       -4.58308136262754
H           28.04094840681482       -4.35311790738391       -3.28185279113075
C           21.52290334227866       -0.18998580475672        0.25404666084676
C           20.30156994029882       -0.17738089217051        0.23321157376055
C           22.87398185747918       -0.19177622357465        0.25192233430162
C           24.09529571541418       -0.17625891934627        0.23295919198842

          :  Hamiltonian                  GFN1-xTB          :
         :: total energy            -216.869987325086 Eh    ::
         :: gradient norm              0.000460764227 Eh/a0 ::
         :: HOMO-LUMO gap              1.157001172948 eV    ::
         :: SCC energy              -220.401307839647 Eh    ::
         :: repulsion energy           3.649752258209 Eh    ::

    * Orbital Energies and Occupations

         #    Occupation            Energy/Eh            Energy/eV
      -------------------------------------------------------------
         1        2.0000           -0.7545942             -20.5336
       ...           ...                  ...                  ...
       189        2.0000           -0.4177029             -11.3663
       190        2.0000           -0.4167074             -11.3392
       191        2.0000           -0.4167065             -11.3392
       192        2.0000           -0.4157583             -11.3134
       193        2.0000           -0.4157561             -11.3133
       194        2.0000           -0.4155870             -11.3087
       195        2.0000           -0.4155855             -11.3087
       196        2.0000           -0.4139759             -11.2649
       197        2.0000           -0.4128971             -11.2355
       198        2.0000           -0.3882316             -10.5643
       199        2.0000           -0.3882292             -10.5643
       200        2.0000           -0.3810934             -10.3701
       201        2.0000           -0.3720249             -10.1233 (HOMO)
       202                         -0.3295059              -8.9663 (LUMO)
       203                         -0.3205453              -8.7225
       204                         -0.3205430              -8.7224
       205                         -0.3191016              -8.6832
       206                         -0.2898971              -7.8885
       207                         -0.2847627              -7.7488
       208                         -0.2544508              -6.9240
       209                         -0.2543305              -6.9207
       210                         -0.2541110              -6.9147
       211                         -0.2540267              -6.9124
       212                         -0.2539683              -6.9108
       ...                                ...                  ...
       452                          1.5245828              41.4860
      -------------------------------------------------------------
                  HL-Gap            0.0425190 Eh            1.1570 eV

Wiberg/Mayer (AO) data.
largest (>0.10) Wiberg bond orders for each atom

     #   Z sym  total        # sym  WBO       # sym  WBO       # sym  WBO
 ---------------------------------------------------------------------------
     1  30 Zn   2.000 --    32 N    0.460     7 N    0.460    12 N    0.457
                            33 N    0.457
     2   6 C    3.928 --     3 C    1.357    31 C    1.357    42 H    0.972
     3   6 C    3.923 --     2 C    1.357     7 N    1.233     4 C    1.171
     4   6 C    3.960 --     5 C    1.658     3 C    1.171    43 H    0.976
     5   6 C    3.963 --     4 C    1.658     6 C    1.173    44 H    0.974
     6   6 C    3.918 --     8 C    1.316     7 N    1.243     5 C    1.173
     7   7 N    3.294 --     6 C    1.243     3 C    1.233     1 Zn   0.460
     8   6 C    3.934 --     9 C    1.324     6 C    1.316    34 C    1.024
     9   6 C    3.913 --     8 C    1.324    12 N    1.226    10 C    1.179
    10   6 C    3.961 --    11 C    1.647     9 C    1.179    45 H    0.973
    11   6 C    3.962 --    10 C    1.647    13 C    1.186    46 H    0.974
    12   7 N    3.298 --    13 C    1.261     9 C    1.226     1 Zn   0.457
    13   6 C    3.905 --    12 N    1.261    14 C    1.257    11 C    1.186
    14   6 C    3.939 --    15 C    1.259    13 C    1.257   138 C    1.182
    15   6 C    3.905 --    33 N    1.261    14 C    1.259    16 C    1.186
    16   6 C    3.962 --    17 C    1.647    15 C    1.186    47 H    0.974
    17   6 C    3.961 --    16 C    1.647    18 C    1.179    48 H    0.974
    18   6 C    3.914 --    19 C    1.323    33 N    1.226    17 C    1.179
    19   6 C    3.934 --    18 C    1.323    28 C    1.316    20 C    1.024
    20   6 C    3.988 --    21 C    1.403    27 C    1.392    19 C    1.024
                            24 C    0.103
    21   6 C    3.987 --    22 C    1.412    20 C    1.403    49 H    0.972
                            25 C    0.104
    22   6 C    3.988 --    24 C    1.422    21 C    1.412    23 C    1.019
                            27 C    0.103
    23   6 C    3.996 --    22 C    1.019    50 H    0.985    52 H    0.981
                            51 H    0.972
    24   6 C    3.988 --    22 C    1.422    25 C    1.409    53 H    0.972
                            20 C    0.103
    25   6 C    3.988 --    27 C    1.423    24 C    1.409    26 C    1.020
                            21 C    0.104
    26   6 C    3.996 --    25 C    1.020    54 H    0.985    55 H    0.980
                            56 H    0.972
    27   6 C    3.987 --    25 C    1.423    20 C    1.392    57 H    0.972
                            22 C    0.103
    28   6 C    3.918 --    19 C    1.316    32 N    1.243    29 C    1.173
    29   6 C    3.963 --    30 C    1.658    28 C    1.173    58 H    0.973
    30   6 C    3.960 --    29 C    1.658    31 C    1.171    59 H    0.976
    31   6 C    3.923 --     2 C    1.357    32 N    1.234    30 C    1.171
    32   7 N    3.294 --    28 C    1.243    31 C    1.234     1 Zn   0.460
    33   7 N    3.298 --    15 C    1.261    18 C    1.226     1 Zn   0.457
    34   6 C    3.988 --    41 C    1.398    35 C    1.396     8 C    1.024
                            38 C    0.103
    35   6 C    3.986 --    36 C    1.418    34 C    1.396    60 H    0.972
                            39 C    0.103
    36   6 C    3.988 --    35 C    1.418    38 C    1.414    37 C    1.020
                            41 C    0.104
    37   6 C    3.996 --    36 C    1.020    62 H    0.984    61 H    0.982
                            63 H    0.971
    38   6 C    3.988 --    39 C    1.417    36 C    1.414    64 H    0.972
                            34 C    0.103
    39   6 C    3.988 --    38 C    1.417    41 C    1.416    40 C    1.020
                            35 C    0.103
    40   6 C    3.996 --    39 C    1.020    67 H    0.983    66 H    0.983
                            65 H    0.971
    41   6 C    3.987 --    39 C    1.416    34 C    1.398    68 H    0.972
                            36 C    0.104
    42   1 H    1.002 --     2 C    0.972
    43   1 H    0.998 --     4 C    0.976
    44   1 H    1.005 --     5 C    0.974
    45   1 H    1.006 --    10 C    0.973
    46   1 H    1.003 --    11 C    0.974
    47   1 H    1.002 --    16 C    0.974
    48   1 H    1.005 --    17 C    0.974
    49   1 H    1.003 --    21 C    0.972
    50   1 H    1.004 --    23 C    0.985
    51   1 H    1.006 --    23 C    0.972
    52   1 H    1.005 --    23 C    0.981
    53   1 H    1.000 --    24 C    0.972
    54   1 H    1.004 --    26 C    0.985
    55   1 H    1.005 --    26 C    0.980
    56   1 H    1.006 --    26 C    0.972
    57   1 H    1.003 --    27 C    0.972
    58   1 H    1.005 --    29 C    0.973
    59   1 H    0.998 --    30 C    0.976
    60   1 H    1.003 --    35 C    0.972
    61   1 H    1.005 --    37 C    0.982
    62   1 H    1.004 --    37 C    0.984
    63   1 H    1.006 --    37 C    0.971
    64   1 H    1.000 --    38 C    0.972
    65   1 H    1.006 --    40 C    0.971
    66   1 H    1.004 --    40 C    0.983
    67   1 H    1.004 --    40 C    0.983
    68   1 H    1.003 --    41 C    0.972
    69  30 Zn   2.000 --    75 N    0.460   100 N    0.460    80 N    0.457
                           101 N    0.457
    70   6 C    3.928 --    71 C    1.357    99 C    1.357   110 H    0.972
    71   6 C    3.923 --    70 C    1.357    75 N    1.233    72 C    1.171
    72   6 C    3.960 --    73 C    1.658    71 C    1.171   111 H    0.976
    73   6 C    3.963 --    72 C    1.658    74 C    1.173   112 H    0.974
    74   6 C    3.918 --    76 C    1.316    75 N    1.243    73 C    1.173
    75   7 N    3.295 --    74 C    1.243    71 C    1.233    69 Zn   0.460
    76   6 C    3.934 --    77 C    1.324    74 C    1.316   102 C    1.024
    77   6 C    3.913 --    76 C    1.324    80 N    1.226    78 C    1.179
    78   6 C    3.961 --    79 C    1.647    77 C    1.179   113 H    0.973
    79   6 C    3.962 --    78 C    1.647    81 C    1.186   114 H    0.974
    80   7 N    3.298 --    81 C    1.261    77 C    1.226    69 Zn   0.457
    81   6 C    3.905 --    80 N    1.261    82 C    1.258    79 C    1.186
    82   6 C    3.939 --    83 C    1.258    81 C    1.258   140 C    1.182
    83   6 C    3.905 --   101 N    1.261    82 C    1.258    84 C    1.186
    84   6 C    3.962 --    85 C    1.646    83 C    1.186   115 H    0.974
    85   6 C    3.961 --    84 C    1.646    86 C    1.179   116 H    0.974
    86   6 C    3.914 --    87 C    1.323   101 N    1.226    85 C    1.179
    87   6 C    3.934 --    86 C    1.323    96 C    1.316    88 C    1.024
    88   6 C    3.988 --    89 C    1.403    95 C    1.392    87 C    1.024
                            92 C    0.103
    89   6 C    3.986 --    90 C    1.412    88 C    1.403   117 H    0.972
                            93 C    0.104
    90   6 C    3.988 --    92 C    1.422    89 C    1.412    91 C    1.019
                            95 C    0.103
    91   6 C    3.996 --    90 C    1.019   118 H    0.985   120 H    0.981
                           119 H    0.972
    92   6 C    3.988 --    90 C    1.422    93 C    1.409   121 H    0.972
                            88 C    0.103
    93   6 C    3.988 --    95 C    1.423    92 C    1.409    94 C    1.020
                            89 C    0.104
    94   6 C    3.996 --    93 C    1.020   122 H    0.985   123 H    0.980
                           124 H    0.972
    95   6 C    3.987 --    93 C    1.423    88 C    1.392   125 H    0.972
                            90 C    0.103
    96   6 C    3.918 --    87 C    1.316   100 N    1.243    97 C    1.173
    97   6 C    3.963 --    98 C    1.658    96 C    1.173   126 H    0.973
    98   6 C    3.960 --    97 C    1.658    99 C    1.171   127 H    0.976
    99   6 C    3.923 --    70 C    1.357   100 N    1.234    98 C    1.171
   100   7 N    3.294 --    96 C    1.243    99 C    1.234    69 Zn   0.460
   101   7 N    3.298 --    83 C    1.261    86 C    1.226    69 Zn   0.457
   102   6 C    3.988 --   109 C    1.398   103 C    1.396    76 C    1.024
                           106 C    0.103
   103   6 C    3.986 --   104 C    1.418   102 C    1.396   128 H    0.972
                           107 C    0.103
   104   6 C    3.988 --   103 C    1.418   106 C    1.414   105 C    1.020
                           109 C    0.104
   105   6 C    3.996 --   104 C    1.020   130 H    0.984   129 H    0.982
                           131 H    0.971
   106   6 C    3.988 --   107 C    1.417   104 C    1.414   132 H    0.972
                           102 C    0.103
   107   6 C    3.988 --   106 C    1.417   109 C    1.416   108 C    1.020
                           103 C    0.103
   108   6 C    3.996 --   107 C    1.020   135 H    0.983   134 H    0.983
                           133 H    0.971
   109   6 C    3.987 --   107 C    1.416   102 C    1.398   136 H    0.972
                           104 C    0.104
   110   1 H    1.002 --    70 C    0.972
   111   1 H    0.998 --    72 C    0.976
   112   1 H    1.005 --    73 C    0.974
   113   1 H    1.006 --    78 C    0.973
   114   1 H    1.003 --    79 C    0.974
   115   1 H    1.003 --    84 C    0.974
   116   1 H    1.005 --    85 C    0.974
   117   1 H    1.003 --    89 C    0.972
   118   1 H    1.004 --    91 C    0.985
   119   1 H    1.006 --    91 C    0.972
   120   1 H    1.005 --    91 C    0.981
   121   1 H    1.000 --    92 C    0.972
   122   1 H    1.004 --    94 C    0.985
   123   1 H    1.005 --    94 C    0.980
   124   1 H    1.006 --    94 C    0.972
   125   1 H    1.003 --    95 C    0.972
   126   1 H    1.005 --    97 C    0.973
   127   1 H    0.998 --    98 C    0.976
   128   1 H    1.003 --   103 C    0.972
   129   1 H    1.005 --   105 C    0.982
   130   1 H    1.004 --   105 C    0.984
   131   1 H    1.006 --   105 C    0.971
   132   1 H    1.000 --   106 C    0.972
   133   1 H    1.006 --   108 C    0.971
   134   1 H    1.004 --   108 C    0.983
   135   1 H    1.004 --   108 C    0.983
   136   1 H    1.003 --   109 C    0.972
   137   6 C    3.933 --   138 C    2.483   139 C    1.301
   138   6 C    3.922 --   137 C    2.483    14 C    1.182   140 C    0.198
   139   6 C    3.933 --   140 C    2.483   137 C    1.301
   140   6 C    3.922 --   139 C    2.483    82 C    1.182   138 C    0.198
 ---------------------------------------------------------------------------

           -------------------------------------------------
          | TOTAL ENERGY             -216.869987325086 Eh   |
          | GRADIENT NORM               0.000460764227 Eh/α |
          | HOMO-LUMO GAP               1.157001172948 eV   |
           -------------------------------------------------

 * finished run on 2022/07/30 at 09:33:51.485
