   * xtb version 6.5.1 (b24c23e) compiled by 'conda@728c89f4b128' on 2022-07-12
          program call               : xtb Ni_PhCHO_C8_3.xyz --gfn 1 --opt -T 48

   ID    Z sym.   atoms
    1   28 Ni     1, 61, 137
    2    6 C      2-6, 8-13, 15-19, 21-26, 28-33, 35-40, 62-66, 68-73, 75-79,
                  81-86, 88-93, 95-100, 121-136, 138-142, 144-149, 151-155,
                  157-162, 164-169, 171-176
    3    7 N      7, 20, 27, 41, 67, 80, 87, 101, 143, 156, 163, 177
    4    8 O      14, 34, 74, 94, 150, 170
    5    1 H      42-60, 102-120, 178-195

          :  Hamiltonian                  GFN1-xTB          :
 * total energy  :  -356.1112761 Eh     change       -0.1022369E-07 Eh
 * total energy  :  -357.3021598 Eh     change       -0.1190884E+01 Eh
 * total energy  :  -357.5649350 Eh     change       -0.2627752E+00 Eh
 * total energy  :  -357.7068502 Eh     change       -0.1419152E+00 Eh
 * total energy  :  -357.8149949 Eh     change       -0.1081447E+00 Eh
 * total energy  :  -357.8960437 Eh     change       -0.8104877E-01 Eh
 * total energy  :  -357.9419798 Eh     change       -0.4593609E-01 Eh
 * total energy  :  -357.9745677 Eh     change       -0.3258796E-01 Eh
 * total energy  :  -357.9955452 Eh     change       -0.2097745E-01 Eh
 * total energy  :  -358.0068058 Eh     change       -0.1126055E-01 Eh
 * total energy  :  -358.0300301 Eh     change        0.5609027E-04 Eh
 * total energy  :  -358.0300892 Eh     change       -0.5905437E-04 Eh
 * total energy  :  -358.0300348 Eh     change        0.5438050E-04 Eh
 * total energy  :  -358.0300970 Eh     change       -0.6219886E-04 Eh
 * total energy  :  -358.0299394 Eh     change        0.1575434E-03 Eh
 * total energy  :  -358.0300894 Eh     change       -0.1499472E-03 Eh
 * total energy  :  -358.0300877 Eh     change        0.1696421E-05 Eh
 * total energy  :  -358.0301115 Eh     change       -0.2379027E-04 Eh
 * total energy  :  -358.0301154 Eh     change       -0.3889913E-05 Eh
   *** GEOMETRY OPTIMIZATION CONVERGED AFTER 54 ITERATIONS ***

 final structure:
================
195
 xtb: 6.5.1 (b24c23e)
Ni          26.91411312401447        0.00441759222316       -0.04186787294363
C           23.52149271868775        0.06783034364095       -0.15542615884861
C           24.18934145870140        1.27311082685702       -0.10303234353576
C           23.52466715097980        2.54013328972787       -0.07361833098751
C           24.48606344019613        3.47844949228547        0.08780762733102
C           25.73949131854538        2.78390995588059        0.14234054089309
N           25.54791666609426        1.43146452625430        0.01168479415656
C           26.95819535684667        3.40552381780144        0.38173253135890
C           26.97559903042364        4.87373485570942        0.58670932670460
C           27.34180760199339        5.40760597279078        1.82539408861236
C           27.34803028329340        6.77549331659853        2.01997160729095
C           26.99392445349554        7.63985016467968        0.97878447908024
C           27.00824507079904        9.09579538161561        1.21180528185048
O           27.30933893816323        9.60217216311011        2.26212214108369
C           26.63292862205049        7.10676693905573       -0.26081677015954
C           26.62177403221555        5.73653032007751       -0.45357767338182
C           28.16048484225314        2.71352679236822        0.43434543052351
C           29.43004867572301        3.34651025731329        0.62760936601878
C           30.37118514353967        2.38043163121996        0.50561557234767
N           28.32360811058836        1.36533827821698        0.20784897949064
C           29.67575139874195        1.16212117159933        0.23682060651607
C           30.32934404808719       -0.04805011558300       -0.01333331174415
C           29.64210440479532       -1.24151477825882       -0.25154861228248
C           30.30203108672574       -2.48092841431700       -0.51262525215496
C           29.33445126842589       -3.42387933917992       -0.60787963829001
C           28.08526876076836       -2.75663091961611       -0.39868316886827
N           28.28478944378636       -1.40756644423006       -0.21111011128812
C           26.85852075992900       -3.40712905804209       -0.37921309357926
C           26.83361055040958       -4.88138516666328       -0.52171050440642
C           26.18763047040668       -5.47257642093407       -1.61100304776448
C           26.15965934973361       -6.84913142298184       -1.74659514294539
C           26.77340786743905       -7.66263236499515       -0.79118603993510
C           26.75215461169639       -9.13226445476792       -0.90911671373339
O           27.26344490103409       -9.87497805239550       -0.11086399708855
C           27.41949106253525       -7.07111739156047        0.29938515718899
C           27.45204428486586       -5.69616193707766        0.43118137400618
C           25.65149180861440       -2.73281439159644       -0.24433040780491
C           24.37418798393053       -3.38278397975745       -0.19452172916857
C           23.43927214007123       -2.40564213087012       -0.14571981313862
C           24.14617713763037       -1.16149343345849       -0.14806891815522
N           25.50241224474526       -1.37044744374205       -0.17881141890384
H           22.43846703431058        0.08769357249274       -0.18867394686957
H           22.45733173795940        2.67194638171256       -0.15196805355950
H           24.36874136402639        4.54615968261090        0.17646562475071
H           27.60617377230352        4.73897572519683        2.63677095444065
H           27.62449168646656        7.19864207047944        2.97972113889888
H           26.71258189832461        9.70171477602730        0.32886284240816
H           26.36093577988182        7.77060123375818       -1.07502957744718
H           26.35116316763144        5.32534588977702       -1.41955954362784
H           29.57328167543915        4.39813284031739        0.81432680931220
H           31.44277979842678        2.47039764470348        0.57982885942601
H           31.36947824441743       -2.59797469132614       -0.60669891932400
H           29.44567771463075       -4.47672582917074       -0.80909856913928
H           25.71997279245445       -4.84313839786148       -2.35974775616298
H           25.65998925419997       -7.29961246917110       -2.59806142910998
H           26.21856396313420       -9.50977140026835       -1.80742382219468
H           27.89078995145837       -7.71102245161205        1.03763378826315
H           27.94332483690066       -5.24082876603110        1.28360679559674
H           24.22545604305165       -4.45028433661270       -0.19267720537904
H           22.36568960372749       -2.49814691285845       -0.10579455236471
Ni          64.06376790013873       -0.02296288828942       -0.05862694051303
C           67.45679362851961       -0.06957867961385       -0.16842032511259
C           66.78961728807268       -1.27081235530026       -0.28396357446836
C           67.45521202012930       -2.52987308321628       -0.42488885670031
C           66.49407002186260       -3.48177690082286       -0.39558596736241
C           65.23981016867226       -2.80142986079615       -0.25283164398982
N           65.43079663300935       -1.44376467405850       -0.19671081988580
C           64.01980166190255       -3.44984619887784       -0.11177221550194
C           64.00117723564972       -4.93233378202039       -0.11317857713760
C           63.62398437969778       -5.63353338083585        1.03546400194837
C           63.61513480177453       -7.01520827339571        1.03661379426584
C           63.97742552654183       -7.72605673454469       -0.11230263690296
C           63.95994174595842       -9.20024582208072       -0.08567837457509
O           63.64837323406181       -9.84826502174363        0.88037168198620
C           64.34945218125615       -7.02544430604088       -1.26202989079881
C           64.36331277998414       -5.64176928938594       -1.26096852670304
C           62.81597906027717       -2.77140088566433        0.02116274878710
C           61.54500088573926       -3.42510624614006        0.10542780715172
C           60.60369483940206       -2.45152668378531        0.10172264592029
N           62.65354530804316       -1.40486109428898       -0.01896965176257
C           61.30055685157059       -1.20771625554325        0.01602823615047
C           60.64839765832699        0.02594723872862       -0.06703416685575
C           61.33654781473573        1.24147643555583       -0.11228471594646
C           60.67755039203143        2.50625107438082       -0.18926911862265
C           61.64460812052673        3.45259025672223       -0.12913161947786
C           62.89263314545522        2.76107498477508       -0.01186599080371
N           62.69304045154979        1.39934340592659       -0.03148975886201
C           64.11900769819465        3.40133737188106        0.10911727959293
C           64.14295688394172        4.88066482799789        0.18356386006638
C           64.78805835965557        5.62457179471529       -0.80830475836204
C           64.81267873919290        7.00632654143914       -0.74354481313797
C           64.19636777565594        7.67171662663464        0.31884395651010
C           64.21243222265069        9.14311011294288        0.41337135042039
O           63.69884441767044        9.76162231880624        1.30996399863941
C           63.55182863688651        6.92726042995542        1.31232326527953
C           63.52256948192133        5.54759004238504        1.24401815203292
C           65.32595366313620        2.71460942298879        0.14474426798078
C           66.60314900641177        3.35071878800611        0.28843315639938
C           67.53828613394053        2.37718864792259        0.19380572678920
C           66.83161867863659        1.14629885422435        0.01152005312814
N           65.47537788896888        1.35722231628448        0.01092136479907
H           68.53987802800164       -0.08422632990906       -0.20258494655742
H           68.52294246307864       -2.64942177641662       -0.51647122227096
H           66.61190926561893       -4.55160997760826       -0.45232159535157
H           63.35281836646503       -5.08453323534701        1.93009212325579
H           63.33012860262830       -7.56798581108470        1.92532587527192
H           64.26195525669797       -9.67704502414896       -1.04256264752884
H           64.62763883986010       -7.56931902593837       -2.15892409339723
H           64.64233305762330       -5.09997189410914       -2.15764042873199
H           61.40140838301960       -4.49244974047636        0.14366237665951
H           59.53124132507867       -2.55078553350189        0.14568014359516
H           59.61098981230739        2.63653416374182       -0.27567353936434
H           61.53384238353849        4.52379772587229       -0.16870529161182
H           65.25720278365708        5.11099585593895       -1.63996373006578
H           65.31131086509143        7.57632397073443       -1.52076367805440
H           64.74533627707186        9.64757563673609       -0.42072953761137
H           63.07856355420756        7.45268320381179        2.13485603518043
H           63.03186187856801        4.97263006403747        2.02114929743053
H           66.75159128463444        4.40662169984143        0.44565475834307
H           68.61185688331418        2.46321189959657        0.24650881556009
C           31.73427227241820       -0.06537794458008       -0.01539275888850
C           32.95856074080235       -0.07123222675215       -0.01509204552618
C           34.30179310131479       -0.07547904781056       -0.01054947409600
C           35.53232930745668       -0.07327933374034       -0.00286843054577
C           36.87065887258982       -0.07189522267692        0.00260693378232
C           38.10102273817481       -0.06220426319756        0.00933810048611
C           39.44394942537708       -0.05489239870768        0.01290513709944
C           40.66843115675827       -0.04653955274633        0.01634987514690
C           50.30990087659602        0.02293488312142       -0.13907227106447
C           51.53415547256076        0.03386845647184       -0.15454549395309
C           52.87724336394172        0.04384752899823       -0.16314216673787
C           54.10773029883484        0.05110557976454       -0.16062848640728
C           55.44615413207919        0.05385767674241       -0.15310565732927
C           56.67651435582917        0.05454313571567       -0.13835235922391
C           58.01965096400876        0.05091640992477       -0.11643307610855
C           59.24363617225830        0.04335992806261       -0.09342585320181
Ni          45.48981489068765       -0.02250143425788       -0.02056113246253
C           42.07250606375711       -0.04021020428286        0.01402399110714
C           42.74201375984493        1.17136674463546        0.21185594919181
C           42.06818048742906        2.41661419755048        0.39639120870923
C           43.02102369919582        3.33424155976622        0.69023616835150
C           44.27391156508624        2.64290031028145        0.68906463922255
N           44.09429114355559        1.32043138948313        0.35362329231035
C           45.48416877867858        3.23215917336883        1.03164483096677
C           45.48002972215829        4.63791485198798        1.49827076375647
C           46.16905316806254        5.62338895674834        0.78514888435829
C           46.16311511961851        6.93359286749773        1.22356578433967
C           45.47431767724071        7.28698023633632        2.38853458679095
C           45.48813221258730        8.69146154183838        2.83832877198008
O           46.06316426531604        9.57443513574484        2.25548965090456
C           44.78717315172616        6.30259538290529        3.10269990620203
C           44.78715101557908        4.99204622146024        2.65911792094750
C           46.69809958685531        2.56247749165703        0.95131296708821
C           47.95258630355360        3.13369745985957        1.33622845439173
C           48.90920683070826        2.23159376626925        1.00932619938014
N           46.88138613006176        1.29811168157488        0.43903224172509
C           48.23579359986960        1.10869605653995        0.43949379725629
C           48.90601183612265        0.01050714478993       -0.10823841508933
C           48.23021745378801       -1.10448876702420       -0.61337361892526
C           48.89548572743565       -2.22337294972374       -1.20013914722510
C           47.94280939545091       -3.15346199656633       -1.45228765915971
C           46.69913624182652       -2.60050504229315       -1.01029628358023
N           46.88226006408193       -1.32240276845062       -0.53395604661557
C           45.49602291084685       -3.29447388703491       -1.01806326664389
C           45.49921352714924       -4.71209252760798       -1.44730027724494
C           46.23439654866073       -5.66331846829362       -0.73483914993118
C           46.23637338907027       -6.98859480720865       -1.13238020366600
C           45.50877705318379       -7.38712438612303       -2.25622867576628
C           45.49899582844162       -8.79210054569067       -2.70447554607317
O           44.89074812273466       -9.18227919610218       -3.66775262398043
C           44.77599753250193       -6.43434802058593       -2.97158759071212
C           44.76815703571081       -5.11253939965404       -2.56972979764740
C           44.28927046667238       -2.71481891548476       -0.64861207302418
C           43.04453666250402       -3.41970952552326       -0.60622056402291
C           42.08673149331805       -2.50395498610446       -0.32322029648338
C           42.75041222312068       -1.24786011939395       -0.18031749206219
N           44.10145614292529       -1.38644100903315       -0.34108744529999
H           41.00229857498717        2.55422116745532        0.31291557410600
H           42.89709841280433        4.38681784912021        0.88567308985829
H           46.69506894908034        5.35425563698261       -0.12378678953472
H           46.69002082919693        7.70558297525268        0.67306712925332
H           44.91826114934288        8.87627153700907        3.77381085932064
H           44.25300033217790        6.56756678837808        4.00933951813544
H           44.26186197603270        4.22778640499436        3.22077558351415
H           48.07581881572483        4.09946526493471        1.79821394027958
H           49.97712344600919        2.30561835033687        1.13596164042578
H           49.95596400265866       -2.27660089819065       -1.38612801643174
H           48.06112865108491       -4.12614394155692       -1.90101666197283
H           46.79194502057617       -5.35815825077596        0.14349359077550
H           46.80425201589407       -7.72216699265240       -0.56940500609793
H           46.10323232782717       -9.47672992115114       -2.07198564502852
H           44.21739528481923       -6.75229735486862       -3.84536507622564
H           44.20812753603768       -4.37416178870955       -3.13231869459185
H           42.92856687729220       -4.47844121200891       -0.77051805756747
H           41.02402114613979       -2.65046737552240       -0.21763004546977

          :  Hamiltonian                  GFN1-xTB          :
         :: total energy            -358.030115369936 Eh    ::
         :: gradient norm              0.000979841268 Eh/a0 ::
         :: HOMO-LUMO gap              1.062549501475 eV    ::
         :: SCC energy              -363.813794205954 Eh    ::
         :: repulsion energy           5.957581046126 Eh    ::

    * Orbital Energies and Occupations

         #    Occupation            Energy/Eh            Energy/eV
      -------------------------------------------------------------
         1        2.0000           -0.7956746             -21.6514
       ...           ...                  ...                  ...
       315        2.0000           -0.4114227             -11.1954
       316        2.0000           -0.4114082             -11.1950
       317        2.0000           -0.4106429             -11.1742
       318        2.0000           -0.4106415             -11.1741
       319        2.0000           -0.4106300             -11.1738
       320        2.0000           -0.4105089             -11.1705
       321        2.0000           -0.4095881             -11.1455
       322        2.0000           -0.4095812             -11.1453
       323        2.0000           -0.4095122             -11.1434
       324        2.0000           -0.4095064             -11.1432
       325        2.0000           -0.4068554             -11.0711
       326        2.0000           -0.4018054             -10.9337
       327        2.0000           -0.3954456             -10.7606 (HOMO)
       328                         -0.3563976              -9.6981 (LUMO)
       329                         -0.3486672              -9.4877
       330                         -0.3465802              -9.4309
       331                         -0.3455895              -9.4040
       332                         -0.3455714              -9.4035
       333                         -0.3436826              -9.3521
       334                         -0.3428290              -9.3289
       335                         -0.3421697              -9.3109
       336                         -0.3421634              -9.3107
       337                         -0.3307748              -9.0008
       338                         -0.3291136              -8.9556
       ...                                ...                  ...
       683                          1.5940696              43.3768
      -------------------------------------------------------------
                  HL-Gap            0.0390480 Eh            1.0625 eV

Wiberg/Mayer (AO) data.
largest (>0.10) Wiberg bond orders for each atom

     #   Z sym  total        # sym  WBO       # sym  WBO       # sym  WBO
 ---------------------------------------------------------------------------
     1  28 Ni   3.008 --    41 N    0.663     7 N    0.663    20 N    0.661
                            27 N    0.661
     2   6 C    3.935 --     3 C    1.364    40 C    1.364    42 H    0.970
     3   6 C    3.922 --     2 C    1.364     7 N    1.213     4 C    1.174
     4   6 C    3.960 --     5 C    1.651     3 C    1.174    43 H    0.975
     5   6 C    3.962 --     4 C    1.651     6 C    1.176    44 H    0.972
     6   6 C    3.919 --     8 C    1.322     7 N    1.223     5 C    1.176
     7   7 N    3.402 --     6 C    1.223     3 C    1.213     1 Ni   0.663
     8   6 C    3.938 --    17 C    1.329     6 C    1.322     9 C    1.025
     9   6 C    3.986 --    16 C    1.386    10 C    1.383     8 C    1.025
    10   6 C    3.988 --    11 C    1.470     9 C    1.383    45 H    0.972
                            15 C    0.100
    11   6 C    3.988 --    10 C    1.470    12 C    1.371    46 H    0.968
                            16 C    0.101
    12   6 C    3.985 --    15 C    1.379    11 C    1.371    13 C    1.048
    13   6 C    3.864 --    14 O    1.809    12 C    1.048    47 H    0.942
    14   8 O    2.005 --    13 C    1.809
    15   6 C    3.993 --    16 C    1.464    12 C    1.379    48 H    0.971
                            10 C    0.100
    16   6 C    3.988 --    15 C    1.464     9 C    1.386    49 H    0.972
                            11 C    0.101
    17   6 C    3.914 --     8 C    1.329    20 N    1.206    18 C    1.182
    18   6 C    3.958 --    19 C    1.638    17 C    1.182    50 H    0.972
    19   6 C    3.961 --    18 C    1.638    21 C    1.190    51 H    0.973
    20   7 N    3.406 --    21 C    1.240    17 C    1.206     1 Ni   0.661
    21   6 C    3.901 --    22 C    1.262    20 N    1.240    19 C    1.190
    22   6 C    3.944 --    23 C    1.263    21 C    1.262   121 C    1.186
    23   6 C    3.901 --    22 C    1.263    27 N    1.238    24 C    1.191
    24   6 C    3.961 --    25 C    1.637    23 C    1.191    52 H    0.973
    25   6 C    3.958 --    24 C    1.637    26 C    1.183    53 H    0.972
    26   6 C    3.914 --    28 C    1.326    27 N    1.207    25 C    1.183
    27   7 N    3.406 --    23 C    1.238    26 C    1.207     1 Ni   0.661
    28   6 C    3.938 --    26 C    1.326    37 C    1.321    29 C    1.030
    29   6 C    3.986 --    30 C    1.383    36 C    1.382    28 C    1.030
    30   6 C    3.988 --    31 C    1.465    29 C    1.383    54 H    0.972
                            35 C    0.101
    31   6 C    3.993 --    30 C    1.465    32 C    1.379    55 H    0.971
                            36 C    0.100
    32   6 C    3.984 --    31 C    1.379    35 C    1.370    33 C    1.048
    33   6 C    3.864 --    34 O    1.809    32 C    1.048    56 H    0.942
    34   8 O    2.004 --    33 C    1.809
    35   6 C    3.988 --    36 C    1.470    32 C    1.370    57 H    0.968
                            30 C    0.101
    36   6 C    3.988 --    35 C    1.470    29 C    1.382    58 H    0.972
                            31 C    0.100
    37   6 C    3.919 --    28 C    1.321    41 N    1.223    38 C    1.176
    38   6 C    3.963 --    39 C    1.650    37 C    1.176    59 H    0.972
    39   6 C    3.959 --    38 C    1.650    40 C    1.174    60 H    0.975
    40   6 C    3.922 --     2 C    1.364    41 N    1.213    39 C    1.174
    41   7 N    3.402 --    37 C    1.223    40 C    1.213     1 Ni   0.663
    42   1 H    1.000 --     2 C    0.970
    43   1 H    0.997 --     4 C    0.975
    44   1 H    1.004 --     5 C    0.972
    45   1 H    1.003 --    10 C    0.972
    46   1 H    1.005 --    11 C    0.968
    47   1 H    1.010 --    13 C    0.942
    48   1 H    1.000 --    15 C    0.971
    49   1 H    1.003 --    16 C    0.972
    50   1 H    1.003 --    18 C    0.972
    51   1 H    1.001 --    19 C    0.973
    52   1 H    1.001 --    24 C    0.973
    53   1 H    1.003 --    25 C    0.972
    54   1 H    1.004 --    30 C    0.972
    55   1 H    1.000 --    31 C    0.971
    56   1 H    1.010 --    33 C    0.942
    57   1 H    1.005 --    35 C    0.968
    58   1 H    1.004 --    36 C    0.972
    59   1 H    1.004 --    38 C    0.972
    60   1 H    0.997 --    39 C    0.975
    61  28 Ni   3.008 --   101 N    0.663    67 N    0.663    80 N    0.661
                            87 N    0.661
    62   6 C    3.935 --    63 C    1.365   100 C    1.364   102 H    0.970
    63   6 C    3.922 --    62 C    1.365    67 N    1.213    64 C    1.174
    64   6 C    3.960 --    65 C    1.651    63 C    1.174   103 H    0.975
    65   6 C    3.962 --    64 C    1.651    66 C    1.176   104 H    0.972
    66   6 C    3.919 --    68 C    1.322    67 N    1.223    65 C    1.176
    67   7 N    3.402 --    66 C    1.223    63 C    1.213    61 Ni   0.663
    68   6 C    3.938 --    77 C    1.329    66 C    1.322    69 C    1.025
    69   6 C    3.986 --    76 C    1.386    70 C    1.383    68 C    1.025
    70   6 C    3.988 --    71 C    1.470    69 C    1.383   105 H    0.972
                            75 C    0.100
    71   6 C    3.988 --    70 C    1.470    72 C    1.371   106 H    0.968
                            76 C    0.101
    72   6 C    3.985 --    75 C    1.379    71 C    1.371    73 C    1.048
    73   6 C    3.864 --    74 O    1.809    72 C    1.048   107 H    0.942
    74   8 O    2.005 --    73 C    1.809
    75   6 C    3.993 --    76 C    1.464    72 C    1.379   108 H    0.971
                            70 C    0.100
    76   6 C    3.988 --    75 C    1.464    69 C    1.386   109 H    0.972
                            71 C    0.101
    77   6 C    3.914 --    68 C    1.329    80 N    1.206    78 C    1.182
    78   6 C    3.958 --    79 C    1.638    77 C    1.182   110 H    0.972
    79   6 C    3.961 --    78 C    1.638    81 C    1.190   111 H    0.973
    80   7 N    3.407 --    81 C    1.239    77 C    1.206    61 Ni   0.661
    81   6 C    3.902 --    82 C    1.262    80 N    1.239    79 C    1.190
    82   6 C    3.945 --    83 C    1.264    81 C    1.262   136 C    1.185
    83   6 C    3.902 --    82 C    1.264    87 N    1.238    84 C    1.190
    84   6 C    3.961 --    85 C    1.637    83 C    1.190   112 H    0.973
    85   6 C    3.959 --    84 C    1.637    86 C    1.183   113 H    0.972
    86   6 C    3.914 --    88 C    1.326    87 N    1.208    85 C    1.183
    87   7 N    3.406 --    83 C    1.238    86 C    1.208    61 Ni   0.661
    88   6 C    3.938 --    86 C    1.326    97 C    1.321    89 C    1.030
    89   6 C    3.986 --    90 C    1.383    96 C    1.382    88 C    1.030
    90   6 C    3.988 --    91 C    1.465    89 C    1.383   114 H    0.972
                            95 C    0.101
    91   6 C    3.993 --    90 C    1.465    92 C    1.379   115 H    0.971
                            96 C    0.100
    92   6 C    3.984 --    91 C    1.379    95 C    1.370    93 C    1.048
    93   6 C    3.864 --    94 O    1.809    92 C    1.048   116 H    0.942
    94   8 O    2.005 --    93 C    1.809
    95   6 C    3.988 --    96 C    1.470    92 C    1.370   117 H    0.968
                            90 C    0.101
    96   6 C    3.988 --    95 C    1.470    89 C    1.382   118 H    0.972
                            91 C    0.100
    97   6 C    3.919 --    88 C    1.321   101 N    1.223    98 C    1.176
    98   6 C    3.963 --    99 C    1.650    97 C    1.176   119 H    0.972
    99   6 C    3.959 --    98 C    1.650   100 C    1.174   120 H    0.975
   100   6 C    3.922 --    62 C    1.364   101 N    1.213    99 C    1.174
   101   7 N    3.402 --    97 C    1.223   100 C    1.213    61 Ni   0.663
   102   1 H    1.000 --    62 C    0.970
   103   1 H    0.997 --    64 C    0.975
   104   1 H    1.004 --    65 C    0.972
   105   1 H    1.003 --    70 C    0.972
   106   1 H    1.005 --    71 C    0.968
   107   1 H    1.010 --    73 C    0.942
   108   1 H    1.000 --    75 C    0.971
   109   1 H    1.003 --    76 C    0.972
   110   1 H    1.003 --    78 C    0.972
   111   1 H    1.001 --    79 C    0.973
   112   1 H    1.001 --    84 C    0.973
   113   1 H    1.003 --    85 C    0.972
   114   1 H    1.004 --    90 C    0.972
   115   1 H    1.000 --    91 C    0.971
   116   1 H    1.010 --    93 C    0.942
   117   1 H    1.005 --    95 C    0.968
   118   1 H    1.004 --    96 C    0.972
   119   1 H    1.004 --    98 C    0.972
   120   1 H    0.997 --    99 C    0.975
   121   6 C    3.878 --   122 C    2.445    22 C    1.186   124 C    0.187
   122   6 C    3.938 --   121 C    2.445   123 C    1.341
   123   6 C    3.894 --   124 C    2.340   122 C    1.341   126 C    0.183
   124   6 C    3.928 --   123 C    2.340   125 C    1.367   121 C    0.187
   125   6 C    3.926 --   126 C    2.339   124 C    1.367   128 C    0.187
   126   6 C    3.894 --   125 C    2.339   127 C    1.343   123 C    0.183
   127   6 C    3.935 --   128 C    2.442   126 C    1.343
   128   6 C    3.878 --   127 C    2.442   138 C    1.189   125 C    0.187
   129   6 C    3.878 --   130 C    2.443   158 C    1.188   132 C    0.187
   130   6 C    3.935 --   129 C    2.443   131 C    1.342
   131   6 C    3.894 --   132 C    2.340   130 C    1.342   134 C    0.183
   132   6 C    3.926 --   131 C    2.340   133 C    1.366   129 C    0.187
   133   6 C    3.927 --   134 C    2.341   132 C    1.366   136 C    0.187
   134   6 C    3.893 --   133 C    2.341   135 C    1.340   131 C    0.183
   135   6 C    3.938 --   136 C    2.446   134 C    1.340
   136   6 C    3.878 --   135 C    2.446    82 C    1.185   133 C    0.187
   137  28 Ni   3.000 --   177 N    0.660   156 N    0.660   143 N    0.660
                           163 N    0.660
   138   6 C    3.935 --   139 C    1.260   176 C    1.259   128 C    1.189
   139   6 C    3.902 --   138 C    1.260   143 N    1.239   140 C    1.193
   140   6 C    3.959 --   141 C    1.633   139 C    1.193   178 H    0.973
   141   6 C    3.959 --   140 C    1.633   142 C    1.186   179 H    0.973
   142   6 C    3.912 --   144 C    1.323   143 N    1.206   141 C    1.186
   143   7 N    3.399 --   139 C    1.239   142 C    1.206   137 Ni   0.660
   144   6 C    3.933 --   153 C    1.324   142 C    1.323   145 C    1.031
   145   6 C    3.986 --   152 C    1.384   146 C    1.381   144 C    1.031
   146   6 C    3.987 --   147 C    1.470   145 C    1.381   180 H    0.972
                           151 C    0.100
   147   6 C    3.988 --   146 C    1.470   148 C    1.371   181 H    0.968
                           152 C    0.101
   148   6 C    3.984 --   151 C    1.379   147 C    1.371   149 C    1.048
   149   6 C    3.864 --   150 O    1.810   148 C    1.048   182 H    0.942
   150   8 O    2.005 --   149 C    1.810
   151   6 C    3.993 --   152 C    1.465   148 C    1.379   183 H    0.971
                           146 C    0.100
   152   6 C    3.988 --   151 C    1.465   145 C    1.384   184 H    0.972
                           147 C    0.101
   153   6 C    3.912 --   144 C    1.324   156 N    1.205   154 C    1.185
   154   6 C    3.959 --   155 C    1.634   153 C    1.185   185 H    0.972
   155   6 C    3.959 --   154 C    1.634   157 C    1.192   186 H    0.973
   156   7 N    3.399 --   157 C    1.239   153 C    1.205   137 Ni   0.660
   157   6 C    3.902 --   158 C    1.260   156 N    1.239   155 C    1.192
   158   6 C    3.935 --   159 C    1.260   157 C    1.260   129 C    1.188
   159   6 C    3.902 --   158 C    1.260   163 N    1.239   160 C    1.193
   160   6 C    3.959 --   161 C    1.633   159 C    1.193   187 H    0.973
   161   6 C    3.959 --   160 C    1.633   162 C    1.186   188 H    0.973
   162   6 C    3.912 --   164 C    1.323   163 N    1.206   161 C    1.186
   163   7 N    3.399 --   159 C    1.239   162 C    1.206   137 Ni   0.660
   164   6 C    3.933 --   173 C    1.324   162 C    1.323   165 C    1.031
   165   6 C    3.986 --   166 C    1.384   172 C    1.381   164 C    1.031
   166   6 C    3.988 --   167 C    1.465   165 C    1.384   189 H    0.972
                           171 C    0.101
   167   6 C    3.993 --   166 C    1.465   168 C    1.379   190 H    0.971
                           172 C    0.100
   168   6 C    3.984 --   167 C    1.379   171 C    1.370   169 C    1.048
   169   6 C    3.864 --   170 O    1.809   168 C    1.048   191 H    0.942
   170   8 O    2.005 --   169 C    1.809
   171   6 C    3.988 --   172 C    1.470   168 C    1.370   192 H    0.968
                           166 C    0.101
   172   6 C    3.987 --   171 C    1.470   165 C    1.381   193 H    0.972
                           167 C    0.100
   173   6 C    3.912 --   164 C    1.324   177 N    1.205   174 C    1.185
   174   6 C    3.959 --   175 C    1.634   173 C    1.185   194 H    0.973
   175   6 C    3.959 --   174 C    1.634   176 C    1.193   195 H    0.973
   176   6 C    3.902 --   138 C    1.259   177 N    1.239   175 C    1.193
   177   7 N    3.399 --   176 C    1.239   173 C    1.205   137 Ni   0.660
   178   1 H    1.001 --   140 C    0.973
   179   1 H    1.003 --   141 C    0.973
   180   1 H    1.004 --   146 C    0.972
   181   1 H    1.005 --   147 C    0.968
   182   1 H    1.010 --   149 C    0.942
   183   1 H    1.000 --   151 C    0.971
   184   1 H    1.004 --   152 C    0.972
   185   1 H    1.003 --   154 C    0.972
   186   1 H    1.001 --   155 C    0.973
   187   1 H    1.001 --   160 C    0.973
   188   1 H    1.003 --   161 C    0.973
   189   1 H    1.004 --   166 C    0.972
   190   1 H    1.000 --   167 C    0.971
   191   1 H    1.010 --   169 C    0.942
   192   1 H    1.005 --   171 C    0.968
   193   1 H    1.004 --   172 C    0.972
   194   1 H    1.003 --   174 C    0.973
   195   1 H    1.001 --   175 C    0.973
 ---------------------------------------------------------------------------

           -------------------------------------------------
          | TOTAL ENERGY             -358.030115369936 Eh   |
          | GRADIENT NORM               0.000979841268 Eh/α |
          | HOMO-LUMO GAP               1.062549501475 eV   |
           -------------------------------------------------

 * finished run on 2022/07/30 at 04:34:57.847
