   * xtb version 6.5.1 (b24c23e) compiled by 'conda@728c89f4b128' on 2022-07-12
          program call               : xtb Ni_C2Py_C8_3.xyz --gfn 1 --opt -T 48

   ID    Z sym.   atoms
    1   28 Ni     1, 59, 133
    2    6 C      2-6, 8-13, 15-19, 21-26, 28-33, 35-40, 60-64, 66-71, 73-77,
                  79-84, 86-91, 93-98, 117-132, 134-138, 140-145, 147-151,
                  153-158, 160-165, 167-172
    3    7 N      7, 14, 20, 27, 34, 41, 65, 72, 78, 85, 92, 99, 139, 146,
                  152, 159, 166, 173
    4    1 H      42-58, 100-116, 174-189

          :  Hamiltonian                  GFN1-xTB          :
 * total energy  :  -344.4745668 Eh     change       -0.1745093E-10 Eh
 * total energy  :  -344.8728568 Eh     change       -0.3982900E+00 Eh
 * total energy  :  -345.0421606 Eh     change       -0.1693038E+00 Eh
 * total energy  :  -345.1486760 Eh     change       -0.1065154E+00 Eh
 * total energy  :  -345.2404974 Eh     change       -0.9182143E-01 Eh
 * total energy  :  -345.3060131 Eh     change       -0.6551571E-01 Eh
 * total energy  :  -345.3474129 Eh     change       -0.4139976E-01 Eh
 * total energy  :  -345.3794574 Eh     change       -0.3204448E-01 Eh
 * total energy  :  -345.4014907 Eh     change       -0.2203337E-01 Eh
 * total energy  :  -345.4153162 Eh     change       -0.1382546E-01 Eh
 * total energy  :  -345.4543930 Eh     change       -0.2196383E-04 Eh
 * total energy  :  -345.4543248 Eh     change        0.6812542E-04 Eh
 * total energy  :  -345.4544015 Eh     change       -0.7669986E-04 Eh
 * total energy  :  -345.4543940 Eh     change        0.7507351E-05 Eh
 * total energy  :  -345.4543875 Eh     change        0.6499732E-05 Eh
 * total energy  :  -345.4543949 Eh     change       -0.7413970E-05 Eh
 * total energy  :  -345.4544047 Eh     change       -0.9770846E-05 Eh
 * total energy  :  -345.4544126 Eh     change       -0.7883216E-05 Eh
 * total energy  :  -345.4544147 Eh     change       -0.2133373E-05 Eh
   *** GEOMETRY OPTIMIZATION CONVERGED AFTER 109 ITERATIONS ***

 final structure:
================
189
 xtb: 6.5.1 (b24c23e)
Ni          27.22858807394411       -0.03891178381371       -0.05678366382384
C           23.82510550207793       -0.02115564140539       -0.14536823054135
C           24.45167321022006        0.81508655686808        0.75416358525043
C           23.74767740345104        1.67857883251169        1.65206439559497
C           24.68695570926426        2.34209773684773        2.36719172979277
C           25.95908523333609        1.88458615251224        1.89857802080636
N           25.81056998934214        0.94507214721380        0.91648651531231
C           27.17379017304599        2.37437669852240        2.37962134001884
C           27.15349816300399        3.36392097901566        3.38702375691417
C           27.14005139668765        4.21521360394459        4.25137275821415
C           27.12757309323264        5.20938828321821        5.25670913097686
C           28.31764686583376        5.76334023330340        5.74260904060610
C           28.25223788060407        6.73472168918599        6.72556626210971
N           27.10590826079159        7.17413778201872        7.23873192437549
C           25.97027001062675        6.65224201228876        6.78225580370847
C           25.92625572927000        5.67718244243374        5.80166098927001
C           28.40828830307780        1.93851815100450        1.89820400178903
C           29.65502942876098        2.45589180908318        2.36566990780278
C           30.62679317383168        1.79996971171419        1.68577750135998
N           28.60574282189579        0.97663884993702        0.94040161556752
C           29.96651980379204        0.88358440658605        0.81190660653427
C           30.65271819639341        0.00393789926859       -0.02886051587400
C           30.00296093566204       -0.90583387284900       -0.86675289374791
C           30.69992535451878       -1.82649542866269       -1.70701292463639
C           29.75571801966405       -2.53662066387076       -2.37124402228923
C           28.48899250615382       -2.04064902452523       -1.93544814824718
N           28.64707407946803       -1.04358525891635       -1.00659848365990
C           27.27398845014306       -2.51267684458534       -2.43196211906147
C           27.29113685353889       -3.53778860561777       -3.40329957290740
C           27.30043065434128       -4.41787848347084       -4.23837676564425
C           27.30849205482820       -5.44236280263410       -5.21293337272494
C           28.50714704694382       -6.00512703805042       -5.66628103776458
C           28.45884846924852       -7.00442148766275       -6.62197089682021
N           27.32144625437306       -7.46306920942901       -7.13810859590553
C           26.17762148339292       -6.93313557365994       -6.71232348596471
C           26.11655242661561       -5.93063839027869       -5.76081408027628
C           26.04074071080848       -2.00706784833280       -2.01872302031979
C           24.78958263395324       -2.46362307735981       -2.54170256984002
C           23.82267441847070       -1.75833267824418       -1.90805943414509
C           24.48871169879648       -0.87831493424932       -0.99734948694051
N           25.85235241017599       -1.03351565131528       -1.07755336330114
H           22.74175997708682       -0.01151819468933       -0.17764995286362
H           22.67352669090370        1.75170715152230        1.71252972684866
H           24.55075710456127        3.07986929163633        3.14157234739966
H           29.27318085145743        5.43444091329819        5.35226051374206
H           29.15983484369676        7.18203459254567        7.12058166644305
H           25.05352823546281        7.03346241098792        7.22285294912408
H           24.97868795747630        5.27962812521640        5.45866654298936
H           29.75695669283195        3.22240027419411        3.11680511253511
H           31.69631686663890        1.91192765302338        1.76060572788604
H           31.77310818593750       -1.90738072468816       -1.76848297488679
H           29.88858039649502       -3.32388059648149       -3.09563912447329
H           29.45605007896690       -5.66121302059534       -5.27277210063891
H           29.37345473972106       -7.45897797637459       -6.99174762762119
H           25.26845751609956       -7.33050783357935       -7.15436289032868
H           25.16287379285651       -5.52715055034161       -5.44251991731968
H           24.68490415075810       -3.22602823563668       -3.29687829228426
H           22.75268088841673       -1.81671934507357       -2.02849808981279
Ni          64.32243577251302       -0.10587491100482       -0.07253963589744
C           67.72381695792210       -0.21811003932785       -0.18549716629761
C           67.03050476436458       -1.38090058843929       -0.44658002838846
C           67.66493941594850       -2.62426579207570       -0.76114002713481
C           66.67340145486035       -3.52182404258724       -0.97344199602648
C           65.43924206165674       -2.82245037843941       -0.78631463859360
N           65.66223573153549       -1.51372113794865       -0.45970366627094
C           64.18853880857797       -3.42294948014209       -0.93541279894206
C           64.13361698725720       -4.78786990410482       -1.29408275674617
C           64.08953241784278       -5.96002505790456       -1.60410144551721
C           64.03965491811812       -7.32625399329521       -1.96510041255936
C           62.81851464564274       -7.98339222928957       -2.15494315402389
C           62.82533068692040       -9.32136476901340       -2.50710713684639
N           63.94291649437765      -10.02342421286384       -2.67611454587519
C           65.10787709037434       -9.40593278311584       -2.49716815443219
C           65.21048410552267       -8.07195444643177       -2.14488036324146
C           62.99134684818053       -2.73348646098319       -0.74336074496725
C           61.70786569066673       -3.34286071623893       -0.89070686660302
C           60.78959923051081       -2.38582755207321       -0.61182994017069
N           62.86897590547191       -1.41564121321716       -0.38244323645015
C           61.51890441786995       -1.19898044103766       -0.29714718896980
C           60.90158904262731        0.00419238686804        0.05461876051787
C           61.61884130121154        1.16437342129567        0.35574567569318
C           60.99189076202581        2.39575232866089        0.71612471650334
C           61.98732487815173        3.29349085388690        0.91619599721271
C           63.21486694975756        2.60319837263080        0.67687569007738
N           62.98251484701579        1.29453721318900        0.33760347509985
C           64.46448288826340        3.21539787833754        0.77288554502893
C           64.52214387701807        4.58277965266262        1.12137515082529
C           64.57115055219832        5.75706416309069        1.42234927572168
C           64.62696069055634        7.12524917293328        1.77477045874155
C           63.46245091857255        7.85153046811592        2.04969332010630
C           63.57120210422953        9.18775996533987        2.39144877193597
N           64.73631994015794        9.82521331383145        2.47290244944539
C           65.84788888660366        9.14176180863486        2.21262458069731
C           65.84831758978892        7.80320683229955        1.86268576591315
C           65.66014574396297        2.53403255994960        0.54248072553693
C           66.94720685393371        3.15131142725471        0.64107412512493
C           67.86154676497959        2.18847195581418        0.37506607939120
C           67.12741684795047        0.98832288818652        0.11408179447290
N           65.77466615845718        1.21166916119887        0.21474630342137
H           68.80652537780384       -0.25421220600467       -0.22032113747105
H           68.73226474641102       -2.76996805895747       -0.80999556177854
H           66.75071514614031       -4.56511896216044       -1.23434170539867
H           61.88455612811657       -7.44949375140706       -2.02752055860825
H           61.89253280807689       -9.85615912510873       -2.66120562125242
H           65.99990908991151      -10.00831976582188       -2.64308017551142
H           66.18019931838747       -7.60844770770668       -2.00916576272768
H           61.54694835191905       -4.37146036986934       -1.17044586345815
H           59.71428666570945       -2.46122191523443       -0.61406647200479
H           59.92666767189053        2.53866123056444        0.79942818699755
H           61.91345392179548        4.33115085353435        1.19893360331561
H           62.49289205211054        7.37136205888843        1.99517923505985
H           62.68421656476410        9.77530224612314        2.61032941300837
H           66.78101044755699        9.69260836878360        2.28828616526305
H           66.77745877783786        7.28471256894985        1.65908020075590
H           67.10983089139249        4.18882657386110        0.88525411807204
H           68.93705387225580        2.26330980850606        0.35308716143526
C           32.05814904371375        0.02673254706133       -0.02175845295000
C           33.28182539402402        0.04392686640633       -0.00852076287172
C           34.62536449316835        0.05122397982138       -0.00198316080143
C           35.85542162800730        0.04895985103520        0.00304828875659
C           37.19389056596714        0.02678433901722       -0.00593836100644
C           38.42336185969346       -0.01064418235172       -0.02296016065792
C           39.76431121375759       -0.08102032047069       -0.06171076252121
C           40.98400033296819       -0.16915181063224       -0.11535113859733
C           50.57573054042251       -0.13147955590952       -0.02675147899698
C           51.79373545948210       -0.03759466276163        0.05041058012399
C           53.13352843272363        0.03987789051264        0.10889851152213
C           54.36266475676076        0.08147241813096        0.13855987567975
C           55.70104098646794        0.10302368769612        0.15221492614658
C           56.93112716952323        0.09506492051566        0.15361249479942
C           58.27440210598513        0.07839616211668        0.13405513209725
C           59.49746966592735        0.04901252057992        0.09996492830187
Ni          45.78398052301134       -0.53728568863517       -0.34873445218513
C           42.38043754675358       -0.29688392541840       -0.19806589373657
C           43.04963897389037        0.32613711772801       -1.25604976604880
C           42.37810214040902        1.02012426629995       -2.30780023121468
C           43.32744525497793        1.36784474640172       -3.21184175260065
C           44.57635573208914        0.91578878397147       -2.68767004197004
N           44.39836978045169        0.27603426520696       -1.48836491714293
C           45.80466459773393        1.16868061616944       -3.30067572008070
C           45.81248769459825        1.79598423893467       -4.56548364294094
C           45.81764622029377        2.32365725899772       -5.65800385257784
C           45.82315225500253        2.94314052963277       -6.92898702211870
C           47.02042894375780        3.19391835515549       -7.60920117296851
C           46.97066069236567        3.80311541411599       -8.85043005223244
N           45.83314137886666        4.16739514858852       -9.43674759406916
C           44.69070184979677        3.93258447822018       -8.79636704793642
C           44.63105254602534        3.32871587518153       -7.55299678018293
C           47.02541997666124        0.89637239105413       -2.68127155593535
C           48.28389129814182        1.32753505400545       -3.20029393820312
C           49.22013670529385        0.99002869065768       -2.27888235889929
N           47.18563474362451        0.27353614044178       -1.47040446845863
C           48.53123126138220        0.32239238583239       -1.22137371285644
C           49.18212420105732       -0.27005757446872       -0.13461672088275
C           48.51522984455203       -1.08607025972630        0.78450821641460
C           49.18786266561573       -1.85485967537589        1.78213499308549
C           48.24281704660729       -2.61439968004854        2.38997464168261
C           46.99480145253121       -2.27691962337516        1.78376252249251
N           47.16961475334012       -1.34039986447507        0.79797944747115
C           45.76908621479198       -2.79231884888842        2.20855469944110
C           45.76503011770014       -3.78953409870971        3.20800103206415
C           45.76289671340314       -4.65446503428268        4.05886028060101
C           45.76076426851291       -5.65815327565473        5.05475004752389
C           44.56340052858582       -6.19524505144186        5.54150584251015
C           44.61640169987854       -7.17462332299672        6.51732944545135
N           45.75719253143157       -7.63714457447085        7.02235107636099
C           46.89975247174600       -7.13161270954818        6.56477214787715
C           46.95627522185372       -6.15026501654748        5.59114994934279
C           44.54608330586439       -2.30820206852606        1.74158824370980
C           43.28694568032774       -2.68036970314338        2.30295489224617
C           42.34613191423549       -1.92893825676016        1.67870846432831
C           43.03365837583718       -1.13000865595308        0.71555864472654
N           44.38238321140805       -1.36207924640109        0.76290946481556
H           41.31491189303741        1.19412432257796       -2.34551753427402
H           43.20967498471154        1.89767164687949       -4.14330566933455
H           47.96922746338527        2.91362013000557       -7.16787206349999
H           47.88402824916651        4.00938147949171       -9.40089534472406
H           43.78154385867976        4.24277507616988       -9.30336926043281
H           43.67858695824367        3.15618345567932       -7.06659594354340
H           48.41623128267035        1.83901787623562       -4.14001852128076
H           50.28495594117414        1.15560904901908       -2.30750947874126
H           50.24907517465772       -1.82157021156846        1.96868552548299
H           48.36271701605787       -3.32835303160257        3.18879840057788
H           43.61199740205458       -5.84703695325149        5.15794174084658
H           43.70300897783451       -7.60904160055627        6.91332198496067
H           47.81163910627718       -7.53162204991565        6.99868555554226
H           47.90897903062314       -5.76617514015404        5.24709544292244
H           43.15693922798562       -3.40931595584527        3.08650751576066
H           41.27935176213312       -1.91864548125808        1.83350503198774

          :  Hamiltonian                  GFN1-xTB          :
         :: total energy            -345.454414722665 Eh    ::
         :: gradient norm              0.000672139128 Eh/a0 ::
         :: HOMO-LUMO gap              1.163961479115 eV    ::
         :: SCC energy              -351.568114763551 Eh    ::
         :: repulsion energy           6.271484555206 Eh    ::

    * Orbital Energies and Occupations

         #    Occupation            Energy/Eh            Energy/eV
      -------------------------------------------------------------
         1        2.0000           -0.7915903             -21.5403
       ...           ...                  ...                  ...
       309        2.0000           -0.4067842             -11.0692
       310        2.0000           -0.4067673             -11.0687
       311        2.0000           -0.4064187             -11.0592
       312        2.0000           -0.4063911             -11.0585
       313        2.0000           -0.4061598             -11.0522
       314        2.0000           -0.4061035             -11.0506
       315        2.0000           -0.4053643             -11.0305
       316        2.0000           -0.4053362             -11.0298
       317        2.0000           -0.4052117             -11.0264
       318        2.0000           -0.4051833             -11.0256
       319        2.0000           -0.3952412             -10.7551
       320        2.0000           -0.3947295             -10.7411
       321        2.0000           -0.3920804             -10.6691 (HOMO)
       322                         -0.3493056              -9.5051 (LUMO)
       323                         -0.3474298              -9.4540
       324                         -0.3463563              -9.4248
       325                         -0.3463443              -9.4245
       326                         -0.3441273              -9.3642
       327                         -0.3436124              -9.3502
       328                         -0.3391923              -9.2299
       329                         -0.3390813              -9.2269
       330                         -0.3371535              -9.1744
       331                         -0.3264282              -8.8826
       332                         -0.3186112              -8.6699
       ...                                ...                  ...
       671                          1.5978018              43.4784
      -------------------------------------------------------------
                  HL-Gap            0.0427748 Eh            1.1640 eV

Wiberg/Mayer (AO) data.
largest (>0.10) Wiberg bond orders for each atom

     #   Z sym  total        # sym  WBO       # sym  WBO       # sym  WBO
 ---------------------------------------------------------------------------
     1  28 Ni   2.989 --    41 N    0.660     7 N    0.660    20 N    0.658
                            27 N    0.658
     2   6 C    3.934 --    40 C    1.366     3 C    1.366    42 H    0.970
     3   6 C    3.915 --     2 C    1.366     7 N    1.205     4 C    1.177
     4   6 C    3.959 --     5 C    1.644     3 C    1.177    43 H    0.975
     5   6 C    3.962 --     4 C    1.644     6 C    1.184    44 H    0.973
     6   6 C    3.911 --     8 C    1.274     7 N    1.241     5 C    1.184
     7   7 N    3.401 --     6 C    1.241     3 C    1.205     1 Ni   0.660
     8   6 C    3.937 --    17 C    1.279     6 C    1.274     9 C    1.156
     9   6 C    3.958 --    10 C    2.628     8 C    1.156
    10   6 C    3.935 --     9 C    2.628    11 C    1.140
    11   6 C    3.987 --    16 C    1.351    12 C    1.351    10 C    1.140
    12   6 C    3.974 --    13 C    1.457    11 C    1.351    45 H    0.974
                            15 C    0.104
    13   6 C    3.973 --    12 C    1.457    14 N    1.407    46 H    0.972
                            16 C    0.104
    14   7 N    2.995 --    15 C    1.407    13 C    1.407
    15   6 C    3.973 --    16 C    1.456    14 N    1.407    47 H    0.972
                            12 C    0.104
    16   6 C    3.974 --    15 C    1.456    11 C    1.351    48 H    0.974
                            13 C    0.104
    17   6 C    3.904 --     8 C    1.279    20 N    1.224    18 C    1.192
    18   6 C    3.958 --    19 C    1.630    17 C    1.192    49 H    0.973
    19   6 C    3.960 --    18 C    1.630    21 C    1.193    50 H    0.973
    20   7 N    3.404 --    21 C    1.230    17 C    1.224     1 Ni   0.658
    21   6 C    3.895 --    22 C    1.265    20 N    1.230    19 C    1.193
    22   6 C    3.941 --    21 C    1.265    23 C    1.265   117 C    1.182
    23   6 C    3.895 --    22 C    1.265    27 N    1.230    24 C    1.194
    24   6 C    3.960 --    25 C    1.630    23 C    1.194    51 H    0.973
    25   6 C    3.958 --    24 C    1.630    26 C    1.192    52 H    0.973
    26   6 C    3.904 --    28 C    1.279    27 N    1.224    25 C    1.192
    27   7 N    3.404 --    23 C    1.230    26 C    1.224     1 Ni   0.658
    28   6 C    3.937 --    26 C    1.279    37 C    1.273    29 C    1.156
    29   6 C    3.958 --    30 C    2.628    28 C    1.156
    30   6 C    3.935 --    29 C    2.628    31 C    1.140
    31   6 C    3.987 --    32 C    1.351    36 C    1.351    30 C    1.140
    32   6 C    3.974 --    33 C    1.456    31 C    1.351    53 H    0.974
                            35 C    0.104
    33   6 C    3.973 --    32 C    1.456    34 N    1.407    54 H    0.972
                            36 C    0.104
    34   7 N    2.995 --    33 C    1.407    35 C    1.407
    35   6 C    3.973 --    36 C    1.457    34 N    1.407    55 H    0.972
                            32 C    0.104
    36   6 C    3.974 --    35 C    1.457    31 C    1.351    56 H    0.974
                            33 C    0.104
    37   6 C    3.911 --    28 C    1.273    41 N    1.241    38 C    1.184
    38   6 C    3.962 --    39 C    1.644    37 C    1.184    57 H    0.973
    39   6 C    3.959 --    38 C    1.644    40 C    1.177    58 H    0.975
    40   6 C    3.915 --     2 C    1.366    41 N    1.205    39 C    1.177
    41   7 N    3.401 --    37 C    1.241    40 C    1.205     1 Ni   0.660
    42   1 H    1.000 --     2 C    0.970
    43   1 H    0.997 --     4 C    0.975
    44   1 H    1.002 --     5 C    0.973
    45   1 H    1.002 --    12 C    0.974
    46   1 H    1.013 --    13 C    0.972
    47   1 H    1.013 --    15 C    0.972
    48   1 H    1.002 --    16 C    0.974
    49   1 H    1.003 --    18 C    0.973
    50   1 H    1.001 --    19 C    0.973
    51   1 H    1.001 --    24 C    0.973
    52   1 H    1.002 --    25 C    0.973
    53   1 H    1.002 --    32 C    0.974
    54   1 H    1.013 --    33 C    0.972
    55   1 H    1.013 --    35 C    0.972
    56   1 H    1.002 --    36 C    0.974
    57   1 H    1.003 --    38 C    0.973
    58   1 H    0.997 --    39 C    0.975
    59  28 Ni   2.989 --    65 N    0.660    99 N    0.660    78 N    0.658
                            85 N    0.658
    60   6 C    3.934 --    98 C    1.366    61 C    1.366   100 H    0.970
    61   6 C    3.915 --    60 C    1.366    65 N    1.205    62 C    1.177
    62   6 C    3.959 --    63 C    1.644    61 C    1.177   101 H    0.975
    63   6 C    3.962 --    62 C    1.644    64 C    1.184   102 H    0.973
    64   6 C    3.911 --    66 C    1.273    65 N    1.241    63 C    1.184
    65   7 N    3.401 --    64 C    1.241    61 C    1.205    59 Ni   0.660
    66   6 C    3.937 --    75 C    1.279    64 C    1.273    67 C    1.156
    67   6 C    3.958 --    68 C    2.628    66 C    1.156
    68   6 C    3.935 --    67 C    2.628    69 C    1.140
    69   6 C    3.987 --    70 C    1.351    74 C    1.351    68 C    1.140
    70   6 C    3.974 --    71 C    1.456    69 C    1.351   103 H    0.974
                            73 C    0.104
    71   6 C    3.973 --    70 C    1.456    72 N    1.407   104 H    0.972
                            74 C    0.104
    72   7 N    2.995 --    71 C    1.407    73 C    1.407
    73   6 C    3.973 --    74 C    1.457    72 N    1.407   105 H    0.972
                            70 C    0.104
    74   6 C    3.974 --    73 C    1.457    69 C    1.351   106 H    0.974
                            71 C    0.104
    75   6 C    3.904 --    66 C    1.279    78 N    1.224    76 C    1.192
    76   6 C    3.958 --    77 C    1.630    75 C    1.192   107 H    0.973
    77   6 C    3.960 --    76 C    1.630    79 C    1.194   108 H    0.973
    78   7 N    3.404 --    79 C    1.230    75 C    1.224    59 Ni   0.658
    79   6 C    3.894 --    80 C    1.265    78 N    1.230    77 C    1.194
    80   6 C    3.941 --    81 C    1.266    79 C    1.265   132 C    1.182
    81   6 C    3.895 --    80 C    1.266    85 N    1.230    82 C    1.193
    82   6 C    3.960 --    83 C    1.630    81 C    1.193   109 H    0.973
    83   6 C    3.958 --    82 C    1.630    84 C    1.192   110 H    0.973
    84   6 C    3.904 --    86 C    1.279    85 N    1.224    83 C    1.192
    85   7 N    3.404 --    81 C    1.230    84 C    1.224    59 Ni   0.658
    86   6 C    3.937 --    84 C    1.279    95 C    1.274    87 C    1.156
    87   6 C    3.958 --    88 C    2.628    86 C    1.156
    88   6 C    3.935 --    87 C    2.628    89 C    1.140
    89   6 C    3.987 --    94 C    1.351    90 C    1.351    88 C    1.140
    90   6 C    3.974 --    91 C    1.457    89 C    1.351   111 H    0.974
                            93 C    0.104
    91   6 C    3.973 --    90 C    1.457    92 N    1.407   112 H    0.972
                            94 C    0.104
    92   7 N    2.995 --    93 C    1.407    91 C    1.407
    93   6 C    3.973 --    94 C    1.456    92 N    1.407   113 H    0.972
                            90 C    0.104
    94   6 C    3.974 --    93 C    1.456    89 C    1.351   114 H    0.974
                            91 C    0.104
    95   6 C    3.911 --    86 C    1.274    99 N    1.241    96 C    1.184
    96   6 C    3.962 --    97 C    1.644    95 C    1.184   115 H    0.973
    97   6 C    3.959 --    96 C    1.644    98 C    1.177   116 H    0.975
    98   6 C    3.915 --    60 C    1.366    99 N    1.205    97 C    1.177
    99   7 N    3.401 --    95 C    1.241    98 C    1.205    59 Ni   0.660
   100   1 H    1.000 --    60 C    0.970
   101   1 H    0.997 --    62 C    0.975
   102   1 H    1.003 --    63 C    0.973
   103   1 H    1.002 --    70 C    0.974
   104   1 H    1.013 --    71 C    0.972
   105   1 H    1.013 --    73 C    0.972
   106   1 H    1.002 --    74 C    0.974
   107   1 H    1.002 --    76 C    0.973
   108   1 H    1.001 --    77 C    0.973
   109   1 H    1.001 --    82 C    0.973
   110   1 H    1.003 --    83 C    0.973
   111   1 H    1.002 --    90 C    0.974
   112   1 H    1.013 --    91 C    0.972
   113   1 H    1.013 --    93 C    0.972
   114   1 H    1.002 --    94 C    0.974
   115   1 H    1.002 --    96 C    0.973
   116   1 H    0.997 --    97 C    0.975
   117   6 C    3.877 --   118 C    2.449    22 C    1.182   120 C    0.187
   118   6 C    3.938 --   117 C    2.449   119 C    1.338
   119   6 C    3.893 --   120 C    2.343   118 C    1.338   122 C    0.183
   120   6 C    3.927 --   119 C    2.343   121 C    1.364   117 C    0.187
   121   6 C    3.926 --   122 C    2.343   120 C    1.364   124 C    0.187
   122   6 C    3.894 --   121 C    2.343   123 C    1.339   119 C    0.183
   123   6 C    3.936 --   124 C    2.446   122 C    1.339
   124   6 C    3.878 --   123 C    2.446   134 C    1.185   121 C    0.187
   125   6 C    3.878 --   126 C    2.446   154 C    1.186   128 C    0.187
   126   6 C    3.936 --   125 C    2.446   127 C    1.339
   127   6 C    3.894 --   128 C    2.342   126 C    1.339   130 C    0.183
   128   6 C    3.926 --   127 C    2.342   129 C    1.364   125 C    0.187
   129   6 C    3.927 --   130 C    2.343   128 C    1.364   132 C    0.187
   130   6 C    3.893 --   129 C    2.343   131 C    1.338   127 C    0.183
   131   6 C    3.938 --   132 C    2.448   130 C    1.338
   132   6 C    3.877 --   131 C    2.448    80 C    1.182   129 C    0.187
   133  28 Ni   2.987 --   159 N    0.658   152 N    0.658   139 N    0.658
                           173 N    0.658
   134   6 C    3.933 --   135 C    1.262   172 C    1.262   124 C    1.185
   135   6 C    3.894 --   134 C    1.262   139 N    1.230   136 C    1.195
   136   6 C    3.959 --   137 C    1.627   135 C    1.195   174 H    0.973
   137   6 C    3.959 --   136 C    1.627   138 C    1.194   175 H    0.973
   138   6 C    3.902 --   140 C    1.275   139 N    1.224   137 C    1.194
   139   7 N    3.401 --   135 C    1.230   138 C    1.224   133 Ni   0.658
   140   6 C    3.933 --   149 C    1.275   138 C    1.275   141 C    1.157
   141   6 C    3.958 --   142 C    2.627   140 C    1.157
   142   6 C    3.934 --   141 C    2.627   143 C    1.140
   143   6 C    3.987 --   144 C    1.351   148 C    1.351   142 C    1.140
   144   6 C    3.974 --   145 C    1.456   143 C    1.351   176 H    0.974
                           147 C    0.104
   145   6 C    3.973 --   144 C    1.456   146 N    1.407   177 H    0.972
                           148 C    0.104
   146   7 N    2.995 --   145 C    1.407   147 C    1.407
   147   6 C    3.973 --   148 C    1.456   146 N    1.407   178 H    0.972
                           144 C    0.104
   148   6 C    3.974 --   147 C    1.456   143 C    1.351   179 H    0.974
                           145 C    0.104
   149   6 C    3.903 --   140 C    1.275   152 N    1.223   150 C    1.194
   150   6 C    3.959 --   151 C    1.627   149 C    1.194   180 H    0.973
   151   6 C    3.959 --   150 C    1.627   153 C    1.195   181 H    0.973
   152   7 N    3.401 --   153 C    1.231   149 C    1.223   133 Ni   0.658
   153   6 C    3.894 --   154 C    1.262   152 N    1.231   151 C    1.195
   154   6 C    3.933 --   155 C    1.262   153 C    1.262   125 C    1.186
   155   6 C    3.894 --   154 C    1.262   159 N    1.230   156 C    1.195
   156   6 C    3.959 --   157 C    1.627   155 C    1.195   182 H    0.973
   157   6 C    3.959 --   156 C    1.627   158 C    1.194   183 H    0.973
   158   6 C    3.902 --   160 C    1.275   159 N    1.224   157 C    1.194
   159   7 N    3.401 --   155 C    1.230   158 C    1.224   133 Ni   0.658
   160   6 C    3.933 --   169 C    1.275   158 C    1.275   161 C    1.157
   161   6 C    3.958 --   162 C    2.627   160 C    1.157
   162   6 C    3.934 --   161 C    2.627   163 C    1.140
   163   6 C    3.987 --   164 C    1.351   168 C    1.351   162 C    1.140
   164   6 C    3.974 --   165 C    1.456   163 C    1.351   184 H    0.974
                           167 C    0.104
   165   6 C    3.973 --   164 C    1.456   166 N    1.407   185 H    0.972
                           168 C    0.104
   166   7 N    2.995 --   165 C    1.407   167 C    1.407
   167   6 C    3.973 --   168 C    1.456   166 N    1.407   186 H    0.972
                           164 C    0.104
   168   6 C    3.974 --   167 C    1.456   163 C    1.351   187 H    0.974
                           165 C    0.104
   169   6 C    3.903 --   160 C    1.275   173 N    1.223   170 C    1.194
   170   6 C    3.959 --   171 C    1.627   169 C    1.194   188 H    0.973
   171   6 C    3.959 --   170 C    1.627   172 C    1.195   189 H    0.973
   172   6 C    3.894 --   134 C    1.262   173 N    1.231   171 C    1.195
   173   7 N    3.401 --   172 C    1.231   169 C    1.223   133 Ni   0.658
   174   1 H    1.001 --   136 C    0.973
   175   1 H    1.002 --   137 C    0.973
   176   1 H    1.002 --   144 C    0.974
   177   1 H    1.013 --   145 C    0.972
   178   1 H    1.013 --   147 C    0.972
   179   1 H    1.002 --   148 C    0.974
   180   1 H    1.002 --   150 C    0.973
   181   1 H    1.001 --   151 C    0.973
   182   1 H    1.001 --   156 C    0.973
   183   1 H    1.002 --   157 C    0.973
   184   1 H    1.002 --   164 C    0.974
   185   1 H    1.013 --   165 C    0.972
   186   1 H    1.013 --   167 C    0.972
   187   1 H    1.002 --   168 C    0.974
   188   1 H    1.002 --   170 C    0.973
   189   1 H    1.001 --   171 C    0.973
 ---------------------------------------------------------------------------

           -------------------------------------------------
          | TOTAL ENERGY             -345.454414722665 Eh   |
          | GRADIENT NORM               0.000672139128 Eh/α |
          | HOMO-LUMO GAP               1.163961479115 eV   |
           -------------------------------------------------

 * finished run on 2022/07/30 at 05:13:38.594
