   * xtb version 6.5.1 (b24c23e) compiled by 'conda@728c89f4b128' on 2022-07-12
          program call               : xtb Zn_PhCHO_C6_3.xyz --gfn 1 --opt -T 48

   ID    Z sym.   atoms
    1   30 Zn     1, 61, 133
    2    6 C      2-6, 8-13, 15-19, 21-26, 28-33, 35-40, 62-66, 68-73, 75-79,
                  81-86, 88-93, 95-100, 121-132, 134-138, 140-145, 147-151,
                  153-158, 160-165, 167-172
    3    7 N      7, 20, 27, 41, 67, 80, 87, 101, 139, 152, 159, 173
    4    8 O      14, 34, 74, 94, 146, 166
    5    1 H      42-60, 102-120, 174-191

          :  Hamiltonian                  GFN1-xTB          :
 * total energy  :  -338.9791196 Eh     change       -0.1739636E-08 Eh
 * total energy  :  -339.1713148 Eh     change       -0.1921952E+00 Eh
 * total energy  :  -339.2693485 Eh     change       -0.9803375E-01 Eh
 * total energy  :  -339.3340981 Eh     change       -0.6474955E-01 Eh
 * total energy  :  -339.3993979 Eh     change       -0.6529980E-01 Eh
 * total energy  :  -339.4483326 Eh     change       -0.4893475E-01 Eh
 * total energy  :  -339.4748384 Eh     change       -0.2650574E-01 Eh
 * total energy  :  -339.4957049 Eh     change       -0.2086657E-01 Eh
 * total energy  :  -339.5102529 Eh     change       -0.1454802E-01 Eh
 * total energy  :  -339.5205175 Eh     change       -0.1026459E-01 Eh
 * total energy  :  -339.6173756 Eh     change       -0.2452280E-04 Eh
 * total energy  :  -339.6173918 Eh     change       -0.1617988E-04 Eh
 * total energy  :  -339.6174037 Eh     change       -0.1197482E-04 Eh
 * total energy  :  -339.6174152 Eh     change       -0.1147097E-04 Eh
 * total energy  :  -339.6174229 Eh     change       -0.7723910E-05 Eh
 * total energy  :  -339.6174300 Eh     change       -0.7078592E-05 Eh
 * total energy  :  -339.6174337 Eh     change       -0.3733514E-05 Eh
 * total energy  :  -339.6174393 Eh     change       -0.5561148E-05 Eh
 * total energy  :  -339.6174428 Eh     change       -0.3453147E-05 Eh
   *** GEOMETRY OPTIMIZATION CONVERGED AFTER 67 ITERATIONS ***

 final structure:
================
191
 xtb: 6.5.1 (b24c23e)
Zn          29.42946781131600        0.00862816042252       -0.00260494529581
C           26.02020956459415        0.05376599613205       -0.08013114964197
C           26.65159189723311        1.28064573001402        0.08339635968436
C           25.97840300705143        2.53731681952081        0.25781862878427
C           26.93795671345999        3.48536734876262        0.39847956628808
C           28.21061088988480        2.81977453965908        0.30131009801594
N           28.00138239873522        1.48462457367529        0.11911688575281
C           29.46291779095162        3.43788238767501        0.41102133279476
C           29.47591046100959        4.90950407802455        0.58936026985394
C           30.03011077441884        5.48051167117274        1.73938431100125
C           30.03690709758447        6.85198536390541        1.90474312976378
C           29.49433404033365        7.68640240509098        0.92160217201100
C           29.51597706921585        9.14656631392653        1.11907572477974
O           29.98229040077226        9.68450548464642        2.09078687734803
C           28.94251391161364        7.11785258248402       -0.22911127879282
C           28.93153900438620        5.74405219126716       -0.39123340034381
C           30.70170123956815        2.78791096041566        0.36559318330993
C           31.98271780272364        3.43649374237859        0.42536028374683
C           32.92704556786700        2.46650818906503        0.32731075099958
N           30.89256810947488        1.44006372278790        0.21933612418547
C           32.23428090013458        1.21818300577842        0.19831456065260
C           32.86356967963415       -0.03529633070034        0.05745679449905
C           32.20792982582908       -1.27348876007855       -0.09752748742475
C           32.87387628175223       -2.53230838863645       -0.26103196469693
C           31.90892671712252       -3.47839207730208       -0.38825547159246
C           30.64216762220266       -2.80609011567715       -0.29658064474359
N           30.86188212586386       -1.46533096334991       -0.12728005081402
C           29.39012995945138       -3.42197466149173       -0.40510739064976
C           29.37211589644170       -4.89570687405296       -0.56679972342264
C           28.82745596354793       -5.47487109463415       -1.71654598559455
C           28.80715041441399       -6.84990303562017       -1.86748674917799
C           29.32583031599853       -7.67555336704550       -0.86690309653201
C           29.30864627350297       -9.14315994036817       -0.99967874398293
O           29.73631900484924       -9.89678372961007       -0.16275037865755
C           29.86993823542023       -7.09675999509559        0.28464554583179
C           29.89587423030077       -5.72339366867594        0.43126687012010
C           28.15143050560618       -2.76893376560616       -0.37122610776828
C           26.86501483909093       -3.41110384216845       -0.43887166867201
C           25.92584017794138       -2.43660578349854       -0.35099787233210
C           26.62550907715390       -1.18938016887352       -0.21834247103220
N           27.97054410629280       -1.42448293438034       -0.23125029260910
H           24.93472316361385        0.06635792674512       -0.08938092907214
H           24.90738177772593        2.66446400942012        0.27688615461077
H           26.80064632613889        4.54137951891776        0.56753857148563
H           30.43947492547907        4.83637045922079        2.50944659966887
H           30.45948086174730        7.30166035865246        2.79687058693244
H           29.06075121868968        9.72569596692025        0.28733209177114
H           28.52298775525928        7.75767824436378       -0.99875210776498
H           28.51439059525358        5.30694096500097       -1.29155864689576
H           32.13865113768770        4.49933637538491        0.51606094110405
H           33.99942349220125        2.57941001144290        0.33420405990250
H           33.94360819577894       -2.66670174431347       -0.28120657484491
H           32.04186503454957       -4.53675871187108       -0.54444096718215
H           28.43452968743558       -4.83652250753394       -2.49997724936108
H           28.38767812994071       -7.29032394890379       -2.76626151072123
H           28.86331834758419       -9.50981845216679       -1.94930895777665
H           30.26719913635318       -7.74544756305122        1.05797743240960
H           30.30671701956070       -5.27843559602430        1.33054962525092
H           26.70510882132170       -4.47364003784322       -0.52845934684112
H           24.85238734691518       -2.54186626740407       -0.36549669079742
Zn          61.53008649558537       -0.03589068672541       -0.02790420249133
C           64.93984925869906       -0.06769164577224       -0.07614144687286
C           64.30952284685965       -1.30578415216493       -0.09741512919814
C           64.98336551742150       -2.57410432066112       -0.09552802483140
C           64.02431621374188       -3.53302171869893       -0.10427413226337
C           62.75147497548881       -2.86102135129922       -0.12261388637087
N           62.95985385148726       -1.51345391484890       -0.10863504811855
C           61.49918588659324       -3.48887342186284       -0.12206293165718
C           61.48647265536285       -4.97076349622250       -0.15650381154222
C           60.91257314869456       -5.69931251181357        0.89029681886371
C           60.90592867809161       -7.08032225303460        0.85904162752883
C           61.46874687251271       -7.76678951466825       -0.22227374794339
C           61.44724398651988       -9.24024894899287       -0.23395990843493
O           60.96210434957437       -9.91037003254251        0.64163083328053
C           62.04010446303968       -7.04064320725508       -1.27024228629627
C           62.05050563735820       -5.65773336664679       -1.23555869155386
C           60.25974140519968       -2.83927424927375       -0.09041531629812
C           58.97947305270652       -3.48963770601796       -0.14610737762834
C           58.03440428156975       -2.51614518975384       -0.10850286524570
N           60.06791639858466       -1.48475262154606       -0.03564000125108
C           58.72612221691995       -1.26256038835512       -0.03874817075476
C           58.09570233913769       -0.00271510158133        0.01030873461563
C           58.75010667179826        1.24503807347291        0.04921401792829
C           58.08328231129732        2.51386792433885        0.06920858406862
C           59.04758555220388        3.46893257837216        0.08623208248226
C           60.31482290453986        2.79116135057916        0.08517381609433
N           60.09606783586150        1.43999083931445        0.05517227609210
C           61.56662292726231        3.41693023735361        0.07541624335128
C           61.58422608476288        4.89852923767331        0.12932576064404
C           62.13733027296709        5.63801147313682       -0.92009702618409
C           62.15878174001082        7.02037303096476       -0.86956566415639
C           61.63272737978552        7.69252493831867        0.23648808748457
C           61.65171992206238        9.16390958895262        0.31879366357329
O           61.21872771782711        9.78826535946776        1.25356174838194
C           61.07971942407331        6.95317474409178        1.28751973943296
C           61.05266241997914        5.57309199523170        1.23291155060239
C           62.80604234027312        2.76635493186316        0.02360180586899
C           64.09189927563339        3.41211196446513        0.06199283470426
C           65.03197771650160        2.43562131762269        0.01648092279585
C           64.33336587425970        1.18200737669072       -0.04006697825907
N           62.98807787683858        1.41591808791233       -0.03178422029811
H           66.02540257805393       -0.07802250198969       -0.07514788602980
H           66.05433621124673       -2.70222767296450       -0.08056692099996
H           64.16192199907896       -4.60225973666466       -0.08539534340955
H           60.48774316616534       -5.17098679866010        1.73639423744287
H           60.46826547573263       -7.65205857424028        1.67032683846484
H           61.92160126765346       -9.69581945875079       -1.12951651596979
H           62.47499084080292       -7.56482148378335       -2.11513722771489
H           62.48253378535306       -5.09730179727226       -2.05706854428853
H           58.82465019961697       -4.55397091049167       -0.21955036010566
H           56.96227058421606       -2.62901094918582       -0.13240150567783
H           57.01348103994048        2.64913148392453        0.06329539268191
H           58.91404650481275        4.53868769059221        0.08528917202614
H           62.53632465867304        5.11988970930968       -1.78496836400463
H           62.58510715313729        7.58615684193404       -1.69168448109059
H           62.10619772061931        9.66391911959161       -0.56317626427301
H           60.67656285335149        7.48308204527714        2.14386090033982
H           60.63507451503219        5.00276676466035        2.05500467467194
H           64.25066234813272        4.47645473093407        0.12950349978518
H           66.10533797523817        2.54222847418294        0.02797436695878
C           38.06585424027282       -0.06511419195228        0.05862935021417
C           36.83732311351715       -0.06407483124094        0.06204883838666
C           35.49302936107847       -0.05754082808650        0.06280949861377
C           34.26895253220444       -0.04972223851626        0.06140094242881
C           39.41001830986232       -0.06198587655220        0.05410871033963
C           40.63427462026253       -0.05949862503678        0.04682475937800
C           54.12174032777310        0.01781759745282        0.00971650500674
C           52.89330848009304        0.01603042683115        0.00798558556073
C           51.54906681778564        0.01244720175194        0.00652283131849
C           50.32485111136241        0.00642994242195        0.00318844913345
C           55.46611937460904        0.01461728106269        0.01006987972711
C           56.69019458016852        0.00908243031528        0.01067656261616
Zn          45.47926562560409       -0.02395661044801        0.01582566564826
C           42.03902546235280       -0.04991684895884        0.03802017307311
C           42.67636640196699        1.15878398915073        0.38531325993109
C           41.99191690836244        2.37466636501802        0.71164819705351
C           42.94275665858864        3.30177262807840        0.99388134682765
C           44.21786421406119        2.65625137857661        0.85140277295771
N           44.01912212588433        1.35636009859812        0.47070502114159
C           45.46130585381552        3.26882140224167        1.04476981081598
C           45.45423982326344        4.68451187696283        1.48656999041033
C           46.01999618454167        5.67972005824874        0.68354050760891
C           46.01106642621851        6.99828838196513        1.09546236429541
C           45.44205893854058        7.35255310991438        2.32338199685987
C           45.44781622745820        8.76597844470451        2.74167340687507
O           45.91835235489411        9.65732790529166        2.08215882501458
C           44.87922532109197        6.35900035735106        3.12817611445126
C           44.88272212853667        5.03964420284352        2.71168267287594
C           46.71146772962523        2.66751303390329        0.85934015556846
C           47.97949702641299        3.29230980136736        1.11407031358980
C           48.94049754942763        2.37815770427134        0.82451562058418
N           46.92446390575074        1.38337339119887        0.43564729321151
C           48.26948255698677        1.18547542240337        0.39946243000849
C           48.91996312903905       -0.00114195709717        0.00466422012037
C           48.28238554233326       -1.19550233826183       -0.38847730940322
C           48.96622305214086       -2.37716564270164       -0.82318489982344
C           48.01542460316760       -3.30324852143762       -1.10920216060273
C           46.74110875431971       -2.69745450789914       -0.84089593123796
N           46.94002063871633       -1.41202955727705       -0.41413127257671
C           45.49766424670177       -3.31619006081177       -1.01513282310608
C           45.50566580544113       -4.73069080109366       -1.46014190675684
C           46.10002552895253       -5.71711628796688       -0.66789848867477
C           46.10657320562115       -7.03800053828770       -1.07919306456835
C           45.52326613203930       -7.39911901677106       -2.29620266824142
C           45.52000224309571       -8.79859938530136       -2.75868842328051
O           45.03188585825890       -9.15880864897697       -3.79939079936968
C           44.93094626781517       -6.41203197285888       -3.09110571778044
C           44.91957946756079       -5.09427578351726       -2.67662265523743
C           44.24762980937702       -2.72193320757722       -0.80714410715767
C           42.98040989328998       -3.38580916939767       -0.93578298625339
C           42.01959718012392       -2.47358759671297       -0.63939845982984
C           42.68998119067236       -1.24845486161356       -0.31859173298913
N           44.03444733085141       -1.42608385854972       -0.42039219857167
H           40.92072580091598        2.49832741792270        0.71483297310384
H           42.79490727144530        4.33537185938385        1.26225706734235
H           46.45141058604199        5.41021507744028       -0.27392122745047
H           46.44220323164990        7.77675316439147        0.47515996572268
H           44.97770944811209        8.95063838222577        3.73122658526687
H           44.43936419071510        6.62412324714341        4.08417518189533
H           44.45567666175402        4.26933979025356        3.34403967582972
H           48.11611896011227        4.29710730764510        1.47990595163895
H           50.01030232188788        2.49216338249283        0.89683325143448
H           50.03682062951366       -2.47638521857096       -0.90533163644465
H           48.16335824573061       -4.30397703288269       -1.48182480137926
H           46.54276431553089       -5.44209207540860        0.28285888314750
H           46.56480811423279       -7.79779600520761       -0.45437011671508
H           46.01152411930126       -9.51030143221603       -2.06146457995316
H           44.48393358427943       -6.70070912468762       -4.03636692453806
H           44.47059661090996       -4.32998987191604       -3.30093535066622
H           42.84419133700388       -4.42059702655941       -1.20555565136976
H           40.95037706512981       -2.61298951183117       -0.63009933948777

          :  Hamiltonian                  GFN1-xTB          :
         :: total energy            -339.617442760732 Eh    ::
         :: gradient norm              0.000673242407 Eh/a0 ::
         :: HOMO-LUMO gap              0.954647343301 eV    ::
         :: SCC energy              -345.080829517123 Eh    ::
         :: repulsion energy           5.633572521480 Eh    ::

    * Orbital Energies and Occupations

         #    Occupation            Energy/Eh            Energy/eV
      -------------------------------------------------------------
         1        2.0000           -0.7909450             -21.5227
       ...           ...                  ...                  ...
       295        2.0000           -0.4329929             -11.7823
       296        2.0000           -0.4329874             -11.7822
       297        2.0000           -0.4329624             -11.7815
       298        2.0000           -0.4306718             -11.7192
       299        2.0000           -0.4234694             -11.5232
       300        2.0000           -0.4215113             -11.4699
       301        2.0000           -0.4211035             -11.4588
       302        2.0000           -0.4065678             -11.0633
       303        2.0000           -0.4057100             -11.0399
       304        2.0000           -0.4056834             -11.0392
       305        2.0000           -0.4006026             -10.9010
       306        2.0000           -0.3943212             -10.7300
       307        2.0000           -0.3869663             -10.5299 (HOMO)
       308                         -0.3518836              -9.5752 (LUMO)
       309                         -0.3431113              -9.3365
       310                         -0.3422947              -9.3143
       311                         -0.3419332              -9.3045
       312                         -0.3418794              -9.3030
       313                         -0.3365272              -9.1574
       314                         -0.3269105              -8.8957
       315                         -0.3260682              -8.8728
       316                         -0.3258726              -8.8674
       317                         -0.3209156              -8.7326
       318                         -0.3207940              -8.7292
       ...                                ...                  ...
       652                          1.5709945              42.7489
      -------------------------------------------------------------
                  HL-Gap            0.0350826 Eh            0.9546 eV

Wiberg/Mayer (AO) data.
largest (>0.10) Wiberg bond orders for each atom

     #   Z sym  total        # sym  WBO       # sym  WBO       # sym  WBO
 ---------------------------------------------------------------------------
     1  30 Zn   1.993 --     7 N    0.459    41 N    0.458    20 N    0.455
                            27 N    0.455
     2   6 C    3.928 --     3 C    1.358    40 C    1.358    42 H    0.971
     3   6 C    3.920 --     2 C    1.358     7 N    1.232     4 C    1.170
     4   6 C    3.960 --     5 C    1.660     3 C    1.170    43 H    0.975
     5   6 C    3.963 --     4 C    1.660     6 C    1.171    44 H    0.973
     6   6 C    3.918 --     8 C    1.311     7 N    1.247     5 C    1.171
     7   7 N    3.293 --     6 C    1.247     3 C    1.232     1 Zn   0.459
     8   6 C    3.931 --    17 C    1.321     6 C    1.311     9 C    1.034
     9   6 C    3.985 --    16 C    1.382    10 C    1.380     8 C    1.034
    10   6 C    3.987 --    11 C    1.472     9 C    1.380    45 H    0.972
    11   6 C    3.988 --    10 C    1.472    12 C    1.369    46 H    0.968
    12   6 C    3.983 --    15 C    1.377    11 C    1.369    13 C    1.051
    13   6 C    3.864 --    14 O    1.806    12 C    1.051    47 H    0.942
    14   8 O    2.002 --    13 C    1.806
    15   6 C    3.993 --    16 C    1.466    12 C    1.377    48 H    0.971
    16   6 C    3.987 --    15 C    1.466     9 C    1.382    49 H    0.972
    17   6 C    3.912 --     8 C    1.321    20 N    1.227    18 C    1.178
    18   6 C    3.959 --    19 C    1.647    17 C    1.178    50 H    0.973
    19   6 C    3.962 --    18 C    1.647    21 C    1.185    51 H    0.974
    20   7 N    3.296 --    21 C    1.262    17 C    1.227     1 Zn   0.455
    21   6 C    3.900 --    20 N    1.262    22 C    1.254    19 C    1.185
    22   6 C    3.939 --    23 C    1.254    21 C    1.254   124 C    1.192
    23   6 C    3.900 --    27 N    1.262    22 C    1.254    24 C    1.185
    24   6 C    3.962 --    25 C    1.647    23 C    1.185    52 H    0.974
    25   6 C    3.959 --    24 C    1.647    26 C    1.178    53 H    0.973
    26   6 C    3.912 --    28 C    1.321    27 N    1.227    25 C    1.178
    27   7 N    3.296 --    23 C    1.262    26 C    1.227     1 Zn   0.455
    28   6 C    3.931 --    26 C    1.321    37 C    1.311    29 C    1.033
    29   6 C    3.985 --    30 C    1.382    36 C    1.380    28 C    1.033
    30   6 C    3.987 --    31 C    1.466    29 C    1.382    54 H    0.972
                            35 C    0.100
    31   6 C    3.993 --    30 C    1.466    32 C    1.377    55 H    0.971
    32   6 C    3.983 --    31 C    1.377    35 C    1.369    33 C    1.051
    33   6 C    3.864 --    34 O    1.806    32 C    1.051    56 H    0.942
    34   8 O    2.002 --    33 C    1.806
    35   6 C    3.988 --    36 C    1.472    32 C    1.369    57 H    0.968
                            30 C    0.100
    36   6 C    3.987 --    35 C    1.472    29 C    1.380    58 H    0.972
    37   6 C    3.918 --    28 C    1.311    41 N    1.246    38 C    1.171
    38   6 C    3.963 --    39 C    1.660    37 C    1.171    59 H    0.973
    39   6 C    3.960 --    38 C    1.660    40 C    1.170    60 H    0.975
    40   6 C    3.920 --     2 C    1.358    41 N    1.232    39 C    1.170
    41   7 N    3.293 --    37 C    1.246    40 C    1.232     1 Zn   0.458
    42   1 H    1.001 --     2 C    0.971
    43   1 H    0.998 --     4 C    0.975
    44   1 H    1.004 --     5 C    0.973
    45   1 H    1.004 --    10 C    0.972
    46   1 H    1.005 --    11 C    0.968
    47   1 H    1.010 --    13 C    0.942
    48   1 H    1.000 --    15 C    0.971
    49   1 H    1.004 --    16 C    0.972
    50   1 H    1.004 --    18 C    0.973
    51   1 H    1.002 --    19 C    0.974
    52   1 H    1.002 --    24 C    0.974
    53   1 H    1.004 --    25 C    0.973
    54   1 H    1.004 --    30 C    0.972
    55   1 H    1.000 --    31 C    0.971
    56   1 H    1.010 --    33 C    0.942
    57   1 H    1.005 --    35 C    0.968
    58   1 H    1.004 --    36 C    0.972
    59   1 H    1.004 --    38 C    0.973
    60   1 H    0.998 --    39 C    0.975
    61  30 Zn   1.993 --   101 N    0.459    67 N    0.458    80 N    0.455
                            87 N    0.455
    62   6 C    3.928 --    63 C    1.358   100 C    1.358   102 H    0.971
    63   6 C    3.920 --    62 C    1.358    67 N    1.232    64 C    1.170
    64   6 C    3.960 --    65 C    1.660    63 C    1.170   103 H    0.975
    65   6 C    3.963 --    64 C    1.660    66 C    1.171   104 H    0.973
    66   6 C    3.918 --    68 C    1.311    67 N    1.247    65 C    1.171
    67   7 N    3.293 --    66 C    1.247    63 C    1.232    61 Zn   0.458
    68   6 C    3.931 --    77 C    1.321    66 C    1.311    69 C    1.034
    69   6 C    3.985 --    76 C    1.382    70 C    1.379    68 C    1.034
    70   6 C    3.987 --    71 C    1.472    69 C    1.379   105 H    0.972
    71   6 C    3.988 --    70 C    1.472    72 C    1.369   106 H    0.968
    72   6 C    3.983 --    75 C    1.377    71 C    1.369    73 C    1.051
    73   6 C    3.864 --    74 O    1.806    72 C    1.051   107 H    0.942
    74   8 O    2.002 --    73 C    1.806
    75   6 C    3.993 --    76 C    1.466    72 C    1.377   108 H    0.971
    76   6 C    3.987 --    75 C    1.466    69 C    1.382   109 H    0.972
    77   6 C    3.912 --    68 C    1.321    80 N    1.227    78 C    1.178
    78   6 C    3.959 --    79 C    1.647    77 C    1.178   110 H    0.973
    79   6 C    3.961 --    78 C    1.647    81 C    1.185   111 H    0.974
    80   7 N    3.296 --    81 C    1.262    77 C    1.227    61 Zn   0.455
    81   6 C    3.900 --    80 N    1.262    82 C    1.254    79 C    1.185
    82   6 C    3.939 --    83 C    1.254    81 C    1.254   132 C    1.192
    83   6 C    3.900 --    87 N    1.262    82 C    1.254    84 C    1.185
    84   6 C    3.962 --    85 C    1.647    83 C    1.185   112 H    0.974
    85   6 C    3.959 --    84 C    1.647    86 C    1.178   113 H    0.973
    86   6 C    3.912 --    88 C    1.321    87 N    1.227    85 C    1.178
    87   7 N    3.296 --    83 C    1.262    86 C    1.227    61 Zn   0.455
    88   6 C    3.931 --    86 C    1.321    97 C    1.311    89 C    1.033
    89   6 C    3.985 --    90 C    1.382    96 C    1.380    88 C    1.033
    90   6 C    3.987 --    91 C    1.466    89 C    1.382   114 H    0.972
                            95 C    0.100
    91   6 C    3.993 --    90 C    1.466    92 C    1.377   115 H    0.971
    92   6 C    3.983 --    91 C    1.377    95 C    1.369    93 C    1.050
    93   6 C    3.864 --    94 O    1.806    92 C    1.050   116 H    0.942
    94   8 O    2.002 --    93 C    1.806
    95   6 C    3.988 --    96 C    1.472    92 C    1.369   117 H    0.968
                            90 C    0.100
    96   6 C    3.987 --    95 C    1.472    89 C    1.380   118 H    0.972
    97   6 C    3.918 --    88 C    1.311   101 N    1.246    98 C    1.171
    98   6 C    3.963 --    99 C    1.660    97 C    1.171   119 H    0.973
    99   6 C    3.960 --    98 C    1.660   100 C    1.170   120 H    0.975
   100   6 C    3.920 --    62 C    1.358   101 N    1.232    99 C    1.170
   101   7 N    3.293 --    97 C    1.246   100 C    1.232    61 Zn   0.459
   102   1 H    1.001 --    62 C    0.971
   103   1 H    0.998 --    64 C    0.975
   104   1 H    1.004 --    65 C    0.973
   105   1 H    1.004 --    70 C    0.972
   106   1 H    1.005 --    71 C    0.968
   107   1 H    1.010 --    73 C    0.942
   108   1 H    1.000 --    75 C    0.971
   109   1 H    1.004 --    76 C    0.972
   110   1 H    1.004 --    78 C    0.973
   111   1 H    1.002 --    79 C    0.974
   112   1 H    1.002 --    84 C    0.974
   113   1 H    1.004 --    85 C    0.973
   114   1 H    1.004 --    90 C    0.972
   115   1 H    1.000 --    91 C    0.971
   116   1 H    1.010 --    93 C    0.942
   117   1 H    1.005 --    95 C    0.968
   118   1 H    1.004 --    96 C    0.972
   119   1 H    1.004 --    98 C    0.973
   120   1 H    0.998 --    99 C    0.975
   121   6 C    3.926 --   122 C    2.367   125 C    1.336   124 C    0.190
   122   6 C    3.924 --   121 C    2.367   123 C    1.336   126 C    0.190
   123   6 C    3.934 --   124 C    2.448   122 C    1.336
   124   6 C    3.890 --   123 C    2.448    22 C    1.192   121 C    0.190
   125   6 C    3.931 --   126 C    2.446   121 C    1.336
   126   6 C    3.891 --   125 C    2.446   134 C    1.195   122 C    0.190
   127   6 C    3.924 --   128 C    2.367   131 C    1.335   130 C    0.190
   128   6 C    3.926 --   127 C    2.367   129 C    1.336   132 C    0.190
   129   6 C    3.931 --   130 C    2.446   128 C    1.336
   130   6 C    3.890 --   129 C    2.446   154 C    1.194   127 C    0.190
   131   6 C    3.934 --   132 C    2.448   127 C    1.335
   132   6 C    3.890 --   131 C    2.448    82 C    1.192   128 C    0.190
   133  30 Zn   1.990 --   173 N    0.456   152 N    0.456   139 N    0.455
                           159 N    0.455
   134   6 C    3.927 --   172 C    1.252   135 C    1.251   126 C    1.195
   135   6 C    3.900 --   139 N    1.263   134 C    1.251   136 C    1.188
   136   6 C    3.960 --   137 C    1.644   135 C    1.188   174 H    0.974
   137   6 C    3.960 --   136 C    1.644   138 C    1.181   175 H    0.973
   138   6 C    3.910 --   140 C    1.317   139 N    1.226   137 C    1.181
   139   7 N    3.291 --   135 C    1.263   138 C    1.226   133 Zn   0.455
   140   6 C    3.927 --   149 C    1.317   138 C    1.317   141 C    1.032
   141   6 C    3.985 --   148 C    1.383   142 C    1.380   140 C    1.032
   142   6 C    3.987 --   143 C    1.471   141 C    1.380   176 H    0.972
   143   6 C    3.988 --   142 C    1.471   144 C    1.369   177 H    0.968
                           148 C    0.100
   144   6 C    3.983 --   147 C    1.378   143 C    1.369   145 C    1.050
   145   6 C    3.864 --   146 O    1.807   144 C    1.050   178 H    0.942
   146   8 O    2.003 --   145 C    1.807
   147   6 C    3.993 --   148 C    1.466   144 C    1.378   179 H    0.971
   148   6 C    3.987 --   147 C    1.466   141 C    1.383   180 H    0.972
                           143 C    0.100
   149   6 C    3.910 --   140 C    1.317   152 N    1.226   150 C    1.180
   150   6 C    3.960 --   151 C    1.644   149 C    1.180   181 H    0.973
   151   6 C    3.960 --   150 C    1.644   153 C    1.187   182 H    0.974
   152   7 N    3.291 --   153 C    1.262   149 C    1.226   133 Zn   0.456
   153   6 C    3.901 --   152 N    1.262   154 C    1.252   151 C    1.187
   154   6 C    3.927 --   153 C    1.252   155 C    1.251   130 C    1.194
   155   6 C    3.901 --   159 N    1.263   154 C    1.251   156 C    1.188
   156   6 C    3.960 --   157 C    1.643   155 C    1.188   183 H    0.974
   157   6 C    3.960 --   156 C    1.643   158 C    1.181   184 H    0.973
   158   6 C    3.910 --   160 C    1.317   159 N    1.226   157 C    1.181
   159   7 N    3.291 --   155 C    1.263   158 C    1.226   133 Zn   0.455
   160   6 C    3.927 --   169 C    1.317   158 C    1.317   161 C    1.033
   161   6 C    3.985 --   162 C    1.383   168 C    1.380   160 C    1.033
   162   6 C    3.987 --   163 C    1.466   161 C    1.383   185 H    0.972
                           167 C    0.100
   163   6 C    3.993 --   162 C    1.466   164 C    1.378   186 H    0.971
   164   6 C    3.983 --   163 C    1.378   167 C    1.369   165 C    1.050
   165   6 C    3.864 --   166 O    1.807   164 C    1.050   187 H    0.942
   166   8 O    2.002 --   165 C    1.807
   167   6 C    3.988 --   168 C    1.471   164 C    1.369   188 H    0.968
                           162 C    0.100
   168   6 C    3.987 --   167 C    1.471   161 C    1.380   189 H    0.972
   169   6 C    3.910 --   160 C    1.317   173 N    1.226   170 C    1.180
   170   6 C    3.960 --   171 C    1.644   169 C    1.180   190 H    0.973
   171   6 C    3.960 --   170 C    1.644   172 C    1.187   191 H    0.974
   172   6 C    3.900 --   173 N    1.263   134 C    1.252   171 C    1.187
   173   7 N    3.291 --   172 C    1.263   169 C    1.226   133 Zn   0.456
   174   1 H    1.002 --   136 C    0.974
   175   1 H    1.004 --   137 C    0.973
   176   1 H    1.004 --   142 C    0.972
   177   1 H    1.005 --   143 C    0.968
   178   1 H    1.010 --   145 C    0.942
   179   1 H    1.000 --   147 C    0.971
   180   1 H    1.004 --   148 C    0.972
   181   1 H    1.004 --   150 C    0.973
   182   1 H    1.002 --   151 C    0.974
   183   1 H    1.002 --   156 C    0.974
   184   1 H    1.004 --   157 C    0.973
   185   1 H    1.004 --   162 C    0.972
   186   1 H    1.000 --   163 C    0.971
   187   1 H    1.010 --   165 C    0.942
   188   1 H    1.005 --   167 C    0.968
   189   1 H    1.004 --   168 C    0.972
   190   1 H    1.004 --   170 C    0.973
   191   1 H    1.002 --   171 C    0.974
 ---------------------------------------------------------------------------

           -------------------------------------------------
          | TOTAL ENERGY             -339.617442760732 Eh   |
          | GRADIENT NORM               0.000673242407 Eh/α |
          | HOMO-LUMO GAP               0.954647343301 eV   |
           -------------------------------------------------

 * finished run on 2022/07/30 at 09:11:52.186
