   * xtb version 6.5.1 (b24c23e) compiled by 'conda@728c89f4b128' on 2022-07-12
          program call               : xtb Co_PhCHO_C2_2.xyz --gfn 1 --opt -T 48

   ID    Z sym.   atoms
    1   27 Co     1, 61
    2    6 C      2-6, 8-13, 15-19, 21-26, 28-33, 35-40, 62-66, 68-73, 75-79,
                  81-86, 88-93, 95-100, 121, 122
    3    7 N      7, 20, 27, 41, 67, 80, 87, 101
    4    8 O      14, 34, 74, 94
    5    1 H      42-60, 102-120
########################################################################
[WARNING] Please study the warnings concerning your input carefully
-1- prog_main_parseArguments: Unknown option '-T' provided
########################################################################

          :  Hamiltonian                  GFN1-xTB          :
 * total energy  :  -219.4454911 Eh     change        0.3211653E-11 Eh
 * total energy  :  -219.5911102 Eh     change       -0.1456191E+00 Eh
 * total energy  :  -219.6507361 Eh     change       -0.5962589E-01 Eh
 * total energy  :  -219.6691381 Eh     change       -0.1840197E-01 Eh
 * total energy  :  -219.6769342 Eh     change       -0.7796090E-02 Eh
 * total energy  :  -219.6813237 Eh     change       -0.4389523E-02 Eh
 * total energy  :  -219.6831070 Eh     change       -0.1783311E-02 Eh
 * total energy  :  -219.6844703 Eh     change       -0.1363310E-02 Eh
 * total energy  :  -219.6851942 Eh     change       -0.7239101E-03 Eh
 * total energy  :  -219.6858176 Eh     change       -0.6233838E-03 Eh
 * total energy  :  -219.6876968 Eh     change       -0.9244686E-05 Eh
 * total energy  :  -219.6877066 Eh     change       -0.9762243E-05 Eh
 * total energy  :  -219.6877194 Eh     change       -0.1280592E-04 Eh
 * total energy  :  -219.6877275 Eh     change       -0.8102189E-05 Eh
 * total energy  :  -219.6877380 Eh     change       -0.1054933E-04 Eh
 * total energy  :  -219.6877460 Eh     change       -0.7958372E-05 Eh
 * total energy  :  -219.6877523 Eh     change       -0.6327185E-05 Eh
 * total energy  :  -219.6877518 Eh     change        0.4638841E-06 Eh
 * total energy  :  -219.6877553 Eh     change       -0.3515355E-05 Eh
   *** GEOMETRY OPTIMIZATION CONVERGED AFTER 45 ITERATIONS ***

 final structure:
================
122
 xtb: 6.5.1 (b24c23e)
Co          17.15757495371326        0.06534486006018       -0.06849499445039
C           13.78898944348608        0.12870680629980       -0.29599626571230
C           14.47089883536373        1.32378808150965       -0.36576345287794
C           13.82648512541585        2.59536261583152       -0.49511308362704
C           14.77963834320649        3.53479851034559       -0.29560065555069
C           16.01007329906312        2.83579897489008       -0.06392141772626
N           15.81826444030006        1.48072293348699       -0.15424677778310
C           17.18828957881376        3.44770764133485        0.34225511922636
C           17.19190016777453        4.91111275534306        0.57499546772435
C           17.38444268727299        5.41586585411995        1.86386513927390
C           17.37077761001342        6.77942892537034        2.08674545065281
C           17.17128127969370        7.66777177441016        1.02503453233401
C           17.15381217451239        9.11855667874556        1.29050977810198
O           17.29459695727691        9.59942391725386        2.38530461741533
C           16.98833983258584        7.16356731897882       -0.26460287297214
C           16.99610583313019        5.79764575758938       -0.48661043374621
C           18.36236816048006        2.73506092977062        0.53115602935899
C           19.61304744632361        3.33842223817928        0.88200448270231
C           20.56105860319083        2.38135342085774        0.74240169108525
N           18.54100992703713        1.40578246050951        0.22136160558618
C           19.88865915680954        1.19705783228683        0.31078385153273
C           20.55323797453510        0.02659525738776       -0.05992315289069
C           19.86505690929323       -1.13827510382055       -0.40090966607048
C           20.51360117055094       -2.35226482989234       -0.78432510644892
C           19.54997376808926       -3.30123782239184       -0.85832773913184
C           18.31479475853755       -2.66195915509592       -0.51783115828405
N           18.51285589219216       -1.31816543171679       -0.30044296246033
C           17.11043388203140       -3.33268309748173       -0.36136798412744
C           17.09234357555900       -4.80747263906283       -0.47609733389707
C           16.31149908985372       -5.42885449706461       -1.45486391371845
C           16.29835644128082       -6.80736165292466       -1.57010373031623
C           17.06220389650990       -7.59305711160686       -0.70385714509234
C           17.06421481421381       -9.06422782376902       -0.80537435788434
O           17.70594212669189       -9.78357350750654       -0.08389213092213
C           17.84150703717383       -6.97179824904025        0.27760168049673
C           17.85931944626392       -5.59480035547598        0.38810588140923
C           15.91989816467972       -2.65794515346938       -0.12612474514994
C           14.65161474939562       -3.30175102028084        0.05524452802995
C           13.71352931821822       -2.32580789518830        0.04837238161157
C           14.41171648748834       -1.08714974643038       -0.11286523621669
N           15.76672965301564       -1.29554321722734       -0.16386062912526
H           12.70769667665989        0.14860981656104       -0.36299373450719
H           12.77368993930934        2.72973296710998       -0.68564676945699
H           14.66906356757185        4.60687966267630       -0.28578172889152
H           17.52748479319753        4.72833193660521        2.68972298759478
H           17.51085192190553        7.18045174650275        3.08484082424317
H           16.99581911660609        9.74540088008453        0.38710659755520
H           16.83881725024349        7.84637680263399       -1.09464258355989
H           16.86382914629996        5.40882452716059       -1.48995181698680
H           19.74051531384648        4.36831153351326        1.17269987702205
H           21.62386712739887        2.45717219791993        0.90586041134434
H           21.57182939173785       -2.45143754615401       -0.96400401414615
H           19.65418942273914       -4.34111162397075       -1.12156809022299
H           15.72856201063510       -4.82099241659245       -2.13760161584043
H           15.69452126465359       -7.28110401489186       -2.33725216988603
H           16.41686780973343       -9.46602195582935       -1.61386275623708
H           18.42885630511355       -7.59030501979727        0.94771167854135
H           18.45582885169977       -5.11635715524914        1.15658651283785
H           14.51125662528137       -4.36446990963493        0.16814097562906
H           12.64321621607055       -2.41571495259494        0.14359122608821
Co          27.98019301679221       -0.05492910271221       -0.07706820228224
C           31.34878060325652       -0.08523490103789       -0.31134747251849
C           30.66687192597451       -1.25820591750930       -0.55056565358600
C           31.31129049917586       -2.49840284140159       -0.85966259921262
C           30.35814137449212       -3.45667814388568       -0.79594472055181
C           29.12770660799530       -2.79779465682652       -0.46709256827556
N           29.31950605285899       -1.44366223547089       -0.36355693755938
C           27.94949197117679       -3.46131341990110       -0.15220683661579
C           27.94588472519770       -4.94294907588596       -0.13022200879076
C           27.75320947767195       -5.62608173570536        1.07360759355514
C           27.76676241249505       -7.00748857947905        1.10002503517492
C           27.96643244619111       -7.73558897232685       -0.07732979544126
C           27.98365210073035       -9.20937310128782       -0.02125849435485
O           27.84295755761037       -9.84125151145265        0.99390052982961
C           28.14959861087975       -7.05290317944482       -1.28197077359316
C           28.14175601853772       -5.66928736890176       -1.30722860933076
C           26.77540428137574       -2.78283370393996        0.13622851614626
C           25.52472362941648       -3.43000920996360        0.39757908680070
C           24.57671279700902       -2.46281295874671        0.39569036899464
N           26.59676090156482       -1.42298612131744        0.01888724984537
C           25.24911273740345       -1.22912187457296        0.13712640870387
C           24.58453073328302       -0.01779521299437       -0.06310849770727
C           25.27270762248177        1.18376482396334       -0.23472434461812
C           24.62415771727555        2.43998447193561       -0.44132597093875
C           25.58778338799263        3.38982488460889       -0.37942653669115
C           26.82296780418186        2.70857011344968       -0.13347025595892
N           26.62491010552218        1.34751346449857       -0.10967935275466
C           28.02732971599929        3.35017600385402        0.11690146265595
C           28.04542364699639        4.82627246818047        0.21338602213105
C           28.82623718554499        5.58071915699108       -0.66693664979832
C           28.83938012811202        6.96158609830133       -0.58468639417635
C           28.07555679770226        7.61590192801220        0.38464326862890
C           28.07356761420525        9.08654052116508        0.49369574768359
O           27.43175145537323        9.69582694787945        1.31021793287050
C           27.29627132682502        6.86119407893197        1.26764458731368
C           27.27847065766717        5.48249113298748        1.18093005765716
C           29.21786899146022        2.64881786705469        0.25363648182068
C           30.48615222629828        3.26023961528150        0.52482639342483
C           31.42424067253658        2.29522901631660        0.37902080551526
C           30.72605351509477        1.09215112507357        0.04305613126071
N           29.37103959269947        1.30567730600545        0.02226387093919
H           32.43007274521630       -0.09539101109674       -0.38051660729445
H           32.36408706303848       -2.60427054337287       -1.06738959300963
H           30.46871860555938       -4.51923359114744       -0.93887905905691
H           27.61023252257924       -5.06314791157971        1.98896912384846
H           27.62687882714662       -7.54655936057980        2.03089816589767
H           28.14229424625669       -9.70118902417574       -1.00449577303914
H           28.29888087092979       -7.61057453422643       -2.20083731222263
H           28.27392903163327       -5.14155436707557       -2.24500856723261
H           25.39725163074129       -4.49079769982450        0.53865900913651
H           23.51390452054083       -2.56113339192413        0.54668735194342
H           23.56592775529618        2.56373407477261       -0.60504233186589
H           25.48356495884818        4.45659014273573       -0.49187574134575
H           29.40913222331240        5.07628981213533       -1.42931696183190
H           29.44319423623526        7.53975552272374       -1.27656488782837
H           28.72092078088662        9.59935565721692       -0.24930965227395
H           26.70897392874780        7.37795492427257        2.01904689648048
H           26.68199501287188        4.89947942752725        1.87346374838751
H           30.62650985188766        4.29605262768347        0.78790127246035
H           32.49455512029650        2.37066890298405        0.48604711530051
C           21.96075456085563        0.01339045459670       -0.06692184494151
C           23.17701410049413       -0.00372802240920       -0.06815232906014

          :  Hamiltonian                  GFN1-xTB          :
         :: total energy            -219.687755348834 Eh    ::
         :: gradient norm              0.000349257890 Eh/a0 ::
         :: HOMO-LUMO gap              0.007505298832 eV    ::
         :: SCC energy              -222.994929069402 Eh    ::
         :: repulsion energy           3.418115844172 Eh    ::

    * Orbital Energies and Occupations

         #    Occupation            Energy/Eh            Energy/eV
      -------------------------------------------------------------
         1        2.0000           -0.7934452             -21.5907
       ...           ...                  ...                  ...
       188        2.0000           -0.4416409             -12.0177
       189        2.0000           -0.4416224             -12.0172
       190        2.0000           -0.4134238             -11.2498
       191        2.0000           -0.4105151             -11.1707
       192        2.0000           -0.4104718             -11.1695
       193        2.0000           -0.4096502             -11.1471
       194        2.0000           -0.4094555             -11.1419
       195        1.9998           -0.4061904             -11.0530
       196        1.9998           -0.4061882             -11.0529
       197        1.9998           -0.4060783             -11.0500
       198        1.9998           -0.4060768             -11.0499
       199        1.9002           -0.4002765             -10.8921
       200        1.1226           -0.3977115             -10.8223 (HOMO)
       201        0.9781           -0.3974356             -10.8148 (LUMO)
       202                         -0.3515614              -9.5665
       203                         -0.3445304              -9.3751
       204                         -0.3445191              -9.3748
       205                         -0.3359802              -9.1425
       206                         -0.3290638              -8.9543
       207                         -0.3283483              -8.9348
       208                         -0.3239927              -8.8163
       209                         -0.3239864              -8.8161
       210                         -0.3084364              -8.3930
       211                         -0.3082388              -8.3876
       ...                                ...                  ...
       422                          1.3296348              36.1812
      -------------------------------------------------------------
                  HL-Gap            0.0002758 Eh            0.0075 eV

Wiberg/Mayer (AO) data.
largest (>0.10) Wiberg bond orders for each atom

     #   Z sym  total        # sym  WBO       # sym  WBO       # sym  WBO
 ---------------------------------------------------------------------------
     1  27 Co   3.044 --     7 N    0.640    41 N    0.637    27 N    0.635
                            20 N    0.634
     2   6 C    3.929 --     3 C    1.368    40 C    1.362    42 H    0.970
     3   6 C    3.923 --     2 C    1.368     7 N    1.200     4 C    1.172
     4   6 C    3.960 --     5 C    1.651     3 C    1.172    43 H    0.975
     5   6 C    3.963 --     4 C    1.651     6 C    1.175    44 H    0.972
     6   6 C    3.919 --     8 C    1.319     7 N    1.213     5 C    1.175
     7   7 N    3.346 --     6 C    1.213     3 C    1.200     1 Co   0.640
     8   6 C    3.931 --    17 C    1.333     6 C    1.319     9 C    1.025
     9   6 C    3.986 --    16 C    1.386    10 C    1.383     8 C    1.025
    10   6 C    3.988 --    11 C    1.469     9 C    1.383    45 H    0.972
                            15 C    0.101
    11   6 C    3.988 --    10 C    1.469    12 C    1.371    46 H    0.967
                            16 C    0.101
    12   6 C    3.985 --    15 C    1.380    11 C    1.371    13 C    1.047
    13   6 C    3.864 --    14 O    1.810    12 C    1.047    47 H    0.942
    14   8 O    2.006 --    13 C    1.810
    15   6 C    3.993 --    16 C    1.464    12 C    1.380    48 H    0.971
                            10 C    0.101
    16   6 C    3.988 --    15 C    1.464     9 C    1.386    49 H    0.972
                            11 C    0.101
    17   6 C    3.915 --     8 C    1.333    20 N    1.193    18 C    1.180
    18   6 C    3.958 --    19 C    1.639    17 C    1.180    50 H    0.973
    19   6 C    3.962 --    18 C    1.639    21 C    1.189    51 H    0.971
    20   7 N    3.349 --    21 C    1.230    17 C    1.193     1 Co   0.634
    21   6 C    3.909 --    22 C    1.265    20 N    1.230    19 C    1.189
    22   6 C    3.934 --    23 C    1.269    21 C    1.265   121 C    1.174
    23   6 C    3.909 --    22 C    1.269    27 N    1.226    24 C    1.189
    24   6 C    3.962 --    25 C    1.637    23 C    1.189    52 H    0.972
    25   6 C    3.959 --    24 C    1.637    26 C    1.181    53 H    0.973
    26   6 C    3.916 --    28 C    1.327    27 N    1.198    25 C    1.181
    27   7 N    3.347 --    23 C    1.226    26 C    1.198     1 Co   0.635
    28   6 C    3.931 --    26 C    1.327    37 C    1.318    29 C    1.034
    29   6 C    3.986 --    30 C    1.382    36 C    1.380    28 C    1.034
    30   6 C    3.987 --    31 C    1.465    29 C    1.382    54 H    0.971
                            35 C    0.101
    31   6 C    3.993 --    30 C    1.465    32 C    1.379    55 H    0.971
    32   6 C    3.983 --    31 C    1.379    35 C    1.370    33 C    1.048
    33   6 C    3.864 --    34 O    1.810    32 C    1.048    56 H    0.942
    34   8 O    2.005 --    33 C    1.810
    35   6 C    3.988 --    36 C    1.471    32 C    1.370    57 H    0.968
                            30 C    0.101
    36   6 C    3.987 --    35 C    1.471    29 C    1.380    58 H    0.972
    37   6 C    3.920 --    28 C    1.318    41 N    1.212    38 C    1.176
    38   6 C    3.962 --    39 C    1.648    37 C    1.176    59 H    0.973
    39   6 C    3.959 --    38 C    1.648    40 C    1.175    60 H    0.975
    40   6 C    3.923 --     2 C    1.362    41 N    1.202    39 C    1.175
    41   7 N    3.347 --    37 C    1.212    40 C    1.202     1 Co   0.637
    42   1 H    1.000 --     2 C    0.970
    43   1 H    0.997 --     4 C    0.975
    44   1 H    1.004 --     5 C    0.972
    45   1 H    1.003 --    10 C    0.972
    46   1 H    1.004 --    11 C    0.967
    47   1 H    1.010 --    13 C    0.942
    48   1 H    1.000 --    15 C    0.971
    49   1 H    1.003 --    16 C    0.972
    50   1 H    1.003 --    18 C    0.973
    51   1 H    1.003 --    19 C    0.971
    52   1 H    1.003 --    24 C    0.972
    53   1 H    1.003 --    25 C    0.973
    54   1 H    1.004 --    30 C    0.971
    55   1 H    1.000 --    31 C    0.971
    56   1 H    1.010 --    33 C    0.942
    57   1 H    1.004 --    35 C    0.968
    58   1 H    1.004 --    36 C    0.972
    59   1 H    1.003 --    38 C    0.973
    60   1 H    0.997 --    39 C    0.975
    61  27 Co   3.044 --    67 N    0.640   101 N    0.637    87 N    0.635
                            80 N    0.634
    62   6 C    3.929 --    63 C    1.368   100 C    1.362   102 H    0.970
    63   6 C    3.923 --    62 C    1.368    67 N    1.200    64 C    1.172
    64   6 C    3.960 --    65 C    1.651    63 C    1.172   103 H    0.975
    65   6 C    3.963 --    64 C    1.651    66 C    1.175   104 H    0.972
    66   6 C    3.919 --    68 C    1.319    67 N    1.213    65 C    1.175
    67   7 N    3.346 --    66 C    1.213    63 C    1.200    61 Co   0.640
    68   6 C    3.931 --    77 C    1.333    66 C    1.319    69 C    1.025
    69   6 C    3.986 --    76 C    1.386    70 C    1.383    68 C    1.025
    70   6 C    3.988 --    71 C    1.469    69 C    1.383   105 H    0.972
                            75 C    0.101
    71   6 C    3.988 --    70 C    1.469    72 C    1.371   106 H    0.967
                            76 C    0.101
    72   6 C    3.985 --    75 C    1.380    71 C    1.371    73 C    1.047
    73   6 C    3.864 --    74 O    1.810    72 C    1.047   107 H    0.942
    74   8 O    2.006 --    73 C    1.810
    75   6 C    3.993 --    76 C    1.463    72 C    1.380   108 H    0.971
                            70 C    0.101
    76   6 C    3.988 --    75 C    1.463    69 C    1.386   109 H    0.972
                            71 C    0.101
    77   6 C    3.915 --    68 C    1.333    80 N    1.193    78 C    1.180
    78   6 C    3.958 --    79 C    1.639    77 C    1.180   110 H    0.973
    79   6 C    3.962 --    78 C    1.639    81 C    1.189   111 H    0.971
    80   7 N    3.349 --    81 C    1.230    77 C    1.193    61 Co   0.634
    81   6 C    3.909 --    82 C    1.265    80 N    1.230    79 C    1.189
    82   6 C    3.934 --    83 C    1.269    81 C    1.265   122 C    1.174
    83   6 C    3.909 --    82 C    1.269    87 N    1.226    84 C    1.189
    84   6 C    3.962 --    85 C    1.637    83 C    1.189   112 H    0.972
    85   6 C    3.959 --    84 C    1.637    86 C    1.181   113 H    0.973
    86   6 C    3.916 --    88 C    1.327    87 N    1.198    85 C    1.181
    87   7 N    3.347 --    83 C    1.226    86 C    1.198    61 Co   0.635
    88   6 C    3.931 --    86 C    1.327    97 C    1.318    89 C    1.034
    89   6 C    3.986 --    90 C    1.382    96 C    1.380    88 C    1.034
    90   6 C    3.987 --    91 C    1.465    89 C    1.382   114 H    0.971
                            95 C    0.101
    91   6 C    3.993 --    90 C    1.465    92 C    1.379   115 H    0.971
    92   6 C    3.983 --    91 C    1.379    95 C    1.370    93 C    1.048
    93   6 C    3.864 --    94 O    1.810    92 C    1.048   116 H    0.942
    94   8 O    2.005 --    93 C    1.810
    95   6 C    3.988 --    96 C    1.471    92 C    1.370   117 H    0.968
                            90 C    0.101
    96   6 C    3.987 --    95 C    1.471    89 C    1.380   118 H    0.972
    97   6 C    3.920 --    88 C    1.318   101 N    1.212    98 C    1.176
    98   6 C    3.962 --    99 C    1.648    97 C    1.176   119 H    0.973
    99   6 C    3.959 --    98 C    1.648   100 C    1.175   120 H    0.975
   100   6 C    3.923 --    62 C    1.362   101 N    1.202    99 C    1.175
   101   7 N    3.347 --    97 C    1.212   100 C    1.202    61 Co   0.637
   102   1 H    1.000 --    62 C    0.970
   103   1 H    0.997 --    64 C    0.975
   104   1 H    1.004 --    65 C    0.972
   105   1 H    1.003 --    70 C    0.972
   106   1 H    1.004 --    71 C    0.967
   107   1 H    1.010 --    73 C    0.942
   108   1 H    1.000 --    75 C    0.971
   109   1 H    1.003 --    76 C    0.972
   110   1 H    1.003 --    78 C    0.973
   111   1 H    1.003 --    79 C    0.971
   112   1 H    1.003 --    84 C    0.972
   113   1 H    1.003 --    85 C    0.973
   114   1 H    1.004 --    90 C    0.971
   115   1 H    1.000 --    91 C    0.971
   116   1 H    1.010 --    93 C    0.942
   117   1 H    1.004 --    95 C    0.968
   118   1 H    1.004 --    96 C    0.972
   119   1 H    1.003 --    98 C    0.973
   120   1 H    0.997 --    99 C    0.975
   121   6 C    3.930 --   122 C    2.577    22 C    1.174
   122   6 C    3.930 --   121 C    2.577    82 C    1.174
 ---------------------------------------------------------------------------

           -------------------------------------------------
          | TOTAL ENERGY             -219.687755348834 Eh   |
          | GRADIENT NORM               0.000349257890 Eh/α |
          | HOMO-LUMO GAP               0.007505298832 eV   |
           -------------------------------------------------

 * finished run on 2022/07/29 at 22:05:06.703
