   * xtb version 6.5.1 (b24c23e) compiled by 'conda@728c89f4b128' on 2022-07-12
          program call               : xtb Ph2Me_C6_3.xyz --gfn 1 --opt -T 48

   ID    Z sym.   atoms
    1    6 C      1-5, 7-10, 12-30, 33-40, 70-74, 76-79, 81-99, 102-109,
                  139-155, 157-160, 162-180, 183-190
    2    7 N      6, 11, 31, 32, 75, 80, 100, 101, 156, 161, 181, 182
    3    1 H      41-69, 110-138, 191-218

          :  Hamiltonian                  GFN1-xTB          :
 * total energy  :  -335.2025154 Eh     change       -0.4414403E-08 Eh
 * total energy  :  -337.2862579 Eh     change       -0.2083742E+01 Eh
 * total energy  :  -337.5696936 Eh     change       -0.2834357E+00 Eh
 * total energy  :  -337.7245460 Eh     change       -0.1548524E+00 Eh
 * total energy  :  -337.8390421 Eh     change       -0.1144961E+00 Eh
 * total energy  :  -337.9073617 Eh     change       -0.6831966E-01 Eh
 * total energy  :  -337.9479522 Eh     change       -0.4059048E-01 Eh
 * total energy  :  -337.9759052 Eh     change       -0.2795302E-01 Eh
 * total energy  :  -337.9936725 Eh     change       -0.1776729E-01 Eh
 * total energy  :  -338.0037866 Eh     change       -0.1011403E-01 Eh
 * total energy  :  -338.0494078 Eh     change        0.3830675E-04 Eh
 * total energy  :  -338.0494493 Eh     change       -0.4156502E-04 Eh
 * total energy  :  -338.0494446 Eh     change        0.4775603E-05 Eh
 * total energy  :  -338.0494556 Eh     change       -0.1106859E-04 Eh
 * total energy  :  -338.0493967 Eh     change        0.5892898E-04 Eh
 * total energy  :  -338.0494573 Eh     change       -0.6058920E-04 Eh
 * total energy  :  -338.0494601 Eh     change       -0.2844712E-05 Eh
 * total energy  :  -338.0494688 Eh     change       -0.8687717E-05 Eh
 * total energy  :  -338.0494721 Eh     change       -0.3285687E-05 Eh
   *** GEOMETRY OPTIMIZATION CONVERGED AFTER 80 ITERATIONS ***

 final structure:
================
218
 xtb: 6.5.1 (b24c23e)
C           24.25157056837151        0.09774815753922        0.00396155448637
C           24.86628718697341        1.29428751919317        0.35018829952774
C           24.22052602925880        2.50733642340347        0.72039779770420
C           25.18749991176857        3.43895763257505        0.97471334397529
C           26.45546696263336        2.82793666121172        0.75822285951662
N           26.21072161381999        1.53442353474004        0.39276460823286
C           27.72096634486076        3.40779401068083        0.90118935837587
C           28.93330226716564        2.74203853653779        0.70804590439471
C           30.23290829701082        3.38293648260854        0.80079082284050
C           31.15030282296026        2.42499214590566        0.55423477400298
N           29.08337861762941        1.42593469482410        0.39204836784745
C           30.40995931848796        1.20361586856273        0.30328324881232
C           31.04216246451277       -0.02432774940303        0.02052504760717
C           30.40088966947495       -1.24282014213301       -0.27221580467080
C           31.03875260767061       -2.48332658654915       -0.53872989907906
C           30.06727543623810       -3.40982216071107       -0.79877777026485
C           28.80525975542688       -2.76009415438455       -0.70619692936026
C           27.54194254631548       -3.33051862551446       -0.89077558372894
C           27.50855590622540       -4.76123756367207       -1.28303794978449
C           26.90508705836926       -5.70591025347180       -0.45401383549875
C           26.88169070449195       -7.04890487560072       -0.81395510001704
C           26.22195049085660       -8.06463484207176        0.07920517328155
C           27.46005124323089       -7.44322008071250       -2.01706126822777
C           28.06386150841798       -6.51206850839016       -2.85655968935861
C           28.66726027523732       -6.94538745830932       -4.16533669919914
C           28.08740282515646       -5.17263307449151       -2.48292190701629
C           26.32825256909230       -2.65319068303193       -0.73641710835309
C           25.02291298812648       -3.24885144412894       -0.97485002536895
C           24.11195996876550       -2.28799470404897       -0.71989249517110
C           24.85994211112092       -1.10323396691300       -0.33731341657031
N           26.19102155990524       -1.35789859924872       -0.36566150924446
N           29.05891831401578       -1.45475864848391       -0.37602380955864
C           27.75981059027795        4.84059195203038        1.28635789063860
C           28.36673133508888        5.23031594527353        2.47887209283617
C           28.40494257354517        6.57139045550896        2.84795419056988
C           29.07553447747365        6.97949525374846        4.13186862086935
C           27.83425489452787        7.52489861739056        2.01144894093991
C           27.22432228014667        7.15166167900778        0.81672167507748
C           26.63033212702334        8.19545235066618       -0.09019281697570
C           27.18851535572270        5.80835566678691        0.46025743216322
H           23.16625477076654        0.11272714146667        0.00122307202657
H           23.15177352414835        2.63561847368690        0.78574069662156
H           25.04182793361406        4.45881342066302        1.29206059141206
H           26.93242809043646        0.85150405578634        0.18790856015805
H           30.39823812735911        4.42704447385082        1.01172326104840
H           32.22483447432967        2.51193485610147        0.53115713696784
H           32.10561263880103       -2.63806636943201       -0.52606309009437
H           30.20797065502822       -4.45391740439039       -1.02624639750381
H           26.47096661145454       -5.38857974287600        0.48776113471443
H           25.18947154601006       -8.22432680518945       -0.23995301995122
H           26.74305628354283       -9.02109720987668        0.02923965698608
H           26.20897381981972       -7.72284984320058        1.11420967131399
H           27.44326151173308       -8.49023704067684       -2.30189426804374
H           29.47764026529950       -6.27816624281351       -4.45959132367260
H           29.05374691927253       -7.96252145863445       -4.09697139863646
H           27.90701563177873       -6.92315298796888       -4.94953831130596
H           28.54524368258159       -4.43611678071316       -3.13431646070891
H           24.85307985225204       -4.26178424343839       -1.30295005312688
H           23.03637693076517       -2.34258345992982       -0.78387093328396
H           28.34103832589242       -0.75312038045868       -0.22789478636139
H           28.79577746634418        4.47676645250970        3.13020677949790
H           28.85352815550625        6.26654602696821        4.92665853370722
H           28.74877224173182        7.97089480930762        4.44547229281174
H           30.15878779407528        7.00369364651644        3.99339780986283
H           27.86198316052775        8.57238211956447        2.29364573685444
H           26.20758543976836        9.01683358687538        0.48900307902960
H           27.40532395452696        8.60461908348828       -0.74241356370182
H           25.84905049272988        7.76677399485060       -0.71802962747258
H           26.72936134370947        5.50765700057006       -0.47525012932306
C           63.03115630596954       -0.08807875750782       -0.03195466804756
C           62.40936716240751       -1.29512500811492       -0.32509770573693
C           63.04796572912554       -2.53511988482817       -0.60810375281422
C           62.07553281057719       -3.46450915630509       -0.84966387517694
C           60.81130236923534       -2.81999268576302       -0.73094324116554
N           61.06360564749797       -1.51735743308308       -0.40525320262491
C           59.54224408828311       -3.38785607711831       -0.89004741347452
C           58.33420271861364       -2.70820738433660       -0.71999246584713
C           57.03019716918378       -3.30524248148267       -0.94646079565903
C           56.11919474598324       -2.34609140846667       -0.68198783684732
N           58.19281709391390       -1.40647236827923       -0.34520456320913
C           56.86778121690384       -1.16248414769407       -0.30560871751949
C           56.24272978124630        0.05309602655760        0.04061546018498
C           56.89033730122681        1.25853722025999        0.37029676709409
C           56.25923678998279        2.47563444303327        0.74052568657821
C           57.23625282889464        3.40379337380032        0.97255954120493
C           58.49517765033918        2.78261888536638        0.74282291767987
C           59.76259067275677        3.35927169109639        0.87203693133163
C           59.80706388722527        4.79589134274205        1.24071154672133
C           60.41127669103642        5.19892358561902        2.43096025260116
C           60.44683502804553        6.54311533221422        2.78512011288014
C           61.10825830318655        6.97575150727741        4.06576721004285
C           59.87917368525910        7.48800079107354        1.93511695459849
C           59.27443283557657        7.10198039551850        0.74281828128022
C           58.68259366379720        8.13357016386320       -0.17932103492867
C           59.23934654840595        5.75404798758415        0.40191477410819
C           60.97196259432787        2.68396198169597        0.67855416240751
C           62.28175509011412        3.30982496347306        0.77052889188424
C           63.18641498902294        2.34179553619145        0.52044842356511
C           62.43032650292432        1.12833958710065        0.26496511327757
N           61.10061278621718        1.37361261636470        0.36168868599883
N           58.23387054952501        1.48496092083144        0.38905840557529
C           59.49404017737734       -4.82079652496771       -1.27332256452041
C           58.88168933133120       -5.75236084533805       -0.43687103353367
C           58.83082708896382       -7.09661534835172       -0.79252377072714
C           58.15164693269237       -8.08932493941113        0.11187747037993
C           59.39551972723808       -7.50499263143566       -1.99630392738037
C           60.01204270716108       -6.58691146364890       -2.84223959130353
C           60.59972724004854       -7.03781620815304       -4.15224987591132
C           60.05955113317199       -5.24686804098451       -2.47504241913626
H           64.11639518539103       -0.10651642294593       -0.04069661794823
H           64.11591006493097       -2.68469686065564       -0.61699389193972
H           62.21513606159426       -4.50786150380527       -1.08198536501451
H           60.34581079720225       -0.81913872942990       -0.24243698753436
H           56.85725692969589       -4.31660746929453       -1.27683025232811
H           55.04405009149404       -2.40565406620056       -0.73801110990743
H           55.19285374897411        2.61178506695438        0.82194982887169
H           57.10114671166335        4.42650727930456        1.28477181580061
H           60.83668021045237        4.45190229978890        3.09209670342509
H           62.14036381857199        7.27402516046181        3.86786479079084
H           60.58760073564008        7.82888432704256        4.50164616470027
H           61.12235846780037        6.16211459788553        4.79101103636110
H           59.90531437886865        8.53811696571414        2.20757381272119
H           57.87140354991182        7.70735263739418       -0.76990387061139
H           58.30013809530445        8.98465573387340        0.38460211123568
H           59.44844998286610        8.49888255669822       -0.86739733415043
H           58.78143081858845        5.44254635382695       -0.53064264367125
H           62.45873340115275        4.35135207008479        0.98595156036902
H           64.26264079015344        2.41293580565175        0.49538437101679
H           58.94807617433383        0.79491953047187        0.18078512050167
H           58.45769242728471       -5.42512668738751        0.50615114311630
H           58.36540822391900       -7.86796001535284        1.15805722145160
H           58.47843583607654       -9.10562186083458       -0.10806954178828
H           57.06956306628184       -8.03961268773451       -0.02922604095112
H           59.35761997378770       -8.55192709546343       -2.27934968791967
H           61.01189845930504       -8.04358882861067       -4.06639683801496
H           59.82361837627868       -7.05424411539306       -4.92089410409670
H           61.38787219039718       -6.35948097974026       -4.47943076859292
H           60.52296714816350       -4.52034342676965       -3.13370675021312
C           36.24358650412930       -0.10089561792499        0.00685723393523
C           35.01526933156135       -0.08804896884480        0.01585588858565
C           33.67128056245680       -0.07110276253079        0.01953591948538
C           32.44755646033523       -0.04781989966079        0.02195510500838
C           37.58748492865924       -0.10649593522251       -0.00347073277473
C           38.81152509198688       -0.10383384937985       -0.01603631660109
C           52.26960434483409        0.08764915429794        0.06365087298644
C           51.04124210602306        0.07734244071560        0.05819565373840
C           49.69749935787365        0.06135191948851        0.04575882150504
C           48.47370219430624        0.03722121928706        0.03108155363703
C           53.61366859949570        0.08775962494572        0.06087486190582
C           54.83744095504501        0.07608142425173        0.05558336992491
C           40.21611577540150       -0.09334172094496       -0.02670663670311
C           40.85568277818695       -1.26504318754724        0.42141888704616
C           40.21996845180775       -2.43959823970529        0.90051905524027
C           41.19476449925268       -3.34510877825909        1.21986847564974
C           42.45474491061094       -2.75096096279562        0.93731879687036
N           42.19881234481753       -1.49109776544118        0.46539568040229
C           43.72031406522373       -3.32165214741268        1.11753359419117
C           44.93743767245751       -2.68351118811642        0.87484179414750
C           46.23112415979121       -3.32634380689913        1.02079136404049
C           47.15784525380261       -2.39486593712096        0.71462710322696
N           45.09949357099193       -1.39470463351409        0.46579481447371
C           46.42867487524108       -1.18968225205046        0.37232402674374
C           47.06947472612031        0.01242364542353        0.01038898378934
C           46.42870259956939        1.20374746417726       -0.38111499560143
C           47.06282474183593        2.42233240616483       -0.73630171729638
C           46.08836601181311        3.31813436107348       -1.08288227868283
C           44.83046512566131        2.66882383726466       -0.95504686811695
C           43.56623516487462        3.21457452009288       -1.20743443753942
C           43.53969292834739        4.60600017093858       -1.72442970011856
C           42.91826845540382        5.61775511228372       -0.99303491599697
C           42.88956506267932        6.92146212234845       -1.47486881427819
C           42.23669470563785        8.01556912930831       -0.67414762954434
C           43.48688715563772        7.21005969109633       -2.69901560744889
C           44.10876489319275        6.21153767127188       -3.44140655296459
C           44.76447565928778        6.53263340721802       -4.75736562350423
C           44.13542506800422        4.91130296442642       -2.94700542297904
C           42.34937467902870        2.55974801964212       -1.01339707577352
C           41.05739003418513        3.14195760802493       -1.32929571033506
C           40.13035945039269        2.22194755892700       -0.99118612573358
C           40.85800686366525        1.07562851811921       -0.48333784615107
N           42.18651449105923        1.30183010474560       -0.51747767027128
N           45.08668699586593        1.39674176044394       -0.51754141408217
C           43.74973625972167       -4.72083991826188        1.61317588695716
C           43.17964396500503       -5.74683808505046        0.86141756077006
C           43.20904068063401       -7.05981012161796        1.32072304467087
C           42.58109913814469       -8.15908675701539        0.50701496506637
C           43.80736686576380       -7.34054177596286        2.54484331531494
C           44.37922774669524       -6.32651179091181        3.30826504201759
C           45.00603941699619       -6.64020466101945        4.63985899111760
C           44.34840869096234       -5.01892496043560        2.83686886640357
H           39.15303717845953       -2.56525095984754        0.99057876883581
H           41.05588034729968       -4.33441288201725        1.62432054183165
H           42.91245667205867       -0.82204810469776        0.19645664197378
H           46.38645922475260       -4.35418382609534        1.30604161955718
H           48.23182920340606       -2.49052205222199        0.70513439157090
H           48.12844267748694        2.58506819930690       -0.72262908116881
H           46.22579877947372        4.34158942309037       -1.39150291758965
H           42.46694435933523        5.38251720480341       -0.03543554574280
H           42.99147251244840        8.55446089405748       -0.09688725663435
H           41.73929162431001        8.73055164990144       -1.33019581643632
H           41.50441447328559        7.60538769628317        0.02125745292521
H           43.46320826924656        8.22595014281823       -3.07985208825242
H           44.66532136119281        5.69895144021887       -5.45304711159869
H           45.82966263555119        6.72119218910682       -4.60478686068800
H           44.32231772554924        7.42208693010325       -5.20631187068830
H           44.60360957160576        4.12166267524524       -3.52464875778714
H           40.90322047357784        4.11721867060709       -1.76173489526722
H           39.05731882029619        2.28383504287175       -1.07721102051977
H           44.37412667052686        0.70160611301420       -0.32184933967207
H           42.72975120400790       -5.51878495845440       -0.09877539849841
H           43.02895365622877       -9.12407338616266        0.74458239390924
H           42.69952886074675       -7.96741333257912       -0.55977666034811
H           41.51194472351579       -8.21673313203450        0.72391851245638
H           43.83244965340876       -8.36295915622728        2.90769245920814
H           45.76172897429847       -5.89841526038611        4.89850719007490
H           45.46905675741412       -7.62723625585035        4.62731247100735
H           44.24171973834387       -6.63435655646831        5.42036995492877
H           44.78029096987277       -4.21850737135298        3.42751274090192

          :  Hamiltonian                  GFN1-xTB          :
         :: total energy            -338.049472101291 Eh    ::
         :: gradient norm              0.000491173566 Eh/a0 ::
         :: HOMO-LUMO gap              0.887008530179 eV    ::
         :: SCC energy              -343.851809699388 Eh    ::
         :: repulsion energy           5.978709036008 Eh    ::

    * Orbital Energies and Occupations

         #    Occupation            Energy/Eh            Energy/eV
      -------------------------------------------------------------
         1        2.0000           -0.8020015             -21.8236
       ...           ...                  ...                  ...
       301        2.0000           -0.4134015             -11.2492
       302        2.0000           -0.4129713             -11.2375
       303        2.0000           -0.4123089             -11.2195
       304        2.0000           -0.4121722             -11.2158
       305        2.0000           -0.4114609             -11.1964
       306        2.0000           -0.4108776             -11.1805
       307        2.0000           -0.4095625             -11.1448
       308        2.0000           -0.3963985             -10.7866
       309        2.0000           -0.3956779             -10.7669
       310        2.0000           -0.3955849             -10.7644
       311        2.0000           -0.3837956             -10.4436
       312        2.0000           -0.3794032             -10.3241
       313        2.0000           -0.3735320             -10.1643 (HOMO)
       314                         -0.3409351              -9.2773 (LUMO)
       315                         -0.3330688              -9.0633
       316                         -0.3286932              -8.9442
       317                         -0.3277509              -8.9186
       318                         -0.3275132              -8.9121
       319                         -0.3271550              -8.9023
       320                         -0.3031530              -8.2492
       321                         -0.2951522              -8.0315
       322                         -0.2934281              -7.9846
       323                         -0.2797205              -7.6116
       324                         -0.2783284              -7.5737
       ...                                ...                  ...
       700                          1.5827264              43.0682
      -------------------------------------------------------------
                  HL-Gap            0.0325970 Eh            0.8870 eV

Wiberg/Mayer (AO) data.
largest (>0.10) Wiberg bond orders for each atom

     #   Z sym  total        # sym  WBO       # sym  WBO       # sym  WBO
 ---------------------------------------------------------------------------
     1   6 C    3.924 --    30 C    1.366     2 C    1.346    41 H    0.971
     2   6 C    3.903 --     1 C    1.346     3 C    1.230     6 N    1.170
     3   6 C    3.953 --     4 C    1.595     2 C    1.230    42 H    0.977
     4   6 C    3.959 --     3 C    1.595     5 C    1.235    43 H    0.974
     5   6 C    3.896 --     7 C    1.303     4 C    1.235     6 N    1.177
     6   7 N    3.470 --     5 C    1.177     2 C    1.170    44 H    0.873
     7   6 C    3.939 --     8 C    1.337     5 C    1.303    33 C    1.027
     8   6 C    3.915 --     7 C    1.337    11 N    1.285     9 C    1.125
     9   6 C    3.966 --    10 C    1.710     8 C    1.125    45 H    0.974
    10   6 C    3.964 --     9 C    1.710    12 C    1.128    46 H    0.974
    11   7 N    3.022 --    12 C    1.345     8 C    1.285
    12   6 C    3.909 --    11 N    1.345    13 C    1.253    10 C    1.128
    13   6 C    3.937 --    12 C    1.253    14 C    1.251   142 C    1.191
    14   6 C    3.886 --    13 C    1.251    15 C    1.249    32 N    1.190
    15   6 C    3.959 --    16 C    1.583    14 C    1.249    47 H    0.975
    16   6 C    3.955 --    15 C    1.583    17 C    1.241    48 H    0.974
    17   6 C    3.898 --    18 C    1.311    16 C    1.241    32 N    1.164
    18   6 C    3.925 --    27 C    1.322    17 C    1.311    19 C    1.027
    19   6 C    3.988 --    26 C    1.396    20 C    1.396    18 C    1.027
                            23 C    0.103
    20   6 C    3.986 --    21 C    1.418    19 C    1.396    49 H    0.972
                            24 C    0.103
    21   6 C    3.988 --    20 C    1.418    23 C    1.414    22 C    1.020
                            26 C    0.103
    22   6 C    3.996 --    21 C    1.020    52 H    0.984    51 H    0.982
                            50 H    0.971
    23   6 C    3.988 --    24 C    1.416    21 C    1.414    53 H    0.972
                            19 C    0.103
    24   6 C    3.988 --    26 C    1.417    23 C    1.416    25 C    1.020
                            20 C    0.103
    25   6 C    3.995 --    24 C    1.020    54 H    0.983    55 H    0.982
                            56 H    0.971
    26   6 C    3.985 --    24 C    1.417    19 C    1.396    57 H    0.972
                            21 C    0.103
    27   6 C    3.929 --    18 C    1.322    31 N    1.316    28 C    1.118
    28   6 C    3.967 --    29 C    1.722    27 C    1.118    58 H    0.974
    29   6 C    3.966 --    28 C    1.722    30 C    1.117    59 H    0.976
    30   6 C    3.930 --     1 C    1.366    31 N    1.301    29 C    1.117
    31   7 N    3.012 --    27 C    1.316    30 C    1.301
    32   7 N    3.474 --    14 C    1.190    17 C    1.164    60 H    0.873
    33   6 C    3.988 --    34 C    1.399    40 C    1.393     7 C    1.027
                            37 C    0.102
    34   6 C    3.987 --    35 C    1.414    33 C    1.399    61 H    0.972
                            38 C    0.104
    35   6 C    3.988 --    37 C    1.419    34 C    1.414    36 C    1.020
                            40 C    0.103
    36   6 C    3.996 --    35 C    1.020    63 H    0.985    62 H    0.980
                            64 H    0.971
    37   6 C    3.988 --    35 C    1.419    38 C    1.412    65 H    0.972
                            33 C    0.102
    38   6 C    3.988 --    40 C    1.420    37 C    1.412    39 C    1.020
                            34 C    0.104
    39   6 C    3.996 --    38 C    1.020    68 H    0.984    66 H    0.982
                            67 H    0.971
    40   6 C    3.986 --    38 C    1.420    33 C    1.393    69 H    0.972
                            35 C    0.103
    41   1 H    1.002 --     1 C    0.971
    42   1 H    0.998 --     3 C    0.977
    43   1 H    1.005 --     4 C    0.974
    44   1 H    0.986 --     6 N    0.873
    45   1 H    1.005 --     9 C    0.974
    46   1 H    1.003 --    10 C    0.974
    47   1 H    1.002 --    15 C    0.975
    48   1 H    1.005 --    16 C    0.974
    49   1 H    1.003 --    20 C    0.972
    50   1 H    1.006 --    22 C    0.971
    51   1 H    1.004 --    22 C    0.982
    52   1 H    1.004 --    22 C    0.984
    53   1 H    1.000 --    23 C    0.972
    54   1 H    1.004 --    25 C    0.983
    55   1 H    1.004 --    25 C    0.982
    56   1 H    1.006 --    25 C    0.971
    57   1 H    1.003 --    26 C    0.972
    58   1 H    1.005 --    28 C    0.974
    59   1 H    0.998 --    29 C    0.976
    60   1 H    0.987 --    32 N    0.873
    61   1 H    1.003 --    34 C    0.972
    62   1 H    1.004 --    36 C    0.980
    63   1 H    1.004 --    36 C    0.985
    64   1 H    1.006 --    36 C    0.971
    65   1 H    1.000 --    37 C    0.972
    66   1 H    1.004 --    39 C    0.982
    67   1 H    1.006 --    39 C    0.971
    68   1 H    1.004 --    39 C    0.984
    69   1 H    1.003 --    40 C    0.972
    70   6 C    3.924 --    99 C    1.366    71 C    1.346   110 H    0.971
    71   6 C    3.903 --    70 C    1.346    72 C    1.230    75 N    1.170
    72   6 C    3.953 --    73 C    1.594    71 C    1.230   111 H    0.977
    73   6 C    3.959 --    72 C    1.594    74 C    1.235   112 H    0.974
    74   6 C    3.896 --    76 C    1.302    73 C    1.235    75 N    1.177
    75   7 N    3.470 --    74 C    1.177    71 C    1.170   113 H    0.873
    76   6 C    3.939 --    77 C    1.337    74 C    1.302   102 C    1.027
    77   6 C    3.915 --    76 C    1.337    80 N    1.284    78 C    1.125
    78   6 C    3.966 --    79 C    1.710    77 C    1.125   114 H    0.973
    79   6 C    3.964 --    78 C    1.710    81 C    1.128   115 H    0.974
    80   7 N    3.022 --    81 C    1.345    77 C    1.284
    81   6 C    3.909 --    80 N    1.345    82 C    1.253    79 C    1.128
    82   6 C    3.937 --    81 C    1.253    83 C    1.252   150 C    1.191
    83   6 C    3.886 --    82 C    1.252    84 C    1.249   101 N    1.190
    84   6 C    3.959 --    85 C    1.583    83 C    1.249   116 H    0.975
    85   6 C    3.955 --    84 C    1.583    86 C    1.241   117 H    0.974
    86   6 C    3.898 --    87 C    1.311    85 C    1.241   101 N    1.164
    87   6 C    3.925 --    96 C    1.321    86 C    1.311    88 C    1.027
    88   6 C    3.988 --    95 C    1.397    89 C    1.395    87 C    1.027
                            92 C    0.103
    89   6 C    3.986 --    90 C    1.418    88 C    1.395   118 H    0.972
                            93 C    0.103
    90   6 C    3.988 --    89 C    1.418    92 C    1.414    91 C    1.020
                            95 C    0.103
    91   6 C    3.996 --    90 C    1.020   121 H    0.984   120 H    0.982
                           119 H    0.971
    92   6 C    3.988 --    93 C    1.416    90 C    1.414   122 H    0.972
                            88 C    0.103
    93   6 C    3.988 --    95 C    1.417    92 C    1.416    94 C    1.020
                            89 C    0.103
    94   6 C    3.995 --    93 C    1.020   123 H    0.983   124 H    0.982
                           125 H    0.971
    95   6 C    3.985 --    93 C    1.417    88 C    1.397   126 H    0.972
                            90 C    0.103
    96   6 C    3.929 --    87 C    1.321   100 N    1.317    97 C    1.118
    97   6 C    3.967 --    98 C    1.722    96 C    1.118   127 H    0.974
    98   6 C    3.966 --    97 C    1.722    99 C    1.117   128 H    0.976
    99   6 C    3.930 --    70 C    1.366   100 N    1.300    98 C    1.117
   100   7 N    3.012 --    96 C    1.317    99 C    1.300
   101   7 N    3.474 --    83 C    1.190    86 C    1.164   129 H    0.873
   102   6 C    3.988 --   103 C    1.399   109 C    1.393    76 C    1.027
                           106 C    0.102
   103   6 C    3.987 --   104 C    1.414   102 C    1.399   130 H    0.972
                           107 C    0.104
   104   6 C    3.988 --   106 C    1.419   103 C    1.414   105 C    1.020
                           109 C    0.103
   105   6 C    3.996 --   104 C    1.020   132 H    0.984   131 H    0.981
                           133 H    0.971
   106   6 C    3.988 --   104 C    1.419   107 C    1.412   134 H    0.972
                           102 C    0.102
   107   6 C    3.988 --   109 C    1.420   106 C    1.412   108 C    1.020
                           103 C    0.104
   108   6 C    3.996 --   107 C    1.020   137 H    0.984   135 H    0.982
                           136 H    0.971
   109   6 C    3.986 --   107 C    1.420   102 C    1.393   138 H    0.972
                           104 C    0.103
   110   1 H    1.002 --    70 C    0.971
   111   1 H    0.998 --    72 C    0.977
   112   1 H    1.005 --    73 C    0.974
   113   1 H    0.986 --    75 N    0.873
   114   1 H    1.005 --    78 C    0.973
   115   1 H    1.003 --    79 C    0.974
   116   1 H    1.002 --    84 C    0.975
   117   1 H    1.005 --    85 C    0.974
   118   1 H    1.003 --    89 C    0.972
   119   1 H    1.006 --    91 C    0.971
   120   1 H    1.004 --    91 C    0.982
   121   1 H    1.004 --    91 C    0.984
   122   1 H    1.000 --    92 C    0.972
   123   1 H    1.004 --    94 C    0.983
   124   1 H    1.004 --    94 C    0.982
   125   1 H    1.006 --    94 C    0.971
   126   1 H    1.003 --    95 C    0.972
   127   1 H    1.005 --    97 C    0.974
   128   1 H    0.998 --    98 C    0.976
   129   1 H    0.987 --   101 N    0.873
   130   1 H    1.003 --   103 C    0.972
   131   1 H    1.004 --   105 C    0.981
   132   1 H    1.004 --   105 C    0.984
   133   1 H    1.006 --   105 C    0.971
   134   1 H    1.000 --   106 C    0.972
   135   1 H    1.004 --   108 C    0.982
   136   1 H    1.006 --   108 C    0.971
   137   1 H    1.004 --   108 C    0.984
   138   1 H    1.003 --   109 C    0.972
   139   6 C    3.924 --   140 C    2.366   143 C    1.336   142 C    0.190
   140   6 C    3.922 --   139 C    2.366   141 C    1.335   144 C    0.189
   141   6 C    3.931 --   142 C    2.447   140 C    1.335
   142   6 C    3.889 --   141 C    2.447    13 C    1.191   139 C    0.190
   143   6 C    3.928 --   144 C    2.445   139 C    1.336
   144   6 C    3.889 --   143 C    2.445   151 C    1.193   140 C    0.189
   145   6 C    3.922 --   146 C    2.366   149 C    1.335   148 C    0.189
   146   6 C    3.924 --   145 C    2.366   147 C    1.336   150 C    0.190
   147   6 C    3.928 --   148 C    2.445   146 C    1.336
   148   6 C    3.889 --   147 C    2.445   163 C    1.194   145 C    0.189
   149   6 C    3.932 --   150 C    2.447   145 C    1.335
   150   6 C    3.889 --   149 C    2.447    82 C    1.191   146 C    0.190
   151   6 C    3.924 --   180 C    1.253   152 C    1.248   144 C    1.193
   152   6 C    3.886 --   153 C    1.253   151 C    1.248   156 N    1.190
   153   6 C    3.955 --   154 C    1.577   152 C    1.253   191 H    0.975
   154   6 C    3.956 --   153 C    1.577   155 C    1.247   192 H    0.974
   155   6 C    3.893 --   157 C    1.300   154 C    1.247   156 N    1.166
   156   7 N    3.471 --   152 C    1.190   155 C    1.166   193 H    0.874
   157   6 C    3.928 --   158 C    1.339   155 C    1.300   183 C    1.026
   158   6 C    3.916 --   157 C    1.339   161 N    1.283   159 C    1.125
   159   6 C    3.966 --   160 C    1.709   158 C    1.125   194 H    0.974
   160   6 C    3.964 --   159 C    1.709   162 C    1.129   195 H    0.974
   161   7 N    3.010 --   162 C    1.345   158 C    1.283
   162   6 C    3.909 --   161 N    1.345   163 C    1.253   160 C    1.129
   163   6 C    3.924 --   162 C    1.253   164 C    1.247   148 C    1.194
   164   6 C    3.886 --   165 C    1.253   163 C    1.247   182 N    1.190
   165   6 C    3.955 --   166 C    1.577   164 C    1.253   196 H    0.975
   166   6 C    3.956 --   165 C    1.577   167 C    1.247   197 H    0.974
   167   6 C    3.893 --   168 C    1.300   166 C    1.247   182 N    1.166
   168   6 C    3.928 --   177 C    1.339   167 C    1.300   169 C    1.026
   169   6 C    3.988 --   176 C    1.399   170 C    1.394   168 C    1.026
                           173 C    0.103
   170   6 C    3.987 --   171 C    1.420   169 C    1.394   198 H    0.972
                           174 C    0.103
   171   6 C    3.988 --   170 C    1.420   173 C    1.412   172 C    1.020
                           176 C    0.104
   172   6 C    3.995 --   171 C    1.020   201 H    0.984   200 H    0.981
                           199 H    0.971
   173   6 C    3.988 --   174 C    1.418   171 C    1.412   202 H    0.972
                           169 C    0.103
   174   6 C    3.988 --   173 C    1.418   176 C    1.414   175 C    1.020
                           170 C    0.103
   175   6 C    3.995 --   174 C    1.020   205 H    0.984   203 H    0.982
                           204 H    0.971
   176   6 C    3.986 --   174 C    1.414   169 C    1.399   206 H    0.972
                           171 C    0.104
   177   6 C    3.916 --   168 C    1.339   181 N    1.283   178 C    1.125
   178   6 C    3.966 --   179 C    1.709   177 C    1.125   207 H    0.974
   179   6 C    3.964 --   178 C    1.709   180 C    1.129   208 H    0.974
   180   6 C    3.909 --   181 N    1.345   151 C    1.253   179 C    1.129
   181   7 N    3.010 --   180 C    1.345   177 C    1.283
   182   7 N    3.471 --   164 C    1.190   167 C    1.166   209 H    0.874
   183   6 C    3.988 --   184 C    1.399   190 C    1.394   157 C    1.026
                           187 C    0.102
   184   6 C    3.986 --   185 C    1.415   183 C    1.399   210 H    0.972
                           188 C    0.104
   185   6 C    3.988 --   187 C    1.418   184 C    1.415   186 C    1.020
                           190 C    0.103
   186   6 C    3.996 --   185 C    1.020   211 H    0.984   212 H    0.982
                           213 H    0.971
   187   6 C    3.988 --   185 C    1.418   188 C    1.413   214 H    0.972
                           183 C    0.102
   188   6 C    3.988 --   190 C    1.419   187 C    1.413   189 C    1.020
                           184 C    0.104
   189   6 C    3.995 --   188 C    1.020   215 H    0.983   216 H    0.982
                           217 H    0.971
   190   6 C    3.987 --   188 C    1.419   183 C    1.394   218 H    0.972
                           185 C    0.103
   191   1 H    1.002 --   153 C    0.975
   192   1 H    1.005 --   154 C    0.974
   193   1 H    0.987 --   156 N    0.874
   194   1 H    1.005 --   159 C    0.974
   195   1 H    1.003 --   160 C    0.974
   196   1 H    1.002 --   165 C    0.975
   197   1 H    1.005 --   166 C    0.974
   198   1 H    1.003 --   170 C    0.972
   199   1 H    1.006 --   172 C    0.971
   200   1 H    1.004 --   172 C    0.981
   201   1 H    1.004 --   172 C    0.984
   202   1 H    1.000 --   173 C    0.972
   203   1 H    1.004 --   175 C    0.982
   204   1 H    1.006 --   175 C    0.971
   205   1 H    1.004 --   175 C    0.984
   206   1 H    1.003 --   176 C    0.972
   207   1 H    1.005 --   178 C    0.974
   208   1 H    1.003 --   179 C    0.974
   209   1 H    0.987 --   182 N    0.874
   210   1 H    1.003 --   184 C    0.972
   211   1 H    1.004 --   186 C    0.984
   212   1 H    1.004 --   186 C    0.982
   213   1 H    1.006 --   186 C    0.971
   214   1 H    1.000 --   187 C    0.972
   215   1 H    1.004 --   189 C    0.983
   216   1 H    1.004 --   189 C    0.982
   217   1 H    1.006 --   189 C    0.971
   218   1 H    1.003 --   190 C    0.972
 ---------------------------------------------------------------------------

           -------------------------------------------------
          | TOTAL ENERGY             -338.049472101291 Eh   |
          | GRADIENT NORM               0.000491173566 Eh/α |
          | HOMO-LUMO GAP               0.887008530179 eV   |
           -------------------------------------------------

 * finished run on 2022/07/27 at 21:46:08.972
