   * xtb version 6.5.1 (b24c23e) compiled by 'conda@728c89f4b128' on 2022-07-12
          program call               : xtb Co_Ph2Me_C6_3.xyz --gfn 1 --opt -T 48

   ID    Z sym.   atoms
    1   27 Co     1, 69, 149
    2    6 C      2-6, 8-11, 13-31, 34-41, 70-74, 76-79, 81-99, 102-109,
                  137-148, 150-154, 156-159, 161-179, 182-189
    3    7 N      7, 12, 32, 33, 75, 80, 100, 101, 155, 160, 180, 181
    4    1 H      42-68, 110-136, 190-215

          :  Hamiltonian                  GFN1-xTB          :
 * total energy  :  -344.5508298 Eh     change        0.1797957E-09 Eh
 * total energy  :  -344.9974919 Eh     change       -0.4466621E+00 Eh
 * total energy  :  -345.1329249 Eh     change       -0.1354330E+00 Eh
 * total energy  :  -345.2365140 Eh     change       -0.1035891E+00 Eh
 * total energy  :  -345.3108969 Eh     change       -0.7438289E-01 Eh
 * total energy  :  -345.3546853 Eh     change       -0.4378839E-01 Eh
 * total energy  :  -345.3816365 Eh     change       -0.2695121E-01 Eh
 * total energy  :  -345.3992767 Eh     change       -0.1764023E-01 Eh
 * total energy  :  -345.4085634 Eh     change       -0.9286652E-02 Eh
 * total energy  :  -345.4167059 Eh     change       -0.8142540E-02 Eh
 * total energy  :  -345.4647075 Eh     change       -0.2022681E-04 Eh
 * total energy  :  -345.4647323 Eh     change       -0.2479920E-04 Eh
 * total energy  :  -345.4647601 Eh     change       -0.2782489E-04 Eh
 * total energy  :  -345.4647891 Eh     change       -0.2902797E-04 Eh
 * total energy  :  -345.4648172 Eh     change       -0.2812388E-04 Eh
 * total energy  :  -345.4648203 Eh     change       -0.3027053E-05 Eh
 * total energy  :  -345.4648327 Eh     change       -0.1247061E-04 Eh
 * total energy  :  -345.4648403 Eh     change       -0.7609281E-05 Eh
 * total energy  :  -345.4648453 Eh     change       -0.4977463E-05 Eh
   *** GEOMETRY OPTIMIZATION CONVERGED AFTER 155 ITERATIONS ***

 final structure:
================
215
 xtb: 6.5.1 (b24c23e)
Co          28.54833510512548        0.17083618636608       -0.64304614869863
C           25.54101554674398        0.55313437530018       -2.02636457389043
C           26.06616664920535        1.61737717747582       -1.32055517168283
C           25.35621916691244        2.83551551476218       -1.07389152546465
C           26.09030814062120        3.53920951308236       -0.17867078364084
C           27.28842617885487        2.78844483657072        0.05867321407960
N           27.24470389845062        1.59870457556758       -0.62070158608358
C           28.38473956862303        3.25262061038275        0.77702279448753
C           29.60542896683492        2.59211876780164        0.73606860690761
C           30.84527225476836        3.18267926505680        1.14083936073529
C           31.82992111744881        2.33972122763872        0.74241702765927
N           29.83277599203092        1.37224311122050        0.14568481951243
C           31.18727627548033        1.20795948780384        0.15346672530914
C           31.86334232375175        0.03525704091715       -0.20798618259250
C           31.17032422535726       -1.16008999565631       -0.44019566012203
C           31.79359563169858       -2.44539135607142       -0.45490211429797
C           30.79544798868035       -3.36105611631057       -0.52031004318694
C           29.56796439196374       -2.62945956967452       -0.61137111993048
C           28.34617642487799       -3.20803731975824       -0.92671626638673
C           28.24527609271261       -4.68670196421200       -0.93189351486526
C           28.03847419532210       -5.38909121832717       -2.11665556830219
C           27.95078111309664       -6.77844492228060       -2.10699315413157
C           27.71263774429709       -7.52685437161782       -3.39068230225111
C           28.06801108799059       -7.46030201204445       -0.90116626226772
C           28.28254771208448       -6.77165433043250        0.29084533529273
C           28.41760058470696       -7.53119382867140        1.58281116691053
C           28.37586927628529       -5.38578381374303        0.26836106267777
C           27.26925456894793       -2.43648207319861       -1.34883846243315
C           26.07942559034222       -2.95743863874200       -1.95547413137476
C           25.35775649638420       -1.89361189849169       -2.38300995731431
C           26.06669828442757       -0.72194927653672       -1.96615851532888
N           27.23589521107342       -1.06655891425463       -1.33859709714373
N           29.81502115385600       -1.27936419403226       -0.53855587798809
C           28.30531033395216        4.54402864228539        1.49922496835965
C           28.05663012927582        5.73447218515161        0.81873011953944
C           27.98613479160331        6.94029463177686        1.50906921225213
C           27.73965157450009        8.22470747484105        0.76449918636378
C           28.16898959181238        6.94847738292336        2.88794343102453
C           28.42880683262786        5.76894261474586        3.58014253422697
C           28.60974621608137        5.78972513862559        5.07379785398557
C           28.49934890891137        4.57009288783219        2.87973118357181
H           24.59824592217715        0.69517700176543       -2.54206012910330
H           24.39924849637668        3.08399610623624       -1.50474289672872
H           25.85651224378646        4.48940322031625        0.27326992435298
H           30.93990453704599        4.13884562875451        1.62928617637098
H           32.89634012568436        2.44683512218265        0.85882885398066
H           32.85702967529941       -2.61142392098882       -0.39124610877123
H           30.87340606503206       -4.43586455583867       -0.54761450259655
H           27.96929086634400       -4.84955886100053       -3.05480028964259
H           28.03342588870687       -8.56479145954630       -3.30233766230831
H           26.64768379456061       -7.51772885212201       -3.63366445437201
H           28.25080711675422       -7.05965421218282       -4.21597925353517
H           27.99756658157446       -8.54310450131120       -0.88711295969715
H           28.51320465391220       -6.85063406232632        2.42852216656072
H           27.54528661919535       -8.16714416020255        1.74241661852470
H           29.30009442276570       -8.17309925868460        1.55185244106507
H           28.53802514862898       -4.83499431444918        1.18835833721643
H           25.84294527540974       -4.00459386073928       -2.05176567487469
H           24.40912192777254       -1.88470342635602       -2.89600703143730
H           27.94083017582974        5.72118649952117       -0.25941859317416
H           27.26720515634438        8.96450668460279        1.41081852217498
H           27.10115423375542        8.05370217661473       -0.10250002239453
H           28.68751054467732        8.63717953680395        0.41121849722851
H           28.11261384760268        7.88651895767002        3.43059395648690
H           27.63686316705923        5.72855106917549        5.56673892534462
H           29.09272464861642        6.71372039330356        5.39261613612202
H           29.21213687118863        4.94357811314664        5.40437390608030
H           28.69240667543267        3.64219678092582        3.40689063255513
Co          60.31765374136131        0.42761691145094       -0.32563541215370
C           63.42367842946570        1.51086600913348       -0.93336559965555
C           62.91214649772600        0.52454953026724       -1.75231717064395
C           63.66413137485891       -0.12212888374727       -2.78408549838496
C           62.88000731096662       -1.11060246809089       -3.27611387629339
C           61.62024269505311       -1.01888471704440       -2.59703356609948
N           61.67172844802097       -0.04542020499843       -1.63061292013678
C           60.47584944702839       -1.71278369464779       -2.96650444485455
C           59.23723358545456       -1.41143092310975       -2.41456243340757
C           57.99094306844319       -1.84987008056379       -2.96562613633367
C           57.01087859355437       -1.25003229681629       -2.24664354212428
N           59.01795750962397       -0.57308368597723       -1.34922727284621
C           57.65859885242332       -0.48947932901911       -1.22525572443008
C           56.97781734840899        0.09802091632037       -0.15564623921310
C           57.65772092653508        0.57885300491721        0.96762091701567
C           57.01796296780164        0.89294041734536        2.20567877809423
C           58.00058557553242        1.22219833038700        3.07927208660506
C           59.23463749752915        1.16487732722306        2.35483203022637
C           60.42949642428048        1.68121106473243        2.83433335632890
C           60.49468220898434        2.12737564491708        4.24741659848190
C           60.61517036320645        3.47774560592704        4.56566324096012
C           60.67363046455387        3.88669167151830        5.89512009463005
C           60.81825323870918        5.34723877293606        6.22808279828111
C           60.61531511865763        2.93258424938868        6.90451549027709
C           60.48932500884516        1.57866501645987        6.60108208688252
C           60.41891861179592        0.56416994641899        7.71031553345378
C           60.42401550628312        1.18263097020429        5.27096876082971
C           61.51899403463603        1.88489060257993        1.99706779352883
C           62.68751609892855        2.63658216335696        2.34947030364934
C           63.47272628845304        2.68326121736540        1.24719552163577
C           62.81813187715191        1.90022260035291        0.24311773070531
N           61.61384299716335        1.43387771796365        0.70617689721321
N           59.01072900584485        0.73460052704840        1.06796222311194
C           60.53737327394339       -2.71383725451911       -4.05741381225225
C           60.93850223501934       -2.34857540137374       -5.34143590917646
C           60.98957588328908       -3.29352941411949       -6.36101399764126
C           61.40325782467377       -2.88685680985804       -7.74974964666914
C           60.63225587435994       -4.61026417178065       -6.08901557247196
C           60.21980622539158       -4.98845825455356       -4.81431030153690
C           59.84939564607628       -6.41905003235741       -4.53018863163077
C           60.17200115520341       -4.03536857916985       -3.80314291629140
H           64.40342934790566        1.91275911158510       -1.16408398530403
H           64.67473110673319        0.13690825620452       -3.05783519838201
H           63.11792659925884       -1.83153541076617       -4.04126240007568
H           57.89159499040134       -2.50684928155841       -3.81434936085818
H           55.94234590494842       -1.32963180085604       -2.36577562894866
H           55.95446148238061        0.84111411605567        2.37543780913840
H           57.90810381058604        1.51938717248148        4.11132220629041
H           60.64251354241499        4.21513188042388        3.77096894291644
H           60.48505348111375        5.55032886828777        7.24583256325420
H           61.86601992803895        5.64504677448551        6.14554722361676
H           60.23817444591391        5.96018604346882        5.53752739945530
H           60.66396783079838        3.24497071874104        7.94264238625945
H           60.40628643981969       -0.45029309091699        7.31240841089433
H           61.27750249454829        0.66848362242781        8.37575252568000
H           59.51448885578399        0.71607487706849        8.30259897472247
H           60.33044845745589        0.13211316003865        5.01851955018430
H           62.86841476227632        3.07769544066324        3.31616586976232
H           64.43055878749252        3.16255602887754        1.12059710899722
H           61.19177806290124       -1.31484038053717       -5.54929610442609
H           61.84834679218470       -3.72622684731111       -8.28429735284340
H           62.12228305242977       -2.06795912961563       -7.71610412521418
H           60.53049650579930       -2.54902957515992       -8.31335002507611
H           60.67131955878434       -5.35095850621372       -6.88116270951166
H           60.74530581063564       -6.99220647863115       -4.28098075223192
H           59.38522248201348       -6.87955201891018       -5.40272131889239
H           59.16005864222922       -6.48251670900913       -3.68817107814823
H           59.86120202027736       -4.31824954040841       -2.80333782996367
C           37.05982528678214        0.01671559835492       -0.22435871325822
C           35.82973745939717        0.01797115388310       -0.22060868749428
C           34.48803739857922        0.01889699601234       -0.21252349326408
C           33.26279534427943        0.02241207977744       -0.19852343827366
C           38.40173663567742        0.02312901522305       -0.22184866486809
C           39.62709849605163        0.02852825075216       -0.21560893422040
C           53.00432151324677        0.12185625282725       -0.16670949961746
C           51.77633611669334        0.12587621205680       -0.17116335322039
C           50.43097396998009        0.12663203737757       -0.17251745487184
C           49.20740052461639        0.12617587513376       -0.17239859525919
C           54.34975265000420        0.11269954203727       -0.15968540091418
C           55.57328773756249        0.09735212716144       -0.15442219465920
Co          44.41530447952415        0.08120437889717       -0.16401754022825
C           41.02698275163437        0.04246519229126       -0.20104516991470
C           41.69506955886209        1.26009350914780       -0.02990036313999
C           41.03604069543044        2.50854688007356        0.18594186909586
C           41.98390078825712        3.47207111944869        0.07631961592295
C           43.21630141142010        2.80704047968957       -0.22146884937803
N           43.03635611696453        1.44282949533415       -0.20851035319407
C           44.38160909854679        3.44664567824531       -0.62060732769498
C           45.55941021957253        2.74479748930421       -0.84738205224185
C           46.77507086170967        3.33081871419535       -1.32484206864885
C           47.74074388039530        2.38740974138677       -1.19707684491283
N           45.76524128346190        1.42887216823235       -0.50820338296906
C           47.10988114862500        1.22733755416864       -0.65308835069789
C           47.80341053128124        0.11424389890905       -0.17082353663884
C           47.13292092263002       -1.00882694229409        0.32202940125297
C           47.78687419859112       -2.14788015786083        0.88276198213898
C           46.83793798310678       -3.10440689648902        1.03635900891733
C           45.61033307348208       -2.54956767365081        0.55236732007047
C           44.44696884590304       -3.27752269022074        0.33557642948309
C           44.45450188224241       -4.73863484880776        0.57092847865619
C           43.55284110709701       -5.30715076649874        1.47021340093628
C           43.55223347459203       -6.67867821585077        1.69916121319007
C           42.59189976475606       -7.28359379623025        2.68727563757017
C           44.46137369495716       -7.48345751627619        1.01939008509618
C           45.36562890993550       -6.93198383335270        0.11585055618937
C           46.35061842526032       -7.81499564325993       -0.60148318627215
C           45.35937115163156       -5.55914597032926       -0.10260593395240
C           43.27517213043076       -2.67002247314468       -0.09450942184648
C           42.06439266567358       -3.36719412079093       -0.40675232099387
C           41.09953720462388       -2.42658821241911       -0.55937580247436
C           41.72619940585710       -1.16040169121532       -0.34992745623441
N           43.06698257964976       -1.31083538797114       -0.13783601156098
N           45.79195681359258       -1.23675518901767        0.18645076421444
C           44.36996692210290        4.91382585806855       -0.81438649037693
C           45.25864845715366        5.72381180899763       -0.10925127685660
C           45.25014442296970        7.10404052474405       -0.28552580864211
C           46.22454947761708        7.96550989321434        0.47139377139538
C           44.34720479570235        7.67139047012519       -1.17820954612724
C           43.45334530707193        6.87600165639529       -1.89101041601933
C           42.49448732940767        7.50411091400210       -2.86594556344762
C           43.46879766849147        5.49901879458121       -1.70473691892068
H           39.98222880376780        2.61838364666141        0.38561080936255
H           41.86811981312716        4.53850017354067        0.18158481644869
H           46.86808639361331        4.33548951033859       -1.70398108782631
H           48.79000317608721        2.45918997590924       -1.43447943727231
H           48.83836265863831       -2.19707801609862        1.11592491995341
H           46.95041780801751       -4.09940604354042        1.43520967439376
H           42.85916871318598       -4.66793436870448        2.00531571132341
H           42.28817038336484       -8.28186385392368        2.37109478917120
H           43.07037161020023       -7.36882343514199        3.66558517367418
H           41.70330626311772       -6.66173608242313        2.79648704982042
H           44.46341988911131       -8.55471316985038        1.19273510366264
H           46.75178172230999       -7.31611799993394       -1.48351544503724
H           45.87956610440254       -8.74962549989141       -0.90783980785804
H           47.18305276081492       -8.05835053724427        0.06254351837244
H           46.04652635470774       -5.12047425454209       -0.81775983772488
H           41.97411903927924       -4.43779452367655       -0.49322963124487
H           40.05351236262499       -2.56273764328606       -0.78242610943028
H           45.94638955259786        5.27274772196253        0.59765093257751
H           45.88832851054238        9.00185780536851        0.50121836015613
H           47.20161126898456        7.93650962522728       -0.01616000137309
H           46.34696906545262        7.60412011781826        1.49292238470568
H           44.33598881360728        8.74723165138344       -1.31989440116954
H           42.09914420715366        8.43986682225341       -2.46932414186514
H           41.66313115340920        6.83331570995941       -3.08234648582445
H           43.00898208066145        7.72544722328805       -3.80368995391726
H           42.78874046776950        4.86783911260536       -2.26615483184381

          :  Hamiltonian                  GFN1-xTB          :
         :: total energy            -345.464845326789 Eh    ::
         :: gradient norm              0.000998970115 Eh/a0 ::
         :: HOMO-LUMO gap              0.005397926375 eV    ::
         :: SCC energy              -351.215829459699 Eh    ::
         :: repulsion energy           5.934339941230 Eh    ::

    * Orbital Energies and Occupations

         #    Occupation            Energy/Eh            Energy/eV
      -------------------------------------------------------------
         1        2.0000           -0.7705472             -20.9677
       ...           ...                  ...                  ...
       312        2.0000           -0.3928911             -10.6911
       313        2.0000           -0.3908789             -10.6364
       314        2.0000           -0.3888842             -10.5821
       315        1.9999           -0.3886419             -10.5755
       316        1.9999           -0.3881835             -10.5630
       317        1.9999           -0.3879971             -10.5579
       318        1.9998           -0.3876785             -10.5493
       319        1.9998           -0.3876246             -10.5478
       320        1.9998           -0.3873770             -10.5411
       321        1.9825           -0.3832760             -10.4295
       322        1.8698           -0.3812966             -10.3756
       323        1.1691           -0.3789608             -10.3120
       324        1.0369           -0.3786800             -10.3044 (HOMO)
       325        0.9427           -0.3784817             -10.2990 (LUMO)
       326                         -0.3398396              -9.2475
       327                         -0.3304631              -8.9924
       328                         -0.3283216              -8.9341
       329                         -0.3267711              -8.8919
       330                         -0.3251157              -8.8468
       331                         -0.3237847              -8.8106
       332                         -0.3050598              -8.3011
       333                         -0.2953529              -8.0370
       334                         -0.2941315              -8.0037
       335                         -0.2884592              -7.8494
       ...                                ...                  ...
       715                          1.5787191              42.9591
      -------------------------------------------------------------
                  HL-Gap            0.0001984 Eh            0.0054 eV

Wiberg/Mayer (AO) data.
largest (>0.10) Wiberg bond orders for each atom

     #   Z sym  total        # sym  WBO       # sym  WBO       # sym  WBO
 ---------------------------------------------------------------------------
     1  27 Co   3.075 --     7 N    0.636    32 N    0.635    12 N    0.633
                            33 N    0.633
     2   6 C    3.923 --    31 C    1.361     3 C    1.359    42 H    0.971
     3   6 C    3.925 --     2 C    1.359     7 N    1.206     4 C    1.175
     4   6 C    3.959 --     5 C    1.646     3 C    1.175    43 H    0.975
     5   6 C    3.963 --     4 C    1.646     6 C    1.177    44 H    0.972
     6   6 C    3.921 --     8 C    1.315     7 N    1.216     5 C    1.177
     7   7 N    3.346 --     6 C    1.216     3 C    1.206     1 Co   0.636
     8   6 C    3.929 --     9 C    1.328     6 C    1.315    34 C    1.026
     9   6 C    3.916 --     8 C    1.328    12 N    1.196    10 C    1.183
    10   6 C    3.959 --    11 C    1.634     9 C    1.183    45 H    0.974
    11   6 C    3.961 --    10 C    1.634    13 C    1.192    46 H    0.974
    12   7 N    3.349 --    13 C    1.237     9 C    1.196     1 Co   0.633
    13   6 C    3.904 --    14 C    1.248    12 N    1.237    11 C    1.192
    14   6 C    3.927 --    13 C    1.248    15 C    1.247   140 C    1.206
    15   6 C    3.904 --    14 C    1.247    33 N    1.238    16 C    1.192
    16   6 C    3.962 --    17 C    1.635    15 C    1.192    47 H    0.974
    17   6 C    3.959 --    16 C    1.635    18 C    1.182    48 H    0.974
    18   6 C    3.916 --    19 C    1.330    33 N    1.195    17 C    1.182
    19   6 C    3.929 --    18 C    1.330    28 C    1.314    20 C    1.025
    20   6 C    3.988 --    21 C    1.403    27 C    1.390    19 C    1.025
                            24 C    0.103
    21   6 C    3.986 --    22 C    1.410    20 C    1.403    49 H    0.972
                            25 C    0.104
    22   6 C    3.988 --    24 C    1.423    21 C    1.410    23 C    1.020
                            27 C    0.103
    23   6 C    3.995 --    22 C    1.020    50 H    0.984    52 H    0.981
                            51 H    0.971
    24   6 C    3.989 --    22 C    1.423    25 C    1.408    53 H    0.972
                            20 C    0.103
    25   6 C    3.988 --    27 C    1.425    24 C    1.408    26 C    1.020
                            21 C    0.104
    26   6 C    3.995 --    25 C    1.020    54 H    0.986    55 H    0.976
                            56 H    0.974
    27   6 C    3.985 --    25 C    1.425    20 C    1.390    57 H    0.972
                            22 C    0.103
    28   6 C    3.921 --    19 C    1.314    32 N    1.217    29 C    1.178
    29   6 C    3.963 --    30 C    1.646    28 C    1.178    58 H    0.972
    30   6 C    3.959 --    29 C    1.646    31 C    1.175    59 H    0.975
    31   6 C    3.925 --     2 C    1.361    32 N    1.205    30 C    1.175
    32   7 N    3.346 --    28 C    1.217    31 C    1.205     1 Co   0.635
    33   7 N    3.348 --    15 C    1.238    18 C    1.195     1 Co   0.633
    34   6 C    3.988 --    35 C    1.398    41 C    1.395     8 C    1.026
                            38 C    0.103
    35   6 C    3.986 --    36 C    1.414    34 C    1.398    60 H    0.971
                            39 C    0.104
    36   6 C    3.988 --    38 C    1.418    35 C    1.414    37 C    1.020
                            41 C    0.103
    37   6 C    3.995 --    36 C    1.020    61 H    0.983    62 H    0.982
                            63 H    0.971
    38   6 C    3.988 --    36 C    1.418    39 C    1.413    64 H    0.972
                            34 C    0.103
    39   6 C    3.988 --    41 C    1.419    38 C    1.413    40 C    1.020
                            35 C    0.104
    40   6 C    3.995 --    39 C    1.020    67 H    0.983    66 H    0.982
                            65 H    0.971
    41   6 C    3.985 --    39 C    1.419    34 C    1.395    68 H    0.972
                            36 C    0.103
    42   1 H    1.000 --     2 C    0.971
    43   1 H    0.998 --     4 C    0.975
    44   1 H    1.005 --     5 C    0.972
    45   1 H    1.004 --    10 C    0.974
    46   1 H    1.001 --    11 C    0.974
    47   1 H    1.001 --    16 C    0.974
    48   1 H    1.004 --    17 C    0.974
    49   1 H    1.003 --    21 C    0.972
    50   1 H    1.004 --    23 C    0.984
    51   1 H    1.006 --    23 C    0.971
    52   1 H    1.004 --    23 C    0.981
    53   1 H    1.000 --    24 C    0.972
    54   1 H    1.003 --    26 C    0.986
    55   1 H    1.005 --    26 C    0.976
    56   1 H    1.005 --    26 C    0.974
    57   1 H    1.002 --    27 C    0.972
    58   1 H    1.005 --    29 C    0.972
    59   1 H    0.998 --    30 C    0.975
    60   1 H    1.003 --    35 C    0.971
    61   1 H    1.004 --    37 C    0.983
    62   1 H    1.004 --    37 C    0.982
    63   1 H    1.006 --    37 C    0.971
    64   1 H    1.000 --    38 C    0.972
    65   1 H    1.006 --    40 C    0.971
    66   1 H    1.004 --    40 C    0.982
    67   1 H    1.004 --    40 C    0.983
    68   1 H    1.002 --    41 C    0.972
    69  27 Co   3.061 --    75 N    0.640   100 N    0.638   101 N    0.638
                            80 N    0.637
    70   6 C    3.930 --    99 C    1.365    71 C    1.358   110 H    0.971
    71   6 C    3.924 --    70 C    1.358    75 N    1.207    72 C    1.175
    72   6 C    3.959 --    73 C    1.648    71 C    1.175   111 H    0.975
    73   6 C    3.963 --    72 C    1.648    74 C    1.176   112 H    0.972
    74   6 C    3.921 --    76 C    1.325    75 N    1.208    73 C    1.176
    75   7 N    3.350 --    74 C    1.208    71 C    1.207    69 Co   0.640
    76   6 C    3.936 --    74 C    1.325    77 C    1.322   102 C    1.027
    77   6 C    3.916 --    76 C    1.322    80 N    1.202    78 C    1.184
    78   6 C    3.960 --    79 C    1.636    77 C    1.184   113 H    0.973
    79   6 C    3.961 --    78 C    1.636    81 C    1.190   114 H    0.974
    80   7 N    3.355 --    81 C    1.224    77 C    1.202    69 Co   0.637
    81   6 C    3.905 --    82 C    1.264    80 N    1.224    79 C    1.190
    82   6 C    3.938 --    81 C    1.264    83 C    1.258   148 C    1.184
    83   6 C    3.905 --    82 C    1.258   101 N    1.232    84 C    1.191
    84   6 C    3.962 --    85 C    1.637    83 C    1.191   115 H    0.974
    85   6 C    3.959 --    84 C    1.637    86 C    1.181   116 H    0.974
    86   6 C    3.916 --    87 C    1.333   101 N    1.194    85 C    1.181
    87   6 C    3.936 --    86 C    1.333    96 C    1.318    88 C    1.021
    88   6 C    3.988 --    89 C    1.404    95 C    1.392    87 C    1.021
                            92 C    0.104
    89   6 C    3.987 --    90 C    1.410    88 C    1.404   117 H    0.972
                            93 C    0.104
    90   6 C    3.988 --    92 C    1.423    89 C    1.410    91 C    1.020
                            95 C    0.103
    91   6 C    3.995 --    90 C    1.020   118 H    0.984   120 H    0.981
                           119 H    0.971
    92   6 C    3.989 --    90 C    1.423    93 C    1.408   121 H    0.972
                            88 C    0.104
    93   6 C    3.988 --    95 C    1.424    92 C    1.408    94 C    1.020
                            89 C    0.104
    94   6 C    3.995 --    93 C    1.020   122 H    0.986   123 H    0.977
                           124 H    0.974
    95   6 C    3.987 --    93 C    1.424    88 C    1.392   125 H    0.972
                            90 C    0.103
    96   6 C    3.921 --    87 C    1.318   100 N    1.215    97 C    1.177
    97   6 C    3.963 --    98 C    1.648    96 C    1.177   126 H    0.972
    98   6 C    3.960 --    97 C    1.648    99 C    1.173   127 H    0.975
    99   6 C    3.924 --    70 C    1.365   100 N    1.201    98 C    1.173
   100   7 N    3.351 --    96 C    1.215    99 C    1.201    69 Co   0.638
   101   7 N    3.354 --    83 C    1.232    86 C    1.194    69 Co   0.638
   102   6 C    3.988 --   103 C    1.397   109 C    1.395    76 C    1.027
                           106 C    0.103
   103   6 C    3.986 --   104 C    1.415   102 C    1.397   128 H    0.971
                           107 C    0.103
   104   6 C    3.988 --   106 C    1.417   103 C    1.415   105 C    1.020
                           109 C    0.103
   105   6 C    3.995 --   104 C    1.020   129 H    0.983   130 H    0.982
                           131 H    0.971
   106   6 C    3.988 --   104 C    1.417   107 C    1.413   132 H    0.972
                           102 C    0.103
   107   6 C    3.988 --   109 C    1.419   106 C    1.413   108 C    1.020
                           103 C    0.103
   108   6 C    3.995 --   107 C    1.020   135 H    0.983   134 H    0.982
                           133 H    0.971
   109   6 C    3.985 --   107 C    1.419   102 C    1.395   136 H    0.972
                           104 C    0.103
   110   1 H    1.000 --    70 C    0.971
   111   1 H    0.998 --    72 C    0.975
   112   1 H    1.005 --    73 C    0.972
   113   1 H    1.004 --    78 C    0.973
   114   1 H    1.001 --    79 C    0.974
   115   1 H    1.001 --    84 C    0.974
   116   1 H    1.004 --    85 C    0.974
   117   1 H    1.002 --    89 C    0.972
   118   1 H    1.004 --    91 C    0.984
   119   1 H    1.006 --    91 C    0.971
   120   1 H    1.004 --    91 C    0.981
   121   1 H    1.000 --    92 C    0.972
   122   1 H    1.003 --    94 C    0.986
   123   1 H    1.005 --    94 C    0.977
   124   1 H    1.005 --    94 C    0.974
   125   1 H    1.002 --    95 C    0.972
   126   1 H    1.005 --    97 C    0.972
   127   1 H    0.998 --    98 C    0.975
   128   1 H    1.003 --   103 C    0.971
   129   1 H    1.004 --   105 C    0.983
   130   1 H    1.004 --   105 C    0.982
   131   1 H    1.006 --   105 C    0.971
   132   1 H    1.000 --   106 C    0.972
   133   1 H    1.006 --   108 C    0.971
   134   1 H    1.004 --   108 C    0.982
   135   1 H    1.004 --   108 C    0.983
   136   1 H    1.002 --   109 C    0.972
   137   6 C    3.917 --   138 C    2.346   141 C    1.349   140 C    0.187
   138   6 C    3.918 --   137 C    2.346   139 C    1.350   142 C    0.188
   139   6 C    3.925 --   140 C    2.427   138 C    1.350
   140   6 C    3.886 --   139 C    2.427    14 C    1.206   137 C    0.187
   141   6 C    3.926 --   142 C    2.429   137 C    1.349
   142   6 C    3.881 --   141 C    2.429   150 C    1.203   138 C    0.188
   143   6 C    3.919 --   144 C    2.372   147 C    1.329   146 C    0.188
   144   6 C    3.920 --   143 C    2.372   145 C    1.330   148 C    0.189
   145   6 C    3.929 --   146 C    2.452   144 C    1.330
   146   6 C    3.885 --   145 C    2.452   162 C    1.186   143 C    0.188
   147   6 C    3.932 --   148 C    2.453   143 C    1.329
   148   6 C    3.886 --   147 C    2.453    82 C    1.184   144 C    0.189
   149  27 Co   3.022 --   160 N    0.630   181 N    0.630   180 N    0.630
                           155 N    0.629
   150   6 C    3.920 --   179 C    1.252   151 C    1.251   142 C    1.203
   151   6 C    3.904 --   150 C    1.251   155 N    1.234   152 C    1.193
   152   6 C    3.959 --   153 C    1.633   151 C    1.193   190 H    0.974
   153   6 C    3.959 --   152 C    1.633   154 C    1.184   191 H    0.973
   154   6 C    3.915 --   156 C    1.327   155 N    1.192   153 C    1.184
   155   7 N    3.338 --   151 C    1.234   154 C    1.192   149 Co   0.629
   156   6 C    3.926 --   154 C    1.327   157 C    1.317   182 C    1.033
   157   6 C    3.914 --   156 C    1.317   160 N    1.200   158 C    1.185
   158   6 C    3.961 --   159 C    1.633   157 C    1.185   192 H    0.973
   159   6 C    3.959 --   158 C    1.633   161 C    1.192   193 H    0.974
   160   7 N    3.340 --   161 C    1.226   157 C    1.200   149 Co   0.630
   161   6 C    3.906 --   162 C    1.261   160 N    1.226   159 C    1.192
   162   6 C    3.922 --   161 C    1.261   163 C    1.260   146 C    1.186
   163   6 C    3.906 --   162 C    1.260   181 N    1.227   164 C    1.193
   164   6 C    3.959 --   165 C    1.632   163 C    1.193   194 H    0.974
   165   6 C    3.960 --   164 C    1.632   166 C    1.185   195 H    0.973
   166   6 C    3.914 --   167 C    1.319   181 N    1.198   165 C    1.185
   167   6 C    3.926 --   176 C    1.326   166 C    1.319   168 C    1.033
   168   6 C    3.988 --   169 C    1.394   175 C    1.392   167 C    1.033
                           172 C    0.102
   169   6 C    3.984 --   170 C    1.417   168 C    1.394   196 H    0.971
                           173 C    0.103
   170   6 C    3.988 --   169 C    1.417   172 C    1.416   171 C    1.020
                           175 C    0.102
   171   6 C    3.995 --   170 C    1.020   199 H    0.983   197 H    0.982
                           198 H    0.971
   172   6 C    3.987 --   170 C    1.416   173 C    1.413   200 H    0.972
                           168 C    0.102
   173   6 C    3.988 --   175 C    1.420   172 C    1.413   174 C    1.020
                           169 C    0.103
   174   6 C    3.995 --   173 C    1.020   201 H    0.984   202 H    0.980
                           203 H    0.971
   175   6 C    3.984 --   173 C    1.420   168 C    1.392   204 H    0.971
                           170 C    0.102
   176   6 C    3.915 --   167 C    1.326   180 N    1.193   177 C    1.184
   177   6 C    3.959 --   178 C    1.633   176 C    1.184   205 H    0.973
   178   6 C    3.959 --   177 C    1.633   179 C    1.193   206 H    0.974
   179   6 C    3.904 --   150 C    1.252   180 N    1.233   178 C    1.193
   180   7 N    3.338 --   179 C    1.233   176 C    1.193   149 Co   0.630
   181   7 N    3.340 --   163 C    1.227   166 C    1.198   149 Co   0.630
   182   6 C    3.988 --   183 C    1.397   189 C    1.389   156 C    1.033
                           186 C    0.101
   183   6 C    3.984 --   184 C    1.413   182 C    1.397   207 H    0.972
                           187 C    0.103
   184   6 C    3.988 --   186 C    1.420   183 C    1.413   185 C    1.020
                           189 C    0.102
   185   6 C    3.995 --   184 C    1.020   208 H    0.984   210 H    0.980
                           209 H    0.971
   186   6 C    3.987 --   184 C    1.420   187 C    1.409   211 H    0.972
                           182 C    0.101
   187   6 C    3.988 --   189 C    1.423   186 C    1.409   188 C    1.020
                           183 C    0.103
   188   6 C    3.995 --   187 C    1.020   213 H    0.984   212 H    0.980
                           214 H    0.971
   189   6 C    3.984 --   187 C    1.423   182 C    1.389   215 H    0.971
                           184 C    0.102
   190   1 H    1.001 --   152 C    0.974
   191   1 H    1.004 --   153 C    0.973
   192   1 H    1.004 --   158 C    0.973
   193   1 H    1.001 --   159 C    0.974
   194   1 H    1.001 --   164 C    0.974
   195   1 H    1.004 --   165 C    0.973
   196   1 H    1.004 --   169 C    0.971
   197   1 H    1.004 --   171 C    0.982
   198   1 H    1.006 --   171 C    0.971
   199   1 H    1.004 --   171 C    0.983
   200   1 H    1.000 --   172 C    0.972
   201   1 H    1.004 --   174 C    0.984
   202   1 H    1.005 --   174 C    0.980
   203   1 H    1.006 --   174 C    0.971
   204   1 H    1.004 --   175 C    0.971
   205   1 H    1.004 --   177 C    0.973
   206   1 H    1.001 --   178 C    0.974
   207   1 H    1.003 --   183 C    0.972
   208   1 H    1.004 --   185 C    0.984
   209   1 H    1.006 --   185 C    0.971
   210   1 H    1.004 --   185 C    0.980
   211   1 H    1.000 --   186 C    0.972
   212   1 H    1.004 --   188 C    0.980
   213   1 H    1.004 --   188 C    0.984
   214   1 H    1.006 --   188 C    0.971
   215   1 H    1.004 --   189 C    0.971
 ---------------------------------------------------------------------------

           -------------------------------------------------
          | TOTAL ENERGY             -345.464845326789 Eh   |
          | GRADIENT NORM               0.000998970115 Eh/α |
          | HOMO-LUMO GAP               0.005397926375 eV   |
           -------------------------------------------------

 * finished run on 2022/07/30 at 00:51:38.332
