   * xtb version 6.5.1 (b24c23e) compiled by 'conda@728c89f4b128' on 2022-07-12
          program call               : xtb Zn_H_C8_4.xyz --gfn 1 --opt -T 48

   ID    Z sym.   atoms
    1   30 Zn     1, 37, 97, 132
    2    6 C      2-6, 8-11, 13-18, 20-24, 38-42, 44-47, 49-54, 56-60, 73-96,
                  98-102, 104-107, 109-114, 116-120, 133-137, 139-142,
                  144-149, 151-155
    3    7 N      7, 12, 19, 25, 43, 48, 55, 61, 103, 108, 115, 121, 138,
                  143, 150, 156
    4    1 H      26-36, 62-72, 122-131, 157-166

          :  Hamiltonian                  GFN1-xTB          :
 * total energy  :  -290.9007640 Eh     change        0.5491813E-08 Eh
 * total energy  :  -294.4316780 Eh     change       -0.3530914E+01 Eh
 * total energy  :  -295.0481480 Eh     change       -0.6164700E+00 Eh
 * total energy  :  -295.3107317 Eh     change       -0.2625837E+00 Eh
 * total energy  :  -295.4466691 Eh     change       -0.1359374E+00 Eh
 * total energy  :  -295.5318423 Eh     change       -0.8517318E-01 Eh
 * total energy  :  -295.6004557 Eh     change       -0.6861344E-01 Eh
 * total energy  :  -295.6658957 Eh     change       -0.6543998E-01 Eh
 * total energy  :  -295.7371667 Eh     change       -0.7127099E-01 Eh
 * total energy  :  -295.8110014 Eh     change       -0.7383473E-01 Eh
 * total energy  :  -296.1051605 Eh     change       -0.9230162E-04 Eh
 * total energy  :  -296.1051668 Eh     change       -0.6322245E-05 Eh
 * total energy  :  -296.1051935 Eh     change       -0.2666164E-04 Eh
 * total energy  :  -296.1051767 Eh     change        0.1683246E-04 Eh
 * total energy  :  -296.1052010 Eh     change       -0.2437235E-04 Eh
 * total energy  :  -296.1052009 Eh     change        0.1410915E-06 Eh
 * total energy  :  -296.1052061 Eh     change       -0.5204184E-05 Eh
 * total energy  :  -296.1052071 Eh     change       -0.9810585E-06 Eh
 * total energy  :  -296.1052110 Eh     change       -0.3913481E-05 Eh
   *** GEOMETRY OPTIMIZATION CONVERGED AFTER 42 ITERATIONS ***

 final structure:
================
166
 xtb: 6.5.1 (b24c23e)
Zn          16.49739843505343       -0.01749514329144       -0.01558593554908
C           13.07075979309785       -0.05659993036153       -0.05659980915847
C           13.71506869928822       -0.92633939508532       -0.92971747012090
C           13.06336138208396       -1.83133427562071       -1.83864142471513
C           14.03913219880873       -2.49676768235485       -2.50617050638690
C           15.29797688293001       -2.00597970985451       -2.01281994457190
N           15.06652783047011       -1.05758000499748       -1.06078964835358
C           16.55250922170352       -2.43017950009136       -2.43816462190826
C           17.78578254222711       -1.97912767552717       -1.98460283114094
C           19.06213239264193       -2.44439501799556       -2.45129562338974
C           20.01067990315451       -1.75938463185319       -1.76282268492669
N           17.98198200289750       -1.02318793350160       -1.02442869885900
C           19.32243202673601       -0.86986931170381       -0.86988455381134
C           19.94926932280113        0.02204339945234        0.02539103139110
C           19.28169063301088        0.89915581924158        0.90528145824446
C           19.92792516431450        1.80423981436831        1.81373677583643
C           18.94772237805701        2.46726695501747        2.47913133725240
C           17.69376844961053        1.97265422089910        1.98269458048724
N           17.93467330878533        1.02148954166767        1.02799280852972
C           16.43990984655857        2.39495294123700        2.40676743128503
C           15.20580598422911        1.94216268517179        1.95204960767870
C           13.92463317146853        2.40358208673510        2.41542424903003
C           12.98049215579756        1.71644040855012        1.72479491402036
C           13.67414759916171        0.82720638770719        0.83152318804771
N           15.01874073422991        0.98927296980436        0.99472310964905
H           11.98532299779280       -0.06893558590785       -0.06956673166020
H           11.99429276381613       -1.93396645533449       -1.94221556860673
H           13.93058512455987       -3.25437771976242       -3.26671745658230
H           16.57053925518355       -3.19619637377391       -3.20739397912107
H           19.20253362849046       -3.19906213519933       -3.20930870038781
H           21.08302897531619       -1.84129711574736       -1.84459928529346
H           20.99594626548260        1.91063381973504        1.92059011220014
H           19.05267060249000        3.22514299976006        3.23970019204029
H           16.42200150431339        3.16099520507731        3.17599253920427
H           13.78053254094169        3.15787124626805        3.17336150658046
H           11.90718637419270        1.79444161340234        1.80294632519552
Zn          72.44486977544240        0.00040793418792       -0.00858447930825
C           75.87132658823785        0.06075650095549       -0.01020609969706
C           75.22568834815876        1.29092608753280       -0.07104748016136
C           75.87599017384737        2.57274531937291       -0.13423421757103
C           74.89920686057694        3.51311635279412       -0.17973741897196
C           73.64107777199659        2.81671866513685       -0.14490956762083
N           73.87403057206151        1.47475348188041       -0.07958256542900
C           72.38590370936687        3.41536897291373       -0.17277296297781
C           71.15333346524477        2.77501470396647       -0.14110173662370
C           69.87620636654066        3.43192013859206       -0.17209672309704
C           68.92871171112925        2.46082486500442       -0.12625046473027
N           70.95867731629079        1.42154998827228       -0.07673466201135
C           69.61829896010116        1.20251041445194       -0.06680654623862
C           68.99325817621239       -0.06050184331763       -0.01044757292731
C           69.66199199122862       -1.30061891809293        0.04809130059964
C           69.01711015316498       -2.58232044860117        0.10839648336823
C           69.99826179327296       -3.51935488381251        0.15656780052735
C           71.25151562708125       -2.81790261451541        0.12569255554088
N           71.00929095507308       -1.47221891821676        0.05974852876120
C           72.50600070620654       -3.41427319585515        0.15770462301939
C           73.73933857722369       -2.77185673243920        0.12831144247327
C           75.02124742674619       -3.42352554488875        0.16183852900955
C           75.96431057888023       -2.44941996182328        0.11446158619833
C           75.26927699759511       -1.19130028975682        0.05164616923134
N           73.92494043595921       -1.42253925874820        0.06201860182959
H           76.95674423410694        0.07977670041111       -0.01094966414195
H           76.94490274868492        2.71951060006475       -0.14202695685659
H           75.00662150577611        4.58544341048564       -0.23234623587572
H           72.36661133659662        4.49967058352220       -0.22506863719192
H           69.73469500477962        4.50020983877345       -0.22272159645533
H           67.85622451972861        2.57521566094468       -0.13185597937791
H           67.94925736835907       -2.73421872935993        0.11321475084072
H           69.89444213386093       -4.59190808636009        0.20856555214668
H           72.52504719761751       -4.49854352921856        0.21091575075481
H           75.16648928222054       -4.49137031296092        0.21476238037653
H           77.03773562352100       -2.55849777593005        0.12076801276887
C           21.35335929255035        0.03565310552735        0.03958444855971
C           22.57817964167732        0.04026233621268        0.04448772734115
C           23.92037340979064        0.04142644811651        0.04585922194337
C           25.15121307770400        0.03526659536686        0.04003692371916
C           26.48855877014606        0.02777977629649        0.03209889464429
C           27.71941283496050        0.01800921684809        0.02080826107004
C           29.06129527651333        0.00808933877814        0.00881959213619
C           30.28619488004003       -0.00284201785297       -0.00149502368554
C           40.00459467188946       -0.05905700637596       -0.04033662230540
C           41.22952507807948       -0.05938992558048       -0.03740303297954
C           42.57117159930882       -0.05374184191220       -0.03209315833583
C           43.80205051895906       -0.04239932997130       -0.02420855529430
C           45.13900273001099       -0.03158436971779       -0.01731722452879
C           46.36990704821488       -0.02143091012904       -0.01067832638367
C           47.71156192848765       -0.01465928562779       -0.00870236007998
C           48.93655830742691       -0.00855967389826       -0.01072378607923
C           58.65522976340402       -0.06572334786946       -0.03324302290406
C           59.87995021502297       -0.07657053921281       -0.03323648322618
C           61.22233600188788       -0.08688723922332       -0.03196315609567
C           62.45301303794805       -0.09591943193335       -0.02935365401247
C           63.79084428592370       -0.10063563366143       -0.02591019758046
C           65.02148396638889       -0.10133763522224       -0.02133022909516
C           66.36409494433322       -0.09378316958083       -0.01731982949602
C           67.58865169692824       -0.08290308760665       -0.01321343985133
Zn          35.14565437134254       -0.03021257609415       -0.02544800562872
C           31.68973205001106       -0.01028948809485       -0.01038322471519
C           32.34727153503877        0.92217375925371        0.81939203514601
C           31.68988065937060        1.87618150536374        1.66680160738726
C           32.66207616949175        2.58479160363503        2.29671722258907
C           33.92083408753128        2.06848083439946        1.83894389611153
N           33.69272460387234        1.05971242292541        0.94236976265890
C           35.17010920138574        2.52242945696349        2.24408057261970
C           36.41041426531392        2.05314443237127        1.82953910173511
C           37.67899632669038        2.55393667856423        2.27753918926553
C           38.63745735055333        1.83365889413909        1.63994801247460
N           36.61920880068379        1.04162607611822        0.93125126399013
C           37.96175646279118        0.88779243169098        0.79775424836860
C           38.60128539398985       -0.05270600051012       -0.03710744008962
C           37.94439323051999       -0.98414676640275       -0.86832029363610
C           38.60185290565400       -1.93747441031473       -1.71642040925895
C           37.62964144900067       -2.64386943799023       -2.34883531084030
C           36.37072838376947       -2.12719829804450       -1.89150094092350
N           36.59897593348928       -1.12011282679272       -0.99298508477606
C           35.12139234134341       -2.57964512806544       -2.29786431064256
C           33.88083323489252       -2.11115597945655       -1.88236199330150
C           32.61229087572505       -2.61193574540194       -2.33046946791323
C           31.65364560277160       -1.89383816686697       -1.69054964463186
C           32.32908956283919       -0.94895182412633       -0.84718088772942
N           33.67185548322107       -1.10151142381324       -0.98212528872823
H           30.62067345717577        1.98233042895800        1.76038608520386
H           32.54803529729880        3.38686455770123        3.00904405082903
H           35.17790229740853        3.33412920608490        2.96526998219767
H           37.80844422458900        3.35439031795345        2.98905091465542
H           39.70858493116011        1.92672469253879        1.72525691867954
H           39.67111613767403       -2.04439438432283       -1.80891202552303
H           37.74379167326485       -3.44470766926654       -3.06255425306542
H           35.11353715875817       -3.39002598682118       -3.02056230641799
H           32.48298191137301       -3.41101276191761       -3.04357295553869
H           30.58249347636936       -1.98745735314044       -1.77507184559841
Zn          53.79539687391527       -0.02951883490869       -0.02818082777208
C           50.33988512655848       -0.01155963867901       -0.01620785335691
C           50.99559671835232        0.92217804493336        0.81326607606365
C           50.33685801002775        1.87618137111793        1.65970706554937
C           51.30811969678095        2.58636161162557        2.28923636408832
C           52.56774739034488        2.07101315059036        1.83222573200934
N           52.34081252239245        1.06111919899267        0.93653959244928
C           53.81643703608816        2.52656942560449        2.23691154674557
C           55.05754382324873        2.05751195358168        1.82356230847390
C           56.32549172756391        2.55953332102439        2.27211651751705
C           57.28498220620638        1.83814524239012        1.63730727571374
N           55.26765786411769        1.04466619575744        0.92740154596295
C           56.61073556918208        0.89038980549503        0.79608126576434
C           57.25112206829395       -0.05371926315530       -0.03339378783775
C           56.59524524919718       -0.98732892612301       -0.86263525342919
C           57.25381609501925       -1.94307456139893       -1.70723121866460
C           56.28253172719178       -2.64901578830283       -2.34146973569695
C           55.02307351559732       -2.13006166881563       -1.88842237669476
N           55.24981807185552       -1.12199137559569       -0.99093237196443
C           53.77436150037799       -2.58196656117183       -2.29779284951088
C           52.53347364183456       -2.11260371640458       -1.88520129527868
C           51.26545671603418       -2.61357378313625       -2.33473240462627
C           50.30611926387748       -1.89542542156155       -1.69610515378754
C           50.98066089601867       -0.95013665479651       -0.85226463773707
N           52.32337116831734       -1.10238441221513       -0.98569335526376
H           49.26744392463480        1.98103543971911        1.75280296708133
H           51.19305162142388        3.38887059660477        3.00092224923245
H           53.82337791702208        3.33920630599086        2.95706706281830
H           56.45382927746333        3.36129589378379        2.98236939486687
H           58.35599655127185        1.93132310228038        1.72396301402790
H           58.32315480846643       -2.05151870199288       -1.79671417345087
H           56.39757707622613       -3.45099731165656       -3.05374537400583
H           53.76769528820264       -3.39292956108041       -3.01982331852620
H           51.13696829844526       -3.41290674309439       -3.04768262495411
H           49.23510284996879       -1.98933286997802       -1.78189070040321

          :  Hamiltonian                  GFN1-xTB          :
         :: total energy            -296.105211004669 Eh    ::
         :: gradient norm              0.000416925716 Eh/a0 ::
         :: HOMO-LUMO gap              0.917515294431 eV    ::
         :: SCC energy              -301.389358105541 Eh    ::
         :: repulsion energy           5.423956371030 Eh    ::

    * Orbital Energies and Occupations

         #    Occupation            Energy/Eh            Energy/eV
      -------------------------------------------------------------
         1        2.0000           -0.7614756             -20.7208
       ...           ...                  ...                  ...
       261        2.0000           -0.4122884             -11.2189
       262        2.0000           -0.4079306             -11.1004
       263        2.0000           -0.4048328             -11.0161
       264        2.0000           -0.4047687             -11.0143
       265        2.0000           -0.4041913             -10.9986
       266        2.0000           -0.3948071             -10.7432
       267        2.0000           -0.3947805             -10.7425
       268        2.0000           -0.3931160             -10.6972
       269        2.0000           -0.3930247             -10.6947
       270        2.0000           -0.3885910             -10.5741
       271        2.0000           -0.3844001             -10.4601
       272        2.0000           -0.3802095             -10.3460
       273        2.0000           -0.3758205             -10.2266 (HOMO)
       274                         -0.3421024              -9.3091 (LUMO)
       275                         -0.3361335              -9.1467
       276                         -0.3305925              -8.9959
       277                         -0.3276256              -8.9151
       278                         -0.3269375              -8.8964
       279                         -0.3269129              -8.8958
       280                         -0.3255122              -8.8576
       281                         -0.3254187              -8.8551
       282                         -0.3083925              -8.3918
       283                         -0.3007941              -8.1850
       284                         -0.2978912              -8.1060
       ...                                ...                  ...
       580                          1.6091511              43.7872
      -------------------------------------------------------------
                  HL-Gap            0.0337181 Eh            0.9175 eV

Wiberg/Mayer (AO) data.
largest (>0.10) Wiberg bond orders for each atom

     #   Z sym  total        # sym  WBO       # sym  WBO       # sym  WBO
 ---------------------------------------------------------------------------
     1  30 Zn   1.997 --    25 N    0.460     7 N    0.460    12 N    0.456
                            19 N    0.456
     2   6 C    3.932 --    24 C    1.358     3 C    1.358    26 H    0.972
     3   6 C    3.922 --     2 C    1.358     7 N    1.238     4 C    1.166
     4   6 C    3.960 --     5 C    1.665     3 C    1.166    27 H    0.976
     5   6 C    3.963 --     4 C    1.665     6 C    1.167    28 H    0.976
     6   6 C    3.919 --     8 C    1.353     7 N    1.239     5 C    1.167
     7   7 N    3.297 --     6 C    1.239     3 C    1.238     1 Zn   0.460
     8   6 C    3.939 --     9 C    1.366     6 C    1.353    29 H    0.971
     9   6 C    3.913 --     8 C    1.366    12 N    1.219    10 C    1.172
    10   6 C    3.959 --    11 C    1.654     9 C    1.172    30 H    0.976
    11   6 C    3.962 --    10 C    1.654    13 C    1.180    31 H    0.974
    12   7 N    3.300 --    13 C    1.270     9 C    1.219     1 Zn   0.456
    13   6 C    3.901 --    12 N    1.270    14 C    1.252    11 C    1.180
    14   6 C    3.943 --    15 C    1.253    13 C    1.252    73 C    1.195
    15   6 C    3.901 --    19 N    1.270    14 C    1.253    16 C    1.180
    16   6 C    3.962 --    17 C    1.654    15 C    1.180    32 H    0.974
    17   6 C    3.959 --    16 C    1.654    18 C    1.172    33 H    0.976
    18   6 C    3.913 --    20 C    1.366    19 N    1.219    17 C    1.172
    19   7 N    3.300 --    15 C    1.270    18 C    1.219     1 Zn   0.456
    20   6 C    3.939 --    18 C    1.366    21 C    1.353    34 H    0.971
    21   6 C    3.919 --    20 C    1.353    25 N    1.239    22 C    1.167
    22   6 C    3.963 --    23 C    1.665    21 C    1.167    35 H    0.976
    23   6 C    3.960 --    22 C    1.665    24 C    1.166    36 H    0.976
    24   6 C    3.922 --     2 C    1.358    25 N    1.238    23 C    1.166
    25   7 N    3.297 --    21 C    1.239    24 C    1.238     1 Zn   0.460
    26   1 H    1.001 --     2 C    0.972
    27   1 H    0.998 --     4 C    0.976
    28   1 H    0.998 --     5 C    0.976
    29   1 H    1.001 --     8 C    0.971
    30   1 H    0.998 --    10 C    0.976
    31   1 H    1.002 --    11 C    0.974
    32   1 H    1.002 --    16 C    0.974
    33   1 H    0.998 --    17 C    0.976
    34   1 H    1.001 --    20 C    0.971
    35   1 H    0.998 --    22 C    0.976
    36   1 H    0.998 --    23 C    0.976
    37  30 Zn   1.997 --    61 N    0.461    43 N    0.460    48 N    0.456
                            55 N    0.456
    38   6 C    3.932 --    39 C    1.358    60 C    1.358    62 H    0.972
    39   6 C    3.922 --    38 C    1.358    43 N    1.238    40 C    1.166
    40   6 C    3.960 --    41 C    1.665    39 C    1.166    63 H    0.976
    41   6 C    3.963 --    40 C    1.665    42 C    1.167    64 H    0.976
    42   6 C    3.919 --    44 C    1.354    43 N    1.239    41 C    1.167
    43   7 N    3.298 --    42 C    1.239    39 C    1.238    37 Zn   0.460
    44   6 C    3.939 --    45 C    1.366    42 C    1.354    65 H    0.971
    45   6 C    3.914 --    44 C    1.366    48 N    1.219    46 C    1.172
    46   6 C    3.959 --    47 C    1.654    45 C    1.172    66 H    0.976
    47   6 C    3.962 --    46 C    1.654    49 C    1.180    67 H    0.974
    48   7 N    3.300 --    49 C    1.269    45 C    1.219    37 Zn   0.456
    49   6 C    3.902 --    48 N    1.269    50 C    1.254    47 C    1.180
    50   6 C    3.944 --    51 C    1.254    49 C    1.254    96 C    1.192
    51   6 C    3.902 --    55 N    1.269    50 C    1.254    52 C    1.180
    52   6 C    3.962 --    53 C    1.654    51 C    1.180    68 H    0.974
    53   6 C    3.959 --    52 C    1.654    54 C    1.172    69 H    0.976
    54   6 C    3.914 --    56 C    1.366    55 N    1.219    53 C    1.172
    55   7 N    3.300 --    51 C    1.269    54 C    1.219    37 Zn   0.456
    56   6 C    3.939 --    54 C    1.366    57 C    1.354    70 H    0.971
    57   6 C    3.919 --    56 C    1.354    61 N    1.239    58 C    1.167
    58   6 C    3.963 --    59 C    1.665    57 C    1.167    71 H    0.976
    59   6 C    3.960 --    58 C    1.665    60 C    1.166    72 H    0.976
    60   6 C    3.922 --    38 C    1.358    61 N    1.238    59 C    1.166
    61   7 N    3.298 --    57 C    1.239    60 C    1.238    37 Zn   0.461
    62   1 H    1.001 --    38 C    0.972
    63   1 H    0.998 --    40 C    0.976
    64   1 H    0.998 --    41 C    0.976
    65   1 H    1.001 --    44 C    0.971
    66   1 H    0.998 --    46 C    0.976
    67   1 H    1.002 --    47 C    0.974
    68   1 H    1.002 --    52 C    0.974
    69   1 H    0.998 --    53 C    0.976
    70   1 H    1.001 --    56 C    0.971
    71   1 H    0.998 --    58 C    0.976
    72   1 H    0.998 --    59 C    0.976
    73   6 C    3.876 --    74 C    2.436    14 C    1.195    76 C    0.186
    74   6 C    3.935 --    73 C    2.436    75 C    1.346
    75   6 C    3.892 --    76 C    2.333    74 C    1.346    78 C    0.182
    76   6 C    3.925 --    75 C    2.333    77 C    1.371    73 C    0.186
    77   6 C    3.923 --    78 C    2.332    76 C    1.371    80 C    0.186
    78   6 C    3.893 --    77 C    2.332    79 C    1.347    75 C    0.182
    79   6 C    3.932 --    80 C    2.433    78 C    1.347
    80   6 C    3.877 --    79 C    2.433    98 C    1.198    77 C    0.186
    81   6 C    3.876 --    82 C    2.432   110 C    1.198    84 C    0.186
    82   6 C    3.932 --    81 C    2.432    83 C    1.348
    83   6 C    3.892 --    84 C    2.330    82 C    1.348    86 C    0.182
    84   6 C    3.923 --    83 C    2.330    85 C    1.373    81 C    0.186
    85   6 C    3.923 --    86 C    2.330    84 C    1.373    88 C    0.186
    86   6 C    3.892 --    85 C    2.330    87 C    1.348    83 C    0.182
    87   6 C    3.932 --    88 C    2.432    86 C    1.348
    88   6 C    3.876 --    87 C    2.432   133 C    1.198    85 C    0.186
    89   6 C    3.877 --    90 C    2.436   145 C    1.195    92 C    0.186
    90   6 C    3.932 --    89 C    2.436    91 C    1.345
    91   6 C    3.892 --    92 C    2.335    90 C    1.345    94 C    0.182
    92   6 C    3.923 --    91 C    2.335    93 C    1.369    89 C    0.186
    93   6 C    3.925 --    94 C    2.336    92 C    1.369    96 C    0.186
    94   6 C    3.892 --    93 C    2.336    95 C    1.344    91 C    0.182
    95   6 C    3.935 --    96 C    2.439    94 C    1.344
    96   6 C    3.876 --    95 C    2.439    50 C    1.192    93 C    0.186
    97  30 Zn   1.993 --   121 N    0.456   115 N    0.456   108 N    0.456
                           103 N    0.456
    98   6 C    3.931 --   120 C    1.250    99 C    1.250    80 C    1.198
    99   6 C    3.901 --   103 N    1.270    98 C    1.250   100 C    1.183
   100   6 C    3.960 --   101 C    1.650    99 C    1.183   122 H    0.974
   101   6 C    3.959 --   100 C    1.650   102 C    1.176   123 H    0.976
   102   6 C    3.911 --   104 C    1.360   103 N    1.219   101 C    1.176
   103   7 N    3.294 --    99 C    1.270   102 C    1.219    97 Zn   0.456
   104   6 C    3.934 --   105 C    1.361   102 C    1.360   124 H    0.971
   105   6 C    3.911 --   104 C    1.361   108 N    1.218   106 C    1.175
   106   6 C    3.959 --   107 C    1.650   105 C    1.175   125 H    0.976
   107   6 C    3.960 --   106 C    1.650   109 C    1.182   126 H    0.974
   108   7 N    3.294 --   109 C    1.270   105 C    1.218    97 Zn   0.456
   109   6 C    3.901 --   108 N    1.270   110 C    1.249   107 C    1.182
   110   6 C    3.931 --   111 C    1.250   109 C    1.249    81 C    1.198
   111   6 C    3.901 --   115 N    1.270   110 C    1.250   112 C    1.182
   112   6 C    3.960 --   113 C    1.650   111 C    1.182   127 H    0.974
   113   6 C    3.959 --   112 C    1.650   114 C    1.175   128 H    0.976
   114   6 C    3.911 --   116 C    1.361   115 N    1.218   113 C    1.175
   115   7 N    3.294 --   111 C    1.270   114 C    1.218    97 Zn   0.456
   116   6 C    3.934 --   114 C    1.361   117 C    1.360   129 H    0.971
   117   6 C    3.911 --   116 C    1.360   121 N    1.219   118 C    1.176
   118   6 C    3.959 --   119 C    1.650   117 C    1.176   130 H    0.976
   119   6 C    3.960 --   118 C    1.650   120 C    1.183   131 H    0.974
   120   6 C    3.901 --   121 N    1.269    98 C    1.250   119 C    1.183
   121   7 N    3.294 --   120 C    1.269   117 C    1.219    97 Zn   0.456
   122   1 H    1.002 --   100 C    0.974
   123   1 H    0.998 --   101 C    0.976
   124   1 H    1.001 --   104 C    0.971
   125   1 H    0.998 --   106 C    0.976
   126   1 H    1.002 --   107 C    0.974
   127   1 H    1.002 --   112 C    0.974
   128   1 H    0.998 --   113 C    0.976
   129   1 H    1.001 --   116 C    0.971
   130   1 H    0.998 --   118 C    0.976
   131   1 H    1.002 --   119 C    0.974
   132  30 Zn   1.993 --   143 N    0.456   156 N    0.456   138 N    0.456
                           150 N    0.456
   133   6 C    3.931 --   134 C    1.250   155 C    1.250    88 C    1.198
   134   6 C    3.901 --   138 N    1.270   133 C    1.250   135 C    1.182
   135   6 C    3.960 --   136 C    1.650   134 C    1.182   157 H    0.974
   136   6 C    3.959 --   135 C    1.650   137 C    1.175   158 H    0.976
   137   6 C    3.911 --   139 C    1.361   138 N    1.218   136 C    1.175
   138   7 N    3.294 --   134 C    1.270   137 C    1.218   132 Zn   0.456
   139   6 C    3.934 --   137 C    1.361   140 C    1.360   159 H    0.971
   140   6 C    3.911 --   139 C    1.360   143 N    1.219   141 C    1.175
   141   6 C    3.960 --   142 C    1.650   140 C    1.175   160 H    0.976
   142   6 C    3.960 --   141 C    1.650   144 C    1.182   161 H    0.974
   143   7 N    3.294 --   144 C    1.269   140 C    1.219   132 Zn   0.456
   144   6 C    3.902 --   143 N    1.269   145 C    1.251   142 C    1.182
   145   6 C    3.931 --   144 C    1.251   146 C    1.251    89 C    1.195
   146   6 C    3.902 --   150 N    1.269   145 C    1.251   147 C    1.182
   147   6 C    3.960 --   148 C    1.650   146 C    1.182   162 H    0.974
   148   6 C    3.960 --   147 C    1.650   149 C    1.176   163 H    0.976
   149   6 C    3.911 --   151 C    1.360   150 N    1.219   148 C    1.176
   150   7 N    3.294 --   146 C    1.269   149 C    1.219   132 Zn   0.456
   151   6 C    3.934 --   152 C    1.362   149 C    1.360   164 H    0.971
   152   6 C    3.911 --   151 C    1.362   156 N    1.218   153 C    1.175
   153   6 C    3.959 --   154 C    1.650   152 C    1.175   165 H    0.976
   154   6 C    3.960 --   153 C    1.650   155 C    1.182   166 H    0.974
   155   6 C    3.901 --   156 N    1.270   133 C    1.250   154 C    1.182
   156   7 N    3.294 --   155 C    1.270   152 C    1.218   132 Zn   0.456
   157   1 H    1.002 --   135 C    0.974
   158   1 H    0.998 --   136 C    0.976
   159   1 H    1.001 --   139 C    0.971
   160   1 H    0.998 --   141 C    0.976
   161   1 H    1.002 --   142 C    0.974
   162   1 H    1.002 --   147 C    0.974
   163   1 H    0.998 --   148 C    0.976
   164   1 H    1.001 --   151 C    0.971
   165   1 H    0.998 --   153 C    0.976
   166   1 H    1.002 --   154 C    0.974
 ---------------------------------------------------------------------------

           -------------------------------------------------
          | TOTAL ENERGY             -296.105211004669 Eh   |
          | GRADIENT NORM               0.000416925716 Eh/α |
          | HOMO-LUMO GAP               0.917515294431 eV   |
           -------------------------------------------------

 * finished run on 2022/07/30 at 07:06:55.971
