   * xtb version 6.5.1 (b24c23e) compiled by 'conda@728c89f4b128' on 2022-07-12
          program call               : xtb Ph_C6_2.xyz --gfn 1 --opt -T 48

   ID    Z sym.   atoms
    1    6 C      1-5, 7-10, 12-28, 31-36, 58-62, 64-67, 69-85, 88-93, 115-120
    2    7 N      6, 11, 29, 30, 63, 68, 86, 87
    3    1 H      37-57, 94-114
########################################################################
[WARNING] Please study the warnings concerning your input carefully
-1- prog_main_parseArguments: Unknown option '-T' provided
########################################################################

          :  Hamiltonian                  GFN1-xTB          :
 * total energy  :  -192.9056780 Eh     change       -0.8097913E-09 Eh
 * total energy  :  -195.3970627 Eh     change       -0.2491385E+01 Eh
 * total energy  :  -195.6558724 Eh     change       -0.2588098E+00 Eh
 * total energy  :  -195.7499559 Eh     change       -0.9408352E-01 Eh
 * total energy  :  -195.8072611 Eh     change       -0.5730516E-01 Eh
 * total energy  :  -195.8353850 Eh     change       -0.2812387E-01 Eh
 * total energy  :  -195.8558704 Eh     change       -0.2048537E-01 Eh
 * total energy  :  -195.8684690 Eh     change       -0.1259867E-01 Eh
 * total energy  :  -195.8760653 Eh     change       -0.7596295E-02 Eh
 * total energy  :  -195.8811390 Eh     change       -0.5073716E-02 Eh
 * total energy  :  -195.9052492 Eh     change       -0.1049187E-04 Eh
 * total energy  :  -195.9052415 Eh     change        0.7708930E-05 Eh
 * total energy  :  -195.9052591 Eh     change       -0.1760481E-04 Eh
 * total energy  :  -195.9052663 Eh     change       -0.7135785E-05 Eh
 * total energy  :  -195.9052735 Eh     change       -0.7202862E-05 Eh
 * total energy  :  -195.9052829 Eh     change       -0.9420403E-05 Eh
 * total energy  :  -195.9052923 Eh     change       -0.9399145E-05 Eh
 * total energy  :  -195.9053005 Eh     change       -0.8215450E-05 Eh
 * total energy  :  -195.9053053 Eh     change       -0.4848929E-05 Eh
   *** GEOMETRY OPTIMIZATION CONVERGED AFTER 53 ITERATIONS ***

 final structure:
================
120
 xtb: 6.5.1 (b24c23e)
C            9.35239017508687       -0.08601328941797        0.05425704745149
C            9.96078165575817       -1.16486890822451        0.68271432260496
C            9.30909785978993       -2.26296974865834        1.31125715939451
C           10.27166788739033       -3.09109418554331        1.81634234397781
C           11.54261635003857       -2.52151262935019        1.51920613576916
N           11.30419343474865       -1.36757296421186        0.82799945446408
C           12.80506273115976       -3.03218473075463        1.84040228734360
C           14.02134179883336       -2.44644286789253        1.48330096234789
C           15.31796415674749       -2.96965439185778        1.87403534644665
C           16.24048197962349       -2.14037948439025        1.34349867550463
N           14.17811003794943       -1.31124858046357        0.74749400781995
C           15.50605990683079       -1.10695695138097        0.63969635697031
C           16.14469634195163       -0.05452879877956       -0.04803525251520
C           15.50933201999091        1.01170564981600       -0.71271747756518
C           16.15338750588865        2.06249411004831       -1.41788815542674
C           15.18692502810518        2.90068770448584       -1.90103143748677
C           13.92181225213424        2.39015207465272       -1.49831152557851
C           12.66092103967662        2.92630250486591       -1.78032309294816
C           12.63203298116233        4.20261462643847       -2.53566204961716
C           12.00759284748715        4.27454855865683       -3.78177214036529
C           11.98301174070393        5.46896893555848       -4.48584512869532
C           12.57671332406677        6.60572673546935       -3.95412678642570
C           13.19855122161369        6.54287179707552       -2.71453665932035
C           13.22932933648507        5.34912599671789       -2.00947501518393
C           11.44363451391992        2.34999015464290       -1.40260527134723
C           10.14129122677606        2.94316069892182       -1.66351714524355
C            9.22557758978089        2.09386387444551       -1.15555317673603
C            9.96751796089787        0.99009129117658       -0.57225449949721
N           11.29980614589234        1.18161730052677       -0.73300609742311
N           14.16865809025953        1.24291229346836       -0.79110689570569
C           12.83443735584183       -4.29329263553527        2.62249645306747
C           12.27926822837579       -4.34529850474049        3.90164226358785
C           12.31104426408014       -5.52371572022369        4.63226102032377
C           12.89070695804272       -6.66400745703909        4.09300306418167
C           13.44188231931524       -6.62103742168658        2.81949140224718
C           13.41709630307747       -5.44318612381146        2.08809514255306
H            8.26705637378065       -0.08911419736795        0.06445559951640
H            8.23967798271132       -2.39288044859112        1.35983326275376
H           10.12141776705592       -4.02002766175986        2.34220361340126
H           12.02885440162234       -0.75324285171545        0.47211018901529
H           15.47863567943723       -3.84463482645785        2.48277475136164
H           17.31495155479924       -2.19584268662052        1.41492374269580
H           17.22077801906973        2.15413489746404       -1.53846462839930
H           15.33361113820948        3.78920716642690       -2.49318005640209
H           11.55545423714805        3.38450851937866       -4.20498233095654
H           11.49890802481457        5.51198648424996       -5.45522359989117
H           12.55474496307375        7.53924586333180       -4.50489520495126
H           13.66108035304568        7.42848278377396       -2.29298867226911
H           13.70287512395196        5.30607113674422       -1.03484908802564
H            9.97529511037996        3.88706800160864       -2.15735538676282
H            8.15047446851885        2.18327919248722       -1.15117758327430
H           13.44719015216901        0.65269721850723       -0.39019650972372
H           11.83827680136713       -3.45197918212940        4.33004693474899
H           11.88260680281261       -5.55079671095800        5.62810411557596
H           12.91323815210060       -7.58493505330621        4.66456389369166
H           13.89317988478879       -7.50990688325800        2.39273143897107
H           13.83774997866145       -5.41385137508828        1.08914324860973
C           32.11091282776592        0.08322284710168       -0.05647932007810
C           31.50283714112126        1.11305212189208       -0.76270134354462
C           32.15482316596778        2.15055778450348       -1.48665258923767
C           31.19250318532932        2.96170252148071       -2.01905333979947
C           29.92143040817128        2.45001686547475       -1.63106693167468
N           30.15951176406498        1.33170427638867       -0.88347026825768
C           28.65907701641776        2.95886581074784       -1.95542818175132
C           27.44277774561745        2.38597706514957       -1.57818104112954
C           26.14623739056299        2.96291315163116       -1.88431811265142
C           25.22364763105122        2.12933515554757       -1.36069060993520
N           27.28590304528227        1.23583574456616       -0.86595024447328
C           25.95796581226778        1.05141203394268       -0.72697544482922
C           25.31909063806528       -0.01961089677793       -0.06875981820879
C           25.95407725575908       -1.07579800349980        0.61208701047536
C           25.30966029625212       -2.16111984799493        1.26252190732926
C           26.27590338709954       -2.95613875539761        1.81420217559653
C           27.54124670791584       -2.37510293658634        1.52322889534193
C           28.80205608691827       -2.85987766204217        1.88676629363716
C           28.83068690651932       -4.08734855964432        2.71917681155237
C           29.45304539997203       -5.24599048659181        2.25218012466007
C           29.47744995587101       -6.39202798911638        3.03255874339324
C           28.88568473975404       -6.39483543123645        4.28843857165902
C           28.26586731030539       -5.24597148464014        4.76083894112832
C           28.23522190666540       -4.09934524364386        3.98148419431717
C           30.01944453762251       -2.27335229204070        1.52544754882297
C           31.32186306277400       -2.76367776024708        1.94888631831704
C           32.23761066272774       -1.94231053886319        1.39696556321338
C           31.49563962109332       -0.94276557472364        0.64899571312269
N           30.16329932000317       -1.16899762120973        0.75482056077723
N           27.29473074645239       -1.24613335783362        0.78709906275896
C           28.62964081805120        4.20463485691413       -2.76179300865553
C           29.18321728151235        5.38395771634457       -2.26198191743381
C           29.15088158209374        6.54788916330485       -3.01545985028765
C           28.57242799353651        6.54673028641046       -4.27738368035731
C           28.02301940761200        5.37628754249075       -4.78303177356988
C           28.04819551858941        4.21194360318028       -4.03033696643526
H           33.19625716432201        0.09305683663767       -0.05556746059493
H           33.22426960748837        2.24958825047839       -1.58348443384989
H           31.34295253611562        3.83434251088082       -2.63378542116915
H           29.43457277932409        0.74768897054486       -0.48024683349369
H           25.98571414503507        3.88698187797379       -2.41563634677601
H           24.14919877454874        2.21789425624786       -1.38006193197682
H           24.24218514992391       -2.30851919463308        1.29466409464375
H           26.12894418497765       -3.87041050062097        2.36569323873011
H           29.90371013685464       -5.25003748114199        1.26597714462639
H           29.95992041287605       -7.28785828324610        2.65756782292008
H           28.90758091189766       -7.29096622365447        4.89815943926275
H           27.80482441861517       -5.24154516920239        5.74235456781304
H           27.76321762277161       -3.19879997952175        4.35861366145471
H           31.48786937965312       -3.61360667627077        2.59111296243850
H           33.31277914394083       -1.97738054183165        1.47846718034707
H           28.01648227610861       -0.63226009198560        0.42399283248242
H           29.62333581784070        5.39019343901656       -1.27088145042602
H           29.57794514419034        7.46036048957984       -2.61418832101695
H           28.54951368806989        7.45684604518993       -4.86599901468570
H           27.57270487821873        5.36961839338677       -5.76947298860629
H           27.62867369819554        3.29575924724269       -4.43076307969004
C           21.34616228535831       -0.05823885112863       -0.09237653426828
C           20.11760273574886       -0.05873226367886       -0.09294297476677
C           18.77372821984433       -0.05681507446906       -0.08543389255153
C           17.54968855722462       -0.05473156371785       -0.07225341604285
C           22.69005917502680       -0.05387970990697       -0.08797777912254
C           23.91406734005833       -0.04049911675759       -0.07859142821220

          :  Hamiltonian                  GFN1-xTB          :
         :: total energy            -195.905305350904 Eh    ::
         :: gradient norm              0.000389121190 Eh/a0 ::
         :: HOMO-LUMO gap              1.008816328004 eV    ::
         :: SCC energy              -199.302475165850 Eh    ::
         :: repulsion energy           3.497124096878 Eh    ::

    * Orbital Energies and Occupations

         #    Occupation            Energy/Eh            Energy/eV
      -------------------------------------------------------------
         1        2.0000           -0.8031769             -21.8556
       ...           ...                  ...                  ...
       169        2.0000           -0.4207651             -11.4496
       170        2.0000           -0.4195842             -11.4175
       171        2.0000           -0.4189557             -11.4004
       172        2.0000           -0.4160465             -11.3212
       173        2.0000           -0.4158327             -11.3154
       174        2.0000           -0.4149038             -11.2901
       175        2.0000           -0.4144783             -11.2785
       176        2.0000           -0.4140422             -11.2667
       177        2.0000           -0.4119848             -11.2107
       178        2.0000           -0.3980865             -10.8325
       179        2.0000           -0.3977617             -10.8236
       180        2.0000           -0.3865756             -10.5193
       181        2.0000           -0.3772677             -10.2660 (HOMO)
       182                         -0.3401943              -9.2572 (LUMO)
       183                         -0.3304542              -8.9921
       184                         -0.3300245              -8.9804
       185                         -0.3286050              -8.9418
       186                         -0.3003326              -8.1725
       187                         -0.2929609              -7.9719
       188                         -0.2838182              -7.7231
       189                         -0.2657369              -7.2311
       190                         -0.2648050              -7.2057
       191                         -0.2647989              -7.2055
       192                         -0.2647600              -7.2045
       ...                                ...                  ...
       396                          1.5807978              43.0157
      -------------------------------------------------------------
                  HL-Gap            0.0370733 Eh            1.0088 eV

Wiberg/Mayer (AO) data.
largest (>0.10) Wiberg bond orders for each atom

     #   Z sym  total        # sym  WBO       # sym  WBO       # sym  WBO
 ---------------------------------------------------------------------------
     1   6 C    3.924 --    28 C    1.365     2 C    1.346    37 H    0.971
     2   6 C    3.903 --     1 C    1.346     3 C    1.230     6 N    1.170
     3   6 C    3.953 --     4 C    1.595     2 C    1.230    38 H    0.977
     4   6 C    3.959 --     3 C    1.595     5 C    1.235    39 H    0.974
     5   6 C    3.896 --     7 C    1.303     4 C    1.235     6 N    1.177
     6   7 N    3.469 --     5 C    1.177     2 C    1.170    40 H    0.873
     7   6 C    3.939 --     8 C    1.337     5 C    1.303    31 C    1.027
     8   6 C    3.915 --     7 C    1.337    11 N    1.284     9 C    1.125
     9   6 C    3.966 --    10 C    1.710     8 C    1.125    41 H    0.974
    10   6 C    3.964 --     9 C    1.710    12 C    1.128    42 H    0.974
    11   7 N    3.022 --    12 C    1.346     8 C    1.284
    12   6 C    3.908 --    11 N    1.346    13 C    1.252    10 C    1.128
    13   6 C    3.937 --    12 C    1.252    14 C    1.251   118 C    1.193
    14   6 C    3.885 --    13 C    1.251    15 C    1.249    30 N    1.190
    15   6 C    3.959 --    16 C    1.583    14 C    1.249    43 H    0.975
    16   6 C    3.955 --    15 C    1.583    17 C    1.241    44 H    0.974
    17   6 C    3.898 --    18 C    1.310    16 C    1.241    30 N    1.165
    18   6 C    3.925 --    25 C    1.321    17 C    1.310    19 C    1.030
    19   6 C    3.988 --    24 C    1.394    20 C    1.394    18 C    1.030
                            22 C    0.108
    20   6 C    3.987 --    21 C    1.448    19 C    1.394    45 H    0.973
                            23 C    0.109
    21   6 C    3.995 --    20 C    1.448    22 C    1.437    46 H    0.973
                            24 C    0.109
    22   6 C    3.989 --    23 C    1.437    21 C    1.437    47 H    0.974
                            19 C    0.108
    23   6 C    3.995 --    24 C    1.448    22 C    1.437    48 H    0.973
                            20 C    0.109
    24   6 C    3.986 --    23 C    1.448    19 C    1.394    49 H    0.973
                            21 C    0.109
    25   6 C    3.929 --    18 C    1.321    29 N    1.317    26 C    1.118
    26   6 C    3.967 --    27 C    1.722    25 C    1.118    50 H    0.974
    27   6 C    3.966 --    26 C    1.722    28 C    1.117    51 H    0.976
    28   6 C    3.929 --     1 C    1.365    29 N    1.300    27 C    1.117
    29   7 N    3.012 --    25 C    1.317    28 C    1.300
    30   7 N    3.474 --    14 C    1.190    17 C    1.165    52 H    0.873
    31   6 C    3.989 --    32 C    1.396    36 C    1.395     7 C    1.027
                            34 C    0.108
    32   6 C    3.987 --    33 C    1.447    31 C    1.396    53 H    0.973
                            35 C    0.110
    33   6 C    3.995 --    32 C    1.447    34 C    1.438    54 H    0.973
                            36 C    0.110
    34   6 C    3.990 --    33 C    1.438    35 C    1.437    55 H    0.974
                            31 C    0.108
    35   6 C    3.995 --    36 C    1.448    34 C    1.437    56 H    0.973
                            32 C    0.110
    36   6 C    3.988 --    35 C    1.448    31 C    1.395    57 H    0.973
                            33 C    0.110
    37   1 H    1.002 --     1 C    0.971
    38   1 H    0.998 --     3 C    0.977
    39   1 H    1.005 --     4 C    0.974
    40   1 H    0.986 --     6 N    0.873
    41   1 H    1.005 --     9 C    0.974
    42   1 H    1.003 --    10 C    0.974
    43   1 H    1.002 --    15 C    0.975
    44   1 H    1.005 --    16 C    0.974
    45   1 H    1.005 --    20 C    0.973
    46   1 H    1.003 --    21 C    0.973
    47   1 H    1.003 --    22 C    0.974
    48   1 H    1.003 --    23 C    0.973
    49   1 H    1.005 --    24 C    0.973
    50   1 H    1.005 --    26 C    0.974
    51   1 H    0.998 --    27 C    0.976
    52   1 H    0.987 --    30 N    0.873
    53   1 H    1.005 --    32 C    0.973
    54   1 H    1.003 --    33 C    0.973
    55   1 H    1.003 --    34 C    0.974
    56   1 H    1.003 --    35 C    0.973
    57   1 H    1.005 --    36 C    0.973
    58   6 C    3.924 --    85 C    1.365    59 C    1.346    94 H    0.971
    59   6 C    3.903 --    58 C    1.346    60 C    1.230    63 N    1.170
    60   6 C    3.953 --    61 C    1.595    59 C    1.230    95 H    0.977
    61   6 C    3.959 --    60 C    1.595    62 C    1.235    96 H    0.974
    62   6 C    3.896 --    64 C    1.303    61 C    1.235    63 N    1.177
    63   7 N    3.469 --    62 C    1.177    59 C    1.170    97 H    0.873
    64   6 C    3.939 --    65 C    1.337    62 C    1.303    88 C    1.027
    65   6 C    3.915 --    64 C    1.337    68 N    1.284    66 C    1.125
    66   6 C    3.966 --    67 C    1.710    65 C    1.125    98 H    0.974
    67   6 C    3.964 --    66 C    1.710    69 C    1.128    99 H    0.974
    68   7 N    3.022 --    69 C    1.346    65 C    1.284
    69   6 C    3.908 --    68 N    1.346    70 C    1.252    67 C    1.128
    70   6 C    3.937 --    69 C    1.252    71 C    1.251   120 C    1.193
    71   6 C    3.885 --    70 C    1.251    72 C    1.249    87 N    1.190
    72   6 C    3.959 --    73 C    1.583    71 C    1.249   100 H    0.975
    73   6 C    3.955 --    72 C    1.583    74 C    1.241   101 H    0.974
    74   6 C    3.898 --    75 C    1.310    73 C    1.241    87 N    1.165
    75   6 C    3.925 --    82 C    1.321    74 C    1.310    76 C    1.030
    76   6 C    3.988 --    81 C    1.394    77 C    1.394    75 C    1.030
                            79 C    0.108
    77   6 C    3.987 --    78 C    1.448    76 C    1.394   102 H    0.973
                            80 C    0.109
    78   6 C    3.995 --    77 C    1.448    79 C    1.437   103 H    0.973
                            81 C    0.109
    79   6 C    3.989 --    80 C    1.437    78 C    1.437   104 H    0.974
                            76 C    0.108
    80   6 C    3.995 --    81 C    1.448    79 C    1.437   105 H    0.973
                            77 C    0.109
    81   6 C    3.986 --    80 C    1.448    76 C    1.394   106 H    0.973
                            78 C    0.109
    82   6 C    3.929 --    75 C    1.321    86 N    1.317    83 C    1.118
    83   6 C    3.967 --    84 C    1.722    82 C    1.118   107 H    0.974
    84   6 C    3.966 --    83 C    1.722    85 C    1.117   108 H    0.976
    85   6 C    3.929 --    58 C    1.365    86 N    1.300    84 C    1.117
    86   7 N    3.012 --    82 C    1.317    85 C    1.300
    87   7 N    3.474 --    71 C    1.190    74 C    1.165   109 H    0.873
    88   6 C    3.989 --    89 C    1.396    93 C    1.395    64 C    1.027
                            91 C    0.108
    89   6 C    3.987 --    90 C    1.447    88 C    1.396   110 H    0.973
                            92 C    0.110
    90   6 C    3.995 --    89 C    1.447    91 C    1.438   111 H    0.973
                            93 C    0.110
    91   6 C    3.990 --    90 C    1.438    92 C    1.437   112 H    0.974
                            88 C    0.108
    92   6 C    3.995 --    93 C    1.448    91 C    1.437   113 H    0.973
                            89 C    0.110
    93   6 C    3.988 --    92 C    1.448    88 C    1.395   114 H    0.973
                            90 C    0.110
    94   1 H    1.002 --    58 C    0.971
    95   1 H    0.998 --    60 C    0.977
    96   1 H    1.005 --    61 C    0.974
    97   1 H    0.986 --    63 N    0.873
    98   1 H    1.005 --    66 C    0.974
    99   1 H    1.003 --    67 C    0.974
   100   1 H    1.002 --    72 C    0.975
   101   1 H    1.005 --    73 C    0.974
   102   1 H    1.005 --    77 C    0.973
   103   1 H    1.003 --    78 C    0.973
   104   1 H    1.003 --    79 C    0.974
   105   1 H    1.003 --    80 C    0.973
   106   1 H    1.005 --    81 C    0.973
   107   1 H    1.005 --    83 C    0.974
   108   1 H    0.998 --    84 C    0.976
   109   1 H    0.987 --    87 N    0.873
   110   1 H    1.005 --    89 C    0.973
   111   1 H    1.003 --    90 C    0.973
   112   1 H    1.003 --    91 C    0.974
   113   1 H    1.003 --    92 C    0.973
   114   1 H    1.005 --    93 C    0.973
   115   6 C    3.925 --   116 C    2.366   119 C    1.337   118 C    0.190
   116   6 C    3.925 --   115 C    2.366   117 C    1.337   120 C    0.190
   117   6 C    3.932 --   118 C    2.446   116 C    1.337
   118   6 C    3.890 --   117 C    2.446    13 C    1.193   115 C    0.190
   119   6 C    3.932 --   120 C    2.446   115 C    1.337
   120   6 C    3.890 --   119 C    2.446    70 C    1.193   116 C    0.190
 ---------------------------------------------------------------------------

           -------------------------------------------------
          | TOTAL ENERGY             -195.905305350904 Eh   |
          | GRADIENT NORM               0.000389121190 Eh/α |
          | HOMO-LUMO GAP               1.008816328004 eV   |
           -------------------------------------------------

 * finished run on 2022/07/29 at 19:31:12.029
