   * xtb version 6.5.1 (b24c23e) compiled by 'conda@728c89f4b128' on 2022-07-12
          program call               : xtb Co_PhNO2_C2_3.xyz --gfn 1 --opt -T 48

   ID    Z sym.   atoms
    1   27 Co     1, 61, 125
    2    6 C      2-6, 8-12, 16-20, 22-27, 29-33, 37-42, 62-66, 68-72, 76-80,
                  82-87, 89-93, 97-102, 121-124, 126-130, 132-136, 140-144,
                  146-151, 153-157, 161-166
    3    7 N      7, 13, 21, 28, 34, 43, 67, 73, 81, 88, 94, 103, 131, 137,
                  145, 152, 158, 167
    4    8 O      14, 15, 35, 36, 74, 75, 95, 96, 138, 139, 159, 160
    5    1 H      44-60, 104-120, 168-183
########################################################################
[WARNING] Please study the warnings concerning your input carefully
-1- prog_main_parseArguments: Unknown option '-T' provided
########################################################################

          :  Hamiltonian                  GFN1-xTB          :
 * total energy  :  -361.2700636 Eh     change       -0.1313367E-08 Eh
 * total energy  :  -361.6245786 Eh     change       -0.3545150E+00 Eh
 * total energy  :  -361.8129230 Eh     change       -0.1883444E+00 Eh
 * total energy  :  -361.8759514 Eh     change       -0.6302840E-01 Eh
 * total energy  :  -361.9037831 Eh     change       -0.2783177E-01 Eh
 * total energy  :  -361.9216471 Eh     change       -0.1786400E-01 Eh
 * total energy  :  -361.9330836 Eh     change       -0.1143647E-01 Eh
 * total energy  :  -361.9405389 Eh     change       -0.7455285E-02 Eh
 * total energy  :  -361.9471984 Eh     change       -0.6659525E-02 Eh
 * total energy  :  -361.9512522 Eh     change       -0.4053830E-02 Eh
 * total energy  :  -361.9660558 Eh     change       -0.6331249E-05 Eh
 * total energy  :  -361.9660622 Eh     change       -0.6437346E-05 Eh
 * total energy  :  -361.9660681 Eh     change       -0.5890826E-05 Eh
 * total energy  :  -361.9660774 Eh     change       -0.9294174E-05 Eh
 * total energy  :  -361.9660847 Eh     change       -0.7288709E-05 Eh
 * total energy  :  -361.9660945 Eh     change       -0.9794921E-05 Eh
 * total energy  :  -361.9661015 Eh     change       -0.7011393E-05 Eh
 * total energy  :  -361.9661054 Eh     change       -0.3954468E-05 Eh
 * total energy  :  -361.9661103 Eh     change       -0.4828207E-05 Eh
   *** GEOMETRY OPTIMIZATION CONVERGED AFTER 67 ITERATIONS ***

 final structure:
================
183
 xtb: 6.5.1 (b24c23e)
Co          34.94001296926577       -0.01779880382571       -0.09487503315722
C           31.56736023667308       -0.00979162530964       -0.25197846508921
C           32.21372350660578       -1.21959239510832       -0.11835358226773
C           31.53975463114357       -2.47736601180679       -0.00746223878125
C           32.49328693110303       -3.43545284824971       -0.07438608764833
C           33.74705389601977       -2.76008809067988       -0.24450909595884
N           33.57176214827442       -1.40109622673604       -0.19993987672647
C           34.94493425633750       -3.39972735697619       -0.53553757549359
C           34.94330004925893       -4.86385657157129       -0.74717032216229
C           35.73150299988578       -5.69736182477081        0.05190221415209
C           35.73313765380664       -7.06593733158744       -0.14826831357444
C           34.94411587968727       -7.60498796503621       -1.16023135179904
N           34.94567906950611       -9.04163112074171       -1.37811898777467
O           34.24839609592698       -9.47165970090991       -2.26049812224048
O           35.64290815944768       -9.71269722340097       -0.66199859983606
C           34.15401496771956       -6.79253815298382       -1.96820953574197
C           34.15510936187330       -5.42605964352130       -1.75620359999662
C           36.13859857054636       -2.70356922414866       -0.65914284777796
C           37.38453679734373       -3.30406513490567       -1.03142656006897
C           38.33429192321790       -2.34794165729330       -0.89585198991452
N           36.31662865962080       -1.37280120813674       -0.36067223855523
C           37.66558452204587       -1.16668727042985       -0.44941329911046
C           38.33388330485224       -0.00845849250688       -0.05116331337709
C           37.65074315600999        1.13723588930956        0.35911104713259
C           38.30103711650879        2.30423389089747        0.86599208561429
C           37.33828220940180        3.24114314310951        1.03917996656280
C           36.10532782567083        2.64852669461600        0.61414993463554
N           36.30170926339995        1.33334889828645        0.25980393032447
C           34.91530599579992        3.34552022575418        0.46826105408137
C           34.88831156059702        4.79806376319215        0.74738606818963
C           34.03293601477391        5.30505713849997        1.73065238600025
C           33.99902164615850        6.66053621293635        2.00212114429858
C           34.82356586581659        7.51779611284329        1.27927796512264
N           34.78876271599233        8.94359897749336        1.55742261632834
O           34.03005087447846        9.32601142832829        2.41057779081441
O           35.52014867894808        9.65388364894142        0.91719655571641
C           35.67917313091812        7.03411128841480        0.29379960881766
C           35.70963319274789        5.67594618359845        0.03382984492729
C           33.74288544746801        2.72178519488182        0.06005368660590
C           32.51273369582776        3.41117128488431       -0.20100185434661
C           31.57252810049497        2.46299093595616       -0.42120757763539
C           32.22968305008710        1.19746680904983       -0.29586770514068
N           33.57232420970065        1.36799163727686       -0.06403939500016
H           30.48554434100776       -0.00692246395560       -0.31129744831361
H           30.47326223143487       -2.59124466295041        0.10261357295143
H           32.37255870236308       -4.50502807372711       -0.01762984515857
H           36.33271354187802       -5.26621365614030        0.84386313139269
H           36.33608826685835       -7.72098425541864        0.46903769440539
H           33.55196893716982       -7.23673471959946       -2.75176215616867
H           33.55450784658431       -4.78107325097511       -2.38690896154913
H           37.50542806149414       -4.32455765100873       -1.35623565002554
H           39.39510727871206       -2.42166827144753       -1.07324592223016
H           39.35852823218367        2.37989900198819        1.06164763007113
H           37.44320101546160        4.24511820771170        1.41670729558138
H           33.40387323639896        4.62520894401731        2.29333863736409
H           33.34433706193046        7.06207950611607        2.76620626535193
H           36.30672011887811        7.72358820328070       -0.25802397839174
H           36.36109019488898        5.28868882112353       -0.74086075721704
H           32.39864376130174        4.48291225725244       -0.21396842802462
H           30.52363460898873        2.58787396009912       -0.63731017340475
Co          56.57001649979065        0.06498097587341       -0.03606942516635
C           59.93623785329482        0.09856145639355       -0.15168776555889
C           59.28752738906757        1.17063654717770        0.42372970361780
C           59.95104080198396        2.29184003196703        1.01656244354536
C           58.99691485411934        3.21822418070390        1.27075689821294
C           57.75337183402588        2.66780190481460        0.81503675759841
N           57.93261052901618        1.38339536751654        0.37137740238613
C           56.56758911730014        3.38407785008714        0.70324109102390
C           56.56690749808435        4.82865492073187        1.01703747446306
C           55.70550903174993        5.33967288535850        1.99289256223903
C           55.70330377118770        6.69010592856634        2.29103390990841
C           56.56587623407560        7.53860155630364        1.60310172967196
N           56.56674102829381        8.95857620670630        1.91151868652346
O           57.32376006409812        9.66211198979188        1.29387716903262
O           55.81099521407915        9.34299379511159        2.76630660105526
C           57.42808836083930        7.05116595667910        0.62526240425417
C           57.42654997353537        5.69838817521803        0.33853369838188
C           55.38679970360030        2.78336826347224        0.28851730872876
C           54.15521205153590        3.47993266432731        0.06745378787005
C           53.20461847578990        2.53613495727586       -0.13814673577798
N           55.20176816080817        1.42846940764068        0.14326035695168
C           53.85722206784399        1.26868385025369       -0.04618024958129
C           53.18270471328677        0.04596170105193        0.00463055851108
C           53.87054044067812       -1.16948042405278        0.06069600029381
C           53.23510199698122       -2.44121039615175        0.20084696791956
C           54.19524290576186       -3.37947095029672        0.01466091897025
C           55.41304200018521       -2.67514984285778       -0.25412470630127
N           55.21323460264509       -1.31826037293787       -0.14574938825833
C           56.58578283875262       -3.27031179984531       -0.69726592718904
C           56.60180390306111       -4.72366598835340       -0.96754201888036
C           57.51270771078620       -5.55249436998610       -0.30484657768469
C           57.53652200891325       -6.91239125703686       -0.55447359911256
C           56.64511422400069       -7.44813958075572       -1.47947705211973
N           56.67041065875114       -8.87550938975671       -1.75072894171400
O           57.47633836314728       -9.54150543474290       -1.15364771730642
O           55.88465617140735       -9.30305661098305       -2.55653576896253
C           55.73154146006075       -6.64082910509428       -2.15090718601095
C           55.71203479922801       -5.28281113526794       -1.88997965317063
C           57.74892968413015       -2.53593667069582       -0.89850506692223
C           58.96914250877211       -3.07297538155685       -1.42714225421138
C           59.91513176329776       -2.11603591076287       -1.27719967488629
C           59.27050708517135       -0.99365748869247       -0.66573957816231
N           57.92868415258050       -1.23598047140395       -0.50508822809209
H           61.01876468065882        0.11117863207418       -0.19374244278955
H           61.01197902875385        2.34690735474573        1.20059262859406
H           59.11213228456278        4.19040885366147        1.72176051860338
H           55.04785334275813        4.66669651101055        2.53064499758514
H           55.04443170109832        7.09447380191460        3.05001112643773
H           58.08643240516420        7.73340820536070        0.10097183468324
H           58.08338350448884        5.30878704996882       -0.43040981134705
H           54.04314560319402        4.55188266139743        0.06807614725171
H           52.15275916545743        2.67172949241747       -0.33053141335877
H           52.18812737373339       -2.58308497126680        0.41457814490275
H           54.09774137420410       -4.45215778697411        0.05296834707265
H           58.19353242308137       -5.12474279359309        0.42179464761709
H           58.23479571345936       -7.56319146069778       -0.04208832618253
H           55.05144164103052       -7.08232426032628       -2.86940105205327
H           55.01555341115520       -4.64150139318070       -2.41739801119130
H           59.07481147698314       -4.05675395977997       -1.85478091606156
H           60.96024829356329       -2.15229321796710       -1.53969083908870
C           39.74158434951102       -0.00082640642620       -0.04658792848814
C           40.95809529284549        0.00379383396724       -0.04488264569499
C           50.55981222434731        0.03400957468200        0.00891025459303
C           51.77723175215791        0.03846783796628        0.00772872660400
Co          45.75932025105048        0.01828773780425       -0.05778477059525
C           42.36489964594415        0.00881856191515       -0.03830281138235
C           43.04603877738764       -1.17621390458796        0.24760495342845
C           42.39639960692701       -2.40008568066927        0.59601034150444
C           43.35668912438836       -3.35591132852613        0.62136799535486
C           44.58708935013675       -2.71207722686234        0.27188509025763
N           44.39437238194664       -1.35930420148339        0.11785730698896
C           45.77261694920406       -3.38120114596726       -0.00082111332349
C           45.78615405817839       -4.85972639737306        0.02374668870127
C           46.65031640579465       -5.53831352470387        0.88865256936786
C           46.66567970187869       -6.92066780515535        0.92468555946483
C           45.81486669126768       -7.63057114419637        0.08271783932212
N           45.82856634237881       -9.08405346518294        0.11559147577046
O           45.09024340310265       -9.66425249716420       -0.63730245960945
O           46.57681287889691       -9.61543904577114        0.89444103395418
C           44.95125931060126       -6.97462050595485       -0.78946876989046
C           44.93815037459766       -5.59173525097244       -0.81274493908897
C           46.95011922660957       -2.70532145052544       -0.29315710982896
C           48.17934488289099       -3.34064323204264       -0.65964304761752
C           49.13093347783458       -2.37505660139962       -0.66106275488595
N           47.13565333882158       -1.35185675660904       -0.14217138120491
C           48.47875239024955       -1.15659651390282       -0.30125389830120
C           49.15483806074103        0.02842706953528        0.00369228615168
C           48.46642972077205        1.20822120900180        0.29982077526387
C           49.10671741460967        2.43159313917599        0.66533713605489
C           48.14948095221905        3.39095911236909        0.65135440545854
C           46.92870084436261        2.74743909254359        0.27039928719830
N           47.12214737283063        1.39300178654899        0.13453502553043
C           45.75295385757092        3.41769299747191       -0.04033487960078
C           45.76111971491544        4.89607518846832       -0.07448534540989
C           46.63431951689807        5.57171112198227       -0.93268656214318
C           46.64263157814926        6.95371255703930       -0.98129735421030
C           45.77508030436621        7.66648219043085       -0.15904357386551
N           45.77989106713240        9.11960134209726       -0.20653722550135
O           46.54837100715806        9.64833324647136       -0.96730036054195
O           45.01380420297141        9.70217976574827        0.51608126124855
C           44.90263931285705        7.01361860878028        0.70663122247482
C           44.89718657311148        5.63093162547939        0.74293937333779
C           44.57388776041650        2.74275736074067       -0.32774913075854
C           43.34486625018183        3.37800951922476       -0.69646484228334
C           42.38967414639433        2.41637952975131       -0.68081426850405
C           43.04155738425698        1.19788388966953       -0.31915160337447
N           44.38503032021336        1.39128738896094       -0.16179473175263
H           41.34065503454983       -2.50024243755086        0.78974338083010
H           43.25105945119828       -4.40338055797974        0.85186645652759
H           47.29939174706617       -4.97317493850114        1.54732917240618
H           47.32598167837470       -7.45561922190838        1.59664474712183
H           44.30274396926475       -7.55136324536434       -1.43793814245483
H           44.27905355221736       -5.06896503543710       -1.49596754642894
H           48.28947900003017       -4.38828563021476       -0.88747581934009
H           50.18252397391107       -2.46685074790810       -0.87914913232366
H           50.15494744998092        2.52976457159708        0.89613195645862
H           48.25019695451382        4.43996195197183        0.87711878380946
H           47.29599580553712        5.00427678804867       -1.57671286280072
H           47.30968663836968        7.48619557655751       -1.64854159804173
H           44.24122163553221        7.59255505288315        1.33994404121665
H           44.23113392820778        5.11082024753280        1.42141766740113
H           43.23632721879318        4.42364442415750       -0.93392506836468
H           41.33615270398733        2.50921291484456       -0.88989987042169

          :  Hamiltonian                  GFN1-xTB          :
         :: total energy            -361.966110258169 Eh    ::
         :: gradient norm              0.000526380965 Eh/a0 ::
         :: HOMO-LUMO gap              0.006666348747 eV    ::
         :: SCC energy              -366.862399226079 Eh    ::
         :: repulsion energy           5.067905988921 Eh    ::

    * Orbital Energies and Occupations

         #    Occupation            Energy/Eh            Energy/eV
      -------------------------------------------------------------
         1        2.0000           -0.9273395             -25.2342
       ...           ...                  ...                  ...
       308        2.0000           -0.4237666             -11.5313
       309        2.0000           -0.4236564             -11.5283
       310        2.0000           -0.4235412             -11.5251
       311        1.9999           -0.4214074             -11.4671
       312        1.9998           -0.4205575             -11.4440
       313        1.9998           -0.4203767             -11.4390
       314        1.9998           -0.4201272             -11.4322
       315        1.9997           -0.4200155             -11.4292
       316        1.9997           -0.4199162             -11.4265
       317        1.9997           -0.4198155             -11.4238
       318        1.7792           -0.4134986             -11.2519
       319        1.1185           -0.4116276             -11.2010
       320        1.1104           -0.4116105             -11.2005 (HOMO)
       321        0.9934           -0.4113655             -11.1938 (LUMO)
       322                         -0.3712016             -10.1009
       323                         -0.3645971              -9.9212
       324                         -0.3626187              -9.8674
       325                         -0.3618133              -9.8454
       326                         -0.3599041              -9.7935
       327                         -0.3539346              -9.6311
       328                         -0.3532692              -9.6129
       329                         -0.3528303              -9.6010
       330                         -0.3490216              -9.4974
       331                         -0.3480442              -9.4708
       ...                                ...                  ...
       647                          1.3133107              35.7370
      -------------------------------------------------------------
                  HL-Gap            0.0002450 Eh            0.0067 eV

Wiberg/Mayer (AO) data.
largest (>0.10) Wiberg bond orders for each atom

     #   Z sym  total        # sym  WBO       # sym  WBO       # sym  WBO
 ---------------------------------------------------------------------------
     1  27 Co   3.020 --    43 N    0.637     7 N    0.637    21 N    0.631
                            28 N    0.630
     2   6 C    3.929 --    42 C    1.368     3 C    1.364    44 H    0.969
     3   6 C    3.921 --     2 C    1.364     7 N    1.200     4 C    1.173
     4   6 C    3.960 --     5 C    1.651     3 C    1.173    45 H    0.974
     5   6 C    3.962 --     4 C    1.651     6 C    1.174    46 H    0.973
     6   6 C    3.920 --     8 C    1.317     7 N    1.214     5 C    1.174
     7   7 N    3.346 --     6 C    1.214     3 C    1.200     1 Co   0.637
     8   6 C    3.930 --    18 C    1.328     6 C    1.317     9 C    1.035
     9   6 C    3.985 --    10 C    1.384    17 C    1.383     8 C    1.035
    10   6 C    3.987 --    11 C    1.463     9 C    1.384    47 H    0.971
                            16 C    0.102
    11   6 C    3.987 --    10 C    1.463    12 C    1.388    48 H    0.964
                            17 C    0.102
    12   6 C    3.942 --    11 C    1.388    16 C    1.388    13 N    0.920
    13   7 N    3.866 --    15 O    1.456    14 O    1.455    12 C    0.920
    14   8 O    1.830 --    13 N    1.455    15 O    0.252
    15   8 O    1.831 --    13 N    1.456    14 O    0.252
    16   6 C    3.987 --    17 C    1.463    12 C    1.388    49 H    0.964
                            10 C    0.102
    17   6 C    3.986 --    16 C    1.463     9 C    1.383    50 H    0.971
                            11 C    0.102
    18   6 C    3.917 --     8 C    1.328    21 N    1.198    19 C    1.180
    19   6 C    3.958 --    20 C    1.638    18 C    1.180    51 H    0.973
    20   6 C    3.961 --    19 C    1.638    22 C    1.188    52 H    0.972
    21   7 N    3.346 --    22 C    1.227    18 C    1.198     1 Co   0.631
    22   6 C    3.908 --    23 C    1.268    21 N    1.227    20 C    1.188
    23   6 C    3.933 --    22 C    1.268    24 C    1.266   121 C    1.172
    24   6 C    3.908 --    23 C    1.266    28 N    1.230    25 C    1.188
    25   6 C    3.962 --    26 C    1.639    24 C    1.188    53 H    0.973
    26   6 C    3.958 --    25 C    1.639    27 C    1.179    54 H    0.973
    27   6 C    3.917 --    29 C    1.331    28 N    1.195    26 C    1.179
    28   7 N    3.346 --    24 C    1.230    27 C    1.195     1 Co   0.630
    29   6 C    3.930 --    27 C    1.331    39 C    1.314    30 C    1.035
    30   6 C    3.985 --    38 C    1.384    31 C    1.383    29 C    1.035
    31   6 C    3.986 --    32 C    1.464    30 C    1.383    55 H    0.971
                            37 C    0.102
    32   6 C    3.987 --    31 C    1.464    33 C    1.388    56 H    0.964
                            38 C    0.102
    33   6 C    3.942 --    37 C    1.388    32 C    1.388    34 N    0.920
    34   7 N    3.866 --    36 O    1.456    35 O    1.455    33 C    0.920
    35   8 O    1.830 --    34 N    1.455    36 O    0.252
    36   8 O    1.831 --    34 N    1.456    35 O    0.252
    37   6 C    3.987 --    38 C    1.463    33 C    1.388    57 H    0.964
                            31 C    0.102
    38   6 C    3.987 --    37 C    1.463    30 C    1.384    58 H    0.971
                            32 C    0.102
    39   6 C    3.920 --    29 C    1.314    43 N    1.217    40 C    1.175
    40   6 C    3.963 --    41 C    1.651    39 C    1.175    59 H    0.973
    41   6 C    3.959 --    40 C    1.651    42 C    1.172    60 H    0.974
    42   6 C    3.921 --     2 C    1.368    43 N    1.198    41 C    1.172
    43   7 N    3.347 --    39 C    1.217    42 C    1.198     1 Co   0.637
    44   1 H    0.999 --     2 C    0.969
    45   1 H    0.996 --     4 C    0.974
    46   1 H    1.002 --     5 C    0.973
    47   1 H    1.003 --    10 C    0.971
    48   1 H    1.006 --    11 C    0.964
    49   1 H    1.006 --    16 C    0.964
    50   1 H    1.003 --    17 C    0.971
    51   1 H    1.003 --    19 C    0.973
    52   1 H    1.002 --    20 C    0.972
    53   1 H    1.002 --    25 C    0.973
    54   1 H    1.003 --    26 C    0.973
    55   1 H    1.003 --    31 C    0.971
    56   1 H    1.006 --    32 C    0.964
    57   1 H    1.006 --    37 C    0.964
    58   1 H    1.004 --    38 C    0.971
    59   1 H    1.002 --    40 C    0.973
    60   1 H    0.996 --    41 C    0.974
    61  27 Co   3.040 --    67 N    0.639   103 N    0.638    81 N    0.632
                            88 N    0.632
    62   6 C    3.927 --   102 C    1.366    63 C    1.364   104 H    0.969
    63   6 C    3.921 --    62 C    1.364    67 N    1.199    64 C    1.173
    64   6 C    3.958 --    65 C    1.650    63 C    1.173   105 H    0.974
    65   6 C    3.963 --    64 C    1.650    66 C    1.174   106 H    0.973
    66   6 C    3.920 --    68 C    1.315    67 N    1.214    65 C    1.174
    67   7 N    3.345 --    66 C    1.214    63 C    1.199    61 Co   0.639
    68   6 C    3.928 --    78 C    1.326    66 C    1.315    69 C    1.038
    69   6 C    3.985 --    70 C    1.382    77 C    1.382    68 C    1.038
    70   6 C    3.985 --    71 C    1.463    69 C    1.382   107 H    0.971
                            76 C    0.102
    71   6 C    3.987 --    70 C    1.463    72 C    1.388   108 H    0.964
                            77 C    0.102
    72   6 C    3.941 --    71 C    1.388    76 C    1.388    73 N    0.920
    73   7 N    3.866 --    74 O    1.455    75 O    1.455    72 C    0.920
    74   8 O    1.830 --    73 N    1.455    75 O    0.252
    75   8 O    1.830 --    73 N    1.455    74 O    0.252
    76   6 C    3.987 --    77 C    1.464    72 C    1.388   109 H    0.964
                            70 C    0.102
    77   6 C    3.984 --    76 C    1.464    69 C    1.382   110 H    0.971
                            71 C    0.102
    78   6 C    3.917 --    68 C    1.326    81 N    1.196    79 C    1.181
    79   6 C    3.957 --    80 C    1.636    78 C    1.181   111 H    0.973
    80   6 C    3.960 --    79 C    1.636    82 C    1.190   112 H    0.971
    81   7 N    3.345 --    82 C    1.227    78 C    1.196    61 Co   0.632
    82   6 C    3.906 --    83 C    1.263    81 N    1.227    80 C    1.190
    83   6 C    3.932 --    82 C    1.263    84 C    1.260   124 C    1.183
    84   6 C    3.906 --    83 C    1.260    88 N    1.230    85 C    1.190
    85   6 C    3.960 --    86 C    1.636    84 C    1.190   113 H    0.971
    86   6 C    3.957 --    85 C    1.636    87 C    1.180   114 H    0.973
    87   6 C    3.917 --    89 C    1.329    88 N    1.194    86 C    1.180
    88   7 N    3.344 --    84 C    1.230    87 C    1.194    61 Co   0.632
    89   6 C    3.928 --    87 C    1.329    99 C    1.313    90 C    1.038
    90   6 C    3.985 --    98 C    1.383    91 C    1.382    89 C    1.038
    91   6 C    3.984 --    92 C    1.464    90 C    1.382   115 H    0.971
                            97 C    0.102
    92   6 C    3.987 --    91 C    1.464    93 C    1.388   116 H    0.964
                            98 C    0.102
    93   6 C    3.941 --    97 C    1.388    92 C    1.388    94 N    0.920
    94   7 N    3.866 --    96 O    1.455    95 O    1.455    93 C    0.920
    95   8 O    1.830 --    94 N    1.455    96 O    0.252
    96   8 O    1.831 --    94 N    1.455    95 O    0.252
    97   6 C    3.987 --    98 C    1.463    93 C    1.388   117 H    0.964
                            91 C    0.102
    98   6 C    3.985 --    97 C    1.463    90 C    1.383   118 H    0.971
                            92 C    0.102
    99   6 C    3.920 --    89 C    1.313   103 N    1.216   100 C    1.175
   100   6 C    3.963 --   101 C    1.650    99 C    1.175   119 H    0.973
   101   6 C    3.958 --   100 C    1.650   102 C    1.173   120 H    0.974
   102   6 C    3.921 --    62 C    1.366   103 N    1.197   101 C    1.173
   103   7 N    3.345 --    99 C    1.216   102 C    1.197    61 Co   0.638
   104   1 H    0.999 --    62 C    0.969
   105   1 H    0.996 --    64 C    0.974
   106   1 H    1.002 --    65 C    0.973
   107   1 H    1.004 --    70 C    0.971
   108   1 H    1.006 --    71 C    0.964
   109   1 H    1.006 --    76 C    0.964
   110   1 H    1.004 --    77 C    0.971
   111   1 H    1.002 --    79 C    0.973
   112   1 H    1.003 --    80 C    0.971
   113   1 H    1.003 --    85 C    0.971
   114   1 H    1.002 --    86 C    0.973
   115   1 H    1.004 --    91 C    0.971
   116   1 H    1.006 --    92 C    0.964
   117   1 H    1.006 --    97 C    0.964
   118   1 H    1.004 --    98 C    0.971
   119   1 H    1.002 --   100 C    0.973
   120   1 H    0.996 --   101 C    0.974
   121   6 C    3.923 --   122 C    2.573    23 C    1.172
   122   6 C    3.930 --   121 C    2.573   126 C    1.176
   123   6 C    3.931 --   124 C    2.565   147 C    1.186
   124   6 C    3.924 --   123 C    2.565    83 C    1.183
   125  27 Co   3.042 --   152 N    0.631   131 N    0.630   145 N    0.626
                           167 N    0.626
   126   6 C    3.922 --   127 C    1.264   166 C    1.262   122 C    1.176
   127   6 C    3.910 --   126 C    1.264   131 N    1.230   128 C    1.189
   128   6 C    3.959 --   129 C    1.636   127 C    1.189   168 H    0.973
   129   6 C    3.960 --   128 C    1.636   130 C    1.182   169 H    0.973
   130   6 C    3.916 --   132 C    1.322   131 N    1.199   129 C    1.182
   131   7 N    3.338 --   127 C    1.230   130 C    1.199   125 Co   0.630
   132   6 C    3.925 --   130 C    1.322   142 C    1.319   133 C    1.036
   133   6 C    3.985 --   141 C    1.383   134 C    1.383   132 C    1.036
   134   6 C    3.985 --   135 C    1.463   133 C    1.383   170 H    0.971
                           140 C    0.102
   135   6 C    3.987 --   134 C    1.463   136 C    1.389   171 H    0.964
                           141 C    0.102
   136   6 C    3.942 --   140 C    1.389   135 C    1.389   137 N    0.918
   137   7 N    3.867 --   138 O    1.457   139 O    1.456   136 C    0.918
   138   8 O    1.832 --   137 N    1.457   139 O    0.253
   139   8 O    1.832 --   137 N    1.456   138 O    0.253
   140   6 C    3.987 --   141 C    1.462   136 C    1.389   172 H    0.964
                           134 C    0.102
   141   6 C    3.986 --   140 C    1.462   133 C    1.383   173 H    0.971
                           135 C    0.102
   142   6 C    3.916 --   132 C    1.319   145 N    1.199   143 C    1.184
   143   6 C    3.959 --   144 C    1.632   142 C    1.184   174 H    0.973
   144   6 C    3.961 --   143 C    1.632   146 C    1.192   175 H    0.971
   145   7 N    3.339 --   146 C    1.231   142 C    1.199   125 Co   0.626
   146   6 C    3.908 --   147 C    1.258   145 N    1.231   144 C    1.192
   147   6 C    3.923 --   148 C    1.260   146 C    1.258   123 C    1.186
   148   6 C    3.907 --   147 C    1.260   152 N    1.231   149 C    1.191
   149   6 C    3.961 --   150 C    1.634   148 C    1.191   176 H    0.971
   150   6 C    3.959 --   149 C    1.634   151 C    1.183   177 H    0.973
   151   6 C    3.916 --   153 C    1.321   152 N    1.198   150 C    1.183
   152   7 N    3.339 --   148 C    1.231   151 C    1.198   125 Co   0.631
   153   6 C    3.925 --   151 C    1.321   163 C    1.320   154 C    1.036
   154   6 C    3.985 --   162 C    1.384   155 C    1.383   153 C    1.036
   155   6 C    3.984 --   156 C    1.463   154 C    1.383   178 H    0.971
                           161 C    0.102
   156   6 C    3.987 --   155 C    1.463   157 C    1.389   179 H    0.964
                           162 C    0.102
   157   6 C    3.942 --   161 C    1.389   156 C    1.389   158 N    0.918
   158   7 N    3.867 --   160 O    1.457   159 O    1.456   157 C    0.918
   159   8 O    1.832 --   158 N    1.456   160 O    0.253
   160   8 O    1.832 --   158 N    1.457   159 O    0.253
   161   6 C    3.987 --   162 C    1.462   157 C    1.389   180 H    0.964
                           155 C    0.102
   162   6 C    3.986 --   161 C    1.462   154 C    1.384   181 H    0.971
                           156 C    0.102
   163   6 C    3.916 --   153 C    1.320   167 N    1.200   164 C    1.183
   164   6 C    3.960 --   165 C    1.634   163 C    1.183   182 H    0.973
   165   6 C    3.959 --   164 C    1.634   166 C    1.191   183 H    0.973
   166   6 C    3.910 --   126 C    1.262   167 N    1.231   165 C    1.191
   167   7 N    3.339 --   166 C    1.231   163 C    1.200   125 Co   0.626
   168   1 H    1.002 --   128 C    0.973
   169   1 H    1.002 --   129 C    0.973
   170   1 H    1.003 --   134 C    0.971
   171   1 H    1.006 --   135 C    0.964
   172   1 H    1.006 --   140 C    0.964
   173   1 H    1.004 --   141 C    0.971
   174   1 H    1.002 --   143 C    0.973
   175   1 H    1.003 --   144 C    0.971
   176   1 H    1.003 --   149 C    0.971
   177   1 H    1.002 --   150 C    0.973
   178   1 H    1.004 --   155 C    0.971
   179   1 H    1.006 --   156 C    0.964
   180   1 H    1.006 --   161 C    0.964
   181   1 H    1.004 --   162 C    0.971
   182   1 H    1.002 --   164 C    0.973
   183   1 H    1.002 --   165 C    0.973
 ---------------------------------------------------------------------------

           -------------------------------------------------
          | TOTAL ENERGY             -361.966110258169 Eh   |
          | GRADIENT NORM               0.000526380965 Eh/α |
          | HOMO-LUMO GAP               0.006666348747 eV   |
           -------------------------------------------------

 * finished run on 2022/07/30 at 01:11:28.744
