   * xtb version 6.5.1 (b24c23e) compiled by 'conda@728c89f4b128' on 2022-07-12
          program call               : xtb PhNH2_C8_2.xyz --gfn 1 --opt -T 48

   ID    Z sym.   atoms
    1    6 C      1-5, 7-11, 13-17, 19-24, 26-30, 32-37, 62-66, 68-72, 74-78,
                  80-85, 87-91, 93-98, 123-130
    2    7 N      6, 12, 18, 25, 31, 38, 67, 73, 79, 86, 92, 99
    3    1 H      39-61, 100-122
########################################################################
[WARNING] Please study the warnings concerning your input carefully
-1- prog_main_parseArguments: Unknown option '-T' provided
########################################################################

          :  Hamiltonian                  GFN1-xTB          :
 * total energy  :  -213.6701197 Eh     change       -0.5810648E-08 Eh
 * total energy  :  -214.7826264 Eh     change       -0.1112507E+01 Eh
 * total energy  :  -214.9557501 Eh     change       -0.1731237E+00 Eh
 * total energy  :  -215.0288476 Eh     change       -0.7309743E-01 Eh
 * total energy  :  -215.0590135 Eh     change       -0.3016594E-01 Eh
 * total energy  :  -215.0750316 Eh     change       -0.1601805E-01 Eh
 * total energy  :  -215.0845713 Eh     change       -0.9539769E-02 Eh
 * total energy  :  -215.0899343 Eh     change       -0.5362941E-02 Eh
 * total energy  :  -215.0937678 Eh     change       -0.3833566E-02 Eh
 * total energy  :  -215.0964581 Eh     change       -0.2690291E-02 Eh
 * total energy  :  -215.1141940 Eh     change       -0.1993299E-04 Eh
 * total energy  :  -215.1142121 Eh     change       -0.1807274E-04 Eh
 * total energy  :  -215.1142323 Eh     change       -0.2023591E-04 Eh
 * total energy  :  -215.1142521 Eh     change       -0.1980018E-04 Eh
 * total energy  :  -215.1142656 Eh     change       -0.1348836E-04 Eh
 * total energy  :  -215.1142747 Eh     change       -0.9056856E-05 Eh
 * total energy  :  -215.1142821 Eh     change       -0.7449932E-05 Eh
 * total energy  :  -215.1142875 Eh     change       -0.5356534E-05 Eh
 * total energy  :  -215.1142908 Eh     change       -0.3358968E-05 Eh
   *** GEOMETRY OPTIMIZATION CONVERGED AFTER 61 ITERATIONS ***

 final structure:
================
130
 xtb: 6.5.1 (b24c23e)
C            9.50389149509828       -0.09286837186120        0.08183623584597
C           10.11686924789330       -0.97294445600101        0.96484002216504
C            9.46887626367005       -1.89148687821268        1.83694788766622
C           10.43372799037941       -2.55650433964716        2.54086980282153
C           11.70187472650409       -2.05685904274480        2.12997391758344
N           11.46020722158949       -1.11391552672838        1.17127156781786
C           12.96662521416990       -2.44526705574420        2.58918520877227
C           13.00613461935965       -3.46104423208044        3.66699285488703
C           13.67350085215617       -4.67392556034279        3.47703894168863
C           13.71571010045278       -5.62562550127165        4.48004247548652
C           13.09995149846807       -5.37666023987820        5.70941642549375
N           13.10955875402678       -6.34049066580187        6.70257730618537
C           12.42442521996763       -4.16936035313281        5.90529661709525
C           12.37893352792125       -3.22692497205287        4.89324391623473
C           14.17746431494677       -1.94246529894230        2.10566018919091
C           15.47639809834779       -2.30095206501290        2.64526841493094
C           16.39208051626162       -1.62505284826513        1.92028802168476
N           14.32562181295327       -1.04751278719043        1.08958997719885
C           15.65091580001340       -0.84683459315311        0.94747214408664
C           16.28355238429028       -0.01682564094189       -0.00149133521503
C           15.64418098681529        0.81247771242790       -0.94308677801788
C           16.28505415839829        1.61996478497119       -1.91909465493673
C           15.31590756037142        2.28262914230463       -2.62083439020997
C           14.05242642241947        1.90707278714415       -2.08685636039080
N           14.30297794220247        1.00859459317109       -1.08272242061723
C           12.78909745148206        2.34173516009204       -2.50414081558107
C           12.75116279012037        3.35609734971498       -3.58236811054215
C           12.08068312255299        3.09809348597834       -4.78096711063122
C           12.04530097077227        4.04160075664188       -5.79203579556917
C           12.67143493969526        5.27878836255801       -5.61941145209228
N           12.67134352718449        6.20999433234641       -6.64304885341408
C           13.34820446203252        5.54336116747282       -4.42591219955345
C           13.38663011003348        4.59052202298470       -3.42365146057373
C           11.57636863387236        1.88553116420263       -1.97355424370489
C           10.27002025603198        2.38862657252195       -2.36791971905553
C            9.36117670038281        1.70143974743971       -1.64634992712006
C           10.11137423870037        0.78957050883172       -0.80179818805769
N           11.44205266690643        0.93575031525686       -1.01795978726397
H            8.41846304899447       -0.10191689634873        0.09144958538559
H            8.40048328380317       -2.02282758672026        1.90262763280806
H           10.28518136484444       -3.33307868881849        3.27354155303167
H           12.18398155021381       -0.59936561622615        0.68065798550374
H           14.14672637342163       -4.87806331072018        2.52285473853110
H           14.22852500749065       -6.56718746555813        4.31667168375176
H           12.95425822290717       -5.99261381433159        7.63524199596857
H           13.85903865211352       -7.01071548889563        6.63781767791194
H           11.94119886703931       -3.97179561707920        6.85594983088657
H           11.87119659280700       -2.28340374101850        5.06188117110922
H           15.64387363084045       -2.96546896972961        3.47736575759148
H           17.46560707108408       -1.62812800412259        2.02164615718811
H           17.35208618118755        1.67489187681053       -2.06325571571667
H           15.46096134229961        2.96244068161959       -3.44449174360427
H           13.58267818145025        0.55094729482034       -0.53374624879516
H           11.60160829732786        2.13628628329192       -4.92763061758575
H           11.53115442252707        3.82475421771440       -6.72199529018789
H           11.92259195240099        6.11073641622898       -7.30978038337061
H           12.83681176357582        7.16099113457336       -6.35462837803960
H           13.83889506782811        6.50052193995274       -4.28697590220194
H           13.89612526238434        4.81256304629136       -2.49223639321757
H           10.09596934280082        3.17218214411633       -3.08784409198670
H            8.28584895893541        1.78901546030081       -1.65500094737112
C           34.80416912597192        0.05423696859398       -0.11292888942052
C           34.19076366581012        0.70622496138656       -1.17529188572116
C           34.83825250458690        1.33626197562188       -2.27435991717238
C           33.87333173776980        1.86953809323165       -3.08260495765790
C           32.60570570641326        1.59284239794063       -2.49674611535954
N           32.84759117403740        0.87897463981309       -1.35722764458387
C           31.34112814929979        1.95815511974774       -2.97530246729510
C           31.30182549876680        2.77652905556793       -4.20952393834295
C           30.62210840722331        2.32311433273535       -5.34311103664705
C           30.58054666077378        3.08391973855352       -6.49765523289313
C           31.20982922700270        4.33083597950440       -6.53901997376956
N           31.20123038225173        5.07871257141456       -7.70350277207599
C           31.89761333466313        4.78877798158018       -5.41230667227712
C           31.94197783965669        4.01719826970569       -4.26465856929669
C           30.13077333041050        1.60893321205086       -2.37034967371780
C           28.83220631278495        2.06052755506041       -2.83579019331065
C           27.91700782477086        1.51024603789790       -2.01080860008151
N           29.98306416241601        0.82198595759847       -1.26838255666072
C           28.65823075620673        0.73386007049336       -1.03655305881534
C           28.02587050781095       -0.00420740585243       -0.01427429679895
C           28.66579956838815       -0.73623313524778        1.00454302034003
C           28.02522419252486       -1.50782013213340        2.00929968306441
C           28.99438603521626       -2.03975183625018        2.81468850785011
C           30.25747018517417       -1.59967567799034        2.33156828795661
N           30.00682264210032       -0.82497850775758        1.22910339741406
C           31.52069864880029       -1.90101236560162        2.85385005661343
C           31.55876745998984       -2.71714389242715        4.08863868917606
C           32.24172318553634       -3.93602538785897        4.11734350981362
C           32.27733370227913       -4.70319995918457        5.26789616836900
C           31.63814744936417       -4.25821388654613        6.42799895404320
N           31.63810262929204       -5.04110671569375        7.56898714585287
C           30.94884774739717       -3.04298544165223        6.40692193840491
C           30.91092739276457       -2.28622138999979        5.24946403082139
C           32.73302639512383       -1.48446680628740        2.29050585383827
C           34.03932551013310       -1.74543888053332        2.87411554121395
C           34.94769374803710       -1.20216805026569        2.03824605197545
C           34.19719502262805       -0.59713034471702        0.95284285347544
N           32.86676262729561       -0.77642909562371        1.14417401000384
H           35.88959474927648        0.06082753798645       -0.12486052669519
H           35.90634683837133        1.36446184771590       -2.42067637225537
H           34.02144559556207        2.39917091785722       -4.00968057607635
H           32.12394715808173        0.52520100560846       -0.74039287286941
H           30.13871270678461        1.35257456064263       -5.32200687126055
H           30.05788432844037        2.71639960617841       -7.37397058679589
H           31.36919791604822        6.06412405329897       -7.57807674243794
H           30.44502640528137        4.87218939535452       -8.33641316045631
H           32.39123729200458        5.75411164790769       -5.43931659281006
H           32.45918919531352        4.39072260581486       -3.38749492067886
H           28.66458821811930        2.72281464072822       -3.66963753509177
H           26.84389095242468        1.61346504362581       -2.03255143459882
H           26.95844363439226       -1.63936155404935        2.09311732875463
H           28.84941065307418       -2.69053308086613        3.66146340073931
H           30.72706711657837       -0.39100422316704        0.66117884387210
H           32.73047898916285       -4.29460126942190        3.21811358760185
H           32.80168890880238       -5.65249892518213        5.27387462350311
H           32.39388397461206       -5.70422028842617        7.63150002287202
H           31.45916816166849       -4.54475274001771        8.42713012121164
H           30.44795750504536       -2.69351485233175        7.30317114133974
H           30.39183954847031       -1.33384483335816        5.24871021748366
H           34.21378771059064       -2.26061711027115        3.80507985753896
H           36.02282714513091       -1.18655794744406        2.12714932060092
C           17.68813084095384       -0.00743545427474       -0.01615837051590
C           18.91320876959393       -0.00456001025741       -0.02205073979850
C           20.25516551779976       -0.00600263179376       -0.02054328801522
C           21.48620030044847       -0.01483990769786       -0.01122999854225
C           22.82341609258056       -0.01809359310232       -0.00401685946875
C           24.05442707135835       -0.02325797303380        0.00478568300613
C           25.39634869017697       -0.02151949245017        0.00524662898514
C           26.62137252603540       -0.01645181574405       -0.00016395922213

          :  Hamiltonian                  GFN1-xTB          :
         :: total energy            -215.114290836453 Eh    ::
         :: gradient norm              0.000467208441 Eh/a0 ::
         :: HOMO-LUMO gap              0.976662755791 eV    ::
         :: SCC energy              -218.776613329382 Eh    ::
         :: repulsion energy           3.768332747321 Eh    ::

    * Orbital Energies and Occupations

         #    Occupation            Energy/Eh            Energy/eV
      -------------------------------------------------------------
         1        2.0000           -0.7961622             -21.6647
       ...           ...                  ...                  ...
       185        2.0000           -0.4091327             -11.1331
       186        2.0000           -0.4073895             -11.0856
       187        2.0000           -0.4073085             -11.0834
       188        2.0000           -0.4053676             -11.0306
       189        2.0000           -0.4000488             -10.8859
       190        2.0000           -0.3984609             -10.8427
       191        2.0000           -0.3981492             -10.8342
       192        2.0000           -0.3965106             -10.7896
       193        2.0000           -0.3963253             -10.7846
       194        2.0000           -0.3909352             -10.6379
       195        2.0000           -0.3902600             -10.6195
       196        2.0000           -0.3764636             -10.2441
       197        2.0000           -0.3692732             -10.0484 (HOMO)
       198                         -0.3333815              -9.0718 (LUMO)
       199                         -0.3240286              -8.8173
       200                         -0.3223692              -8.7721
       201                         -0.3222141              -8.7679
       202                         -0.2954437              -8.0394
       203                         -0.2923767              -7.9560
       204                         -0.2867473              -7.8028
       205                         -0.2674461              -7.2776
       206                         -0.2570715              -6.9953
       207                         -0.2570556              -6.9948
       208                         -0.2567581              -6.9867
       ...                                ...                  ...
       428                          1.6135359              43.9065
      -------------------------------------------------------------
                  HL-Gap            0.0358917 Eh            0.9767 eV

Wiberg/Mayer (AO) data.
largest (>0.10) Wiberg bond orders for each atom

     #   Z sym  total        # sym  WBO       # sym  WBO       # sym  WBO
 ---------------------------------------------------------------------------
     1   6 C    3.922 --    37 C    1.366     2 C    1.345    39 H    0.971
     2   6 C    3.903 --     1 C    1.345     3 C    1.232     6 N    1.169
     3   6 C    3.951 --     4 C    1.591     2 C    1.232    40 H    0.977
     4   6 C    3.959 --     3 C    1.591     5 C    1.238    41 H    0.974
     5   6 C    3.894 --     7 C    1.299     4 C    1.238     6 N    1.177
     6   7 N    3.469 --     5 C    1.177     2 C    1.169    42 H    0.873
     7   6 C    3.939 --    15 C    1.334     5 C    1.299     8 C    1.035
     8   6 C    3.988 --    14 C    1.381     9 C    1.379     7 C    1.035
     9   6 C    3.987 --    10 C    1.470     8 C    1.379    43 H    0.972
    10   6 C    3.990 --     9 C    1.470    11 C    1.353    44 H    0.972
    11   6 C    3.951 --    13 C    1.354    10 C    1.353    12 N    1.116
    12   7 N    3.134 --    11 C    1.116    45 H    0.933    46 H    0.933
    13   6 C    3.989 --    14 C    1.468    11 C    1.354    47 H    0.972
    14   6 C    3.987 --    13 C    1.468     8 C    1.381    48 H    0.973
    15   6 C    3.913 --     7 C    1.334    18 N    1.285    16 C    1.127
    16   6 C    3.966 --    17 C    1.707    15 C    1.127    49 H    0.973
    17   6 C    3.963 --    16 C    1.707    19 C    1.130    50 H    0.974
    18   7 N    3.021 --    19 C    1.346    15 C    1.285
    19   6 C    3.908 --    18 N    1.346    20 C    1.250    17 C    1.130
    20   6 C    3.935 --    19 C    1.250    21 C    1.249   123 C    1.195
    21   6 C    3.885 --    22 C    1.251    20 C    1.249    25 N    1.190
    22   6 C    3.957 --    23 C    1.580    21 C    1.251    51 H    0.975
    23   6 C    3.955 --    22 C    1.580    24 C    1.243    52 H    0.974
    24   6 C    3.897 --    26 C    1.308    23 C    1.243    25 N    1.164
    25   7 N    3.473 --    21 C    1.190    24 C    1.164    53 H    0.873
    26   6 C    3.925 --    34 C    1.316    24 C    1.308    27 C    1.038
    27   6 C    3.988 --    33 C    1.379    28 C    1.379    26 C    1.038
    28   6 C    3.985 --    29 C    1.470    27 C    1.379    54 H    0.972
    29   6 C    3.989 --    28 C    1.470    30 C    1.353    55 H    0.972
    30   6 C    3.951 --    32 C    1.353    29 C    1.353    31 N    1.116
    31   7 N    3.134 --    30 C    1.116    57 H    0.933    56 H    0.933
    32   6 C    3.989 --    33 C    1.469    30 C    1.353    58 H    0.972
    33   6 C    3.986 --    32 C    1.469    27 C    1.379    59 H    0.973
    34   6 C    3.927 --    38 N    1.320    26 C    1.316    35 C    1.120
    35   6 C    3.967 --    36 C    1.719    34 C    1.120    60 H    0.974
    36   6 C    3.966 --    35 C    1.719    37 C    1.119    61 H    0.976
    37   6 C    3.930 --     1 C    1.366    38 N    1.298    36 C    1.119
    38   7 N    3.010 --    34 C    1.320    37 C    1.298
    39   1 H    1.002 --     1 C    0.971
    40   1 H    0.998 --     3 C    0.977
    41   1 H    1.005 --     4 C    0.974
    42   1 H    0.986 --     6 N    0.873
    43   1 H    1.005 --     9 C    0.972
    44   1 H    0.998 --    10 C    0.972
    45   1 H    0.961 --    12 N    0.933
    46   1 H    0.960 --    12 N    0.933
    47   1 H    0.999 --    13 C    0.972
    48   1 H    1.005 --    14 C    0.973
    49   1 H    1.006 --    16 C    0.973
    50   1 H    1.003 --    17 C    0.974
    51   1 H    1.002 --    22 C    0.975
    52   1 H    1.005 --    23 C    0.974
    53   1 H    0.987 --    25 N    0.873
    54   1 H    1.005 --    28 C    0.972
    55   1 H    0.999 --    29 C    0.972
    56   1 H    0.960 --    31 N    0.933
    57   1 H    0.960 --    31 N    0.933
    58   1 H    0.998 --    32 C    0.972
    59   1 H    1.005 --    33 C    0.973
    60   1 H    1.006 --    35 C    0.974
    61   1 H    0.999 --    36 C    0.976
    62   6 C    3.922 --    98 C    1.366    63 C    1.345   100 H    0.971
    63   6 C    3.903 --    62 C    1.345    64 C    1.232    67 N    1.169
    64   6 C    3.951 --    65 C    1.591    63 C    1.232   101 H    0.977
    65   6 C    3.959 --    64 C    1.591    66 C    1.238   102 H    0.974
    66   6 C    3.894 --    68 C    1.298    65 C    1.238    67 N    1.177
    67   7 N    3.469 --    66 C    1.177    63 C    1.169   103 H    0.873
    68   6 C    3.939 --    76 C    1.334    66 C    1.298    69 C    1.036
    69   6 C    3.988 --    75 C    1.381    70 C    1.379    68 C    1.036
    70   6 C    3.987 --    71 C    1.470    69 C    1.379   104 H    0.972
    71   6 C    3.990 --    70 C    1.470    72 C    1.353   105 H    0.972
    72   6 C    3.951 --    74 C    1.354    71 C    1.353    73 N    1.116
    73   7 N    3.134 --    72 C    1.116   106 H    0.933   107 H    0.933
    74   6 C    3.989 --    75 C    1.469    72 C    1.354   108 H    0.972
    75   6 C    3.987 --    74 C    1.469    69 C    1.381   109 H    0.973
    76   6 C    3.913 --    68 C    1.334    79 N    1.285    77 C    1.127
    77   6 C    3.966 --    78 C    1.707    76 C    1.127   110 H    0.973
    78   6 C    3.963 --    77 C    1.707    80 C    1.130   111 H    0.974
    79   7 N    3.020 --    80 C    1.346    76 C    1.285
    80   6 C    3.908 --    79 N    1.346    81 C    1.250    78 C    1.130
    81   6 C    3.935 --    80 C    1.250    82 C    1.249   130 C    1.195
    82   6 C    3.885 --    83 C    1.251    81 C    1.249    86 N    1.190
    83   6 C    3.957 --    84 C    1.580    82 C    1.251   112 H    0.975
    84   6 C    3.955 --    83 C    1.580    85 C    1.243   113 H    0.974
    85   6 C    3.897 --    87 C    1.307    84 C    1.243    86 N    1.164
    86   7 N    3.473 --    82 C    1.190    85 C    1.164   114 H    0.873
    87   6 C    3.925 --    95 C    1.316    85 C    1.307    88 C    1.038
    88   6 C    3.988 --    94 C    1.379    89 C    1.378    87 C    1.038
    89   6 C    3.985 --    90 C    1.470    88 C    1.378   115 H    0.972
    90   6 C    3.989 --    89 C    1.470    91 C    1.353   116 H    0.972
    91   6 C    3.950 --    93 C    1.353    90 C    1.353    92 N    1.117
    92   7 N    3.134 --    91 C    1.117   118 H    0.933   117 H    0.933
    93   6 C    3.989 --    94 C    1.469    91 C    1.353   119 H    0.972
    94   6 C    3.986 --    93 C    1.469    88 C    1.379   120 H    0.973
    95   6 C    3.927 --    99 N    1.320    87 C    1.316    96 C    1.120
    96   6 C    3.967 --    97 C    1.718    95 C    1.120   121 H    0.973
    97   6 C    3.966 --    96 C    1.718    98 C    1.119   122 H    0.976
    98   6 C    3.930 --    62 C    1.366    99 N    1.298    97 C    1.119
    99   7 N    3.010 --    95 C    1.320    98 C    1.298
   100   1 H    1.002 --    62 C    0.971
   101   1 H    0.998 --    64 C    0.977
   102   1 H    1.005 --    65 C    0.974
   103   1 H    0.986 --    67 N    0.873
   104   1 H    1.005 --    70 C    0.972
   105   1 H    0.998 --    71 C    0.972
   106   1 H    0.961 --    73 N    0.933
   107   1 H    0.960 --    73 N    0.933
   108   1 H    0.999 --    74 C    0.972
   109   1 H    1.005 --    75 C    0.973
   110   1 H    1.006 --    77 C    0.973
   111   1 H    1.003 --    78 C    0.974
   112   1 H    1.002 --    83 C    0.975
   113   1 H    1.005 --    84 C    0.974
   114   1 H    0.987 --    86 N    0.873
   115   1 H    1.005 --    89 C    0.972
   116   1 H    0.999 --    90 C    0.972
   117   1 H    0.960 --    92 N    0.933
   118   1 H    0.960 --    92 N    0.933
   119   1 H    0.998 --    93 C    0.972
   120   1 H    1.005 --    94 C    0.973
   121   1 H    1.006 --    96 C    0.973
   122   1 H    0.999 --    97 C    0.976
   123   6 C    3.876 --   124 C    2.433    20 C    1.195   126 C    0.186
   124   6 C    3.931 --   123 C    2.433   125 C    1.348
   125   6 C    3.892 --   126 C    2.331   124 C    1.348   128 C    0.182
   126   6 C    3.924 --   125 C    2.331   127 C    1.372   123 C    0.186
   127   6 C    3.924 --   128 C    2.331   126 C    1.372   130 C    0.186
   128   6 C    3.892 --   127 C    2.331   129 C    1.348   125 C    0.182
   129   6 C    3.931 --   130 C    2.433   128 C    1.348
   130   6 C    3.876 --   129 C    2.433    81 C    1.195   127 C    0.186
 ---------------------------------------------------------------------------

           -------------------------------------------------
          | TOTAL ENERGY             -215.114290836453 Eh   |
          | GRADIENT NORM               0.000467208441 Eh/α |
          | HOMO-LUMO GAP               0.976662755791 eV   |
           -------------------------------------------------

 * finished run on 2022/07/29 at 22:19:31.053
