   * xtb version 6.5.1 (b24c23e) compiled by 'conda@728c89f4b128' on 2022-07-12
          program call               : xtb Fe_PhNH2_C2_3.xyz --gfn 1 --opt -T 48

   ID    Z sym.   atoms
    1   26 Fe     1, 61, 125
    2    6 C      2-6, 8-12, 14-18, 20-25, 27-31, 33-38, 62-66, 68-72, 74-78,
                  80-85, 87-91, 93-98, 121-124, 126-130, 132-136, 138-142,
                  144-149, 151-155, 157-162
    3    7 N      7, 13, 19, 26, 32, 39, 67, 73, 79, 86, 92, 99, 131, 137,
                  143, 150, 156, 163
    4    1 H      40-60, 100-120, 164-183
########################################################################
[WARNING] Please study the warnings concerning your input carefully
-1- prog_main_parseArguments: Unknown option '-T' provided
########################################################################

          :  Hamiltonian                  GFN1-xTB          :
 * total energy  :  -310.6867283 Eh     change       -0.1147669E-09 Eh
 * total energy  :  -311.0718878 Eh     change       -0.3851594E+00 Eh
 * total energy  :  -311.2084825 Eh     change       -0.1365947E+00 Eh
 * total energy  :  -311.2701041 Eh     change       -0.6162161E-01 Eh
 * total energy  :  -311.2922557 Eh     change       -0.2215164E-01 Eh
 * total energy  :  -311.3061834 Eh     change       -0.1392771E-01 Eh
 * total energy  :  -311.3141907 Eh     change       -0.8007287E-02 Eh
 * total energy  :  -311.3198142 Eh     change       -0.5623448E-02 Eh
 * total energy  :  -311.3234359 Eh     change       -0.3621763E-02 Eh
 * total energy  :  -311.3258569 Eh     change       -0.2420990E-02 Eh
 * total energy  :  -311.3395863 Eh     change       -0.1450363E-04 Eh
 * total energy  :  -311.3396007 Eh     change       -0.1434775E-04 Eh
 * total energy  :  -311.3396127 Eh     change       -0.1201756E-04 Eh
 * total energy  :  -311.3396222 Eh     change       -0.9439600E-05 Eh
 * total energy  :  -311.3396302 Eh     change       -0.8052902E-05 Eh
 * total energy  :  -311.3396383 Eh     change       -0.8091808E-05 Eh
 * total energy  :  -311.3396467 Eh     change       -0.8421896E-05 Eh
 * total energy  :  -311.3396551 Eh     change       -0.8338289E-05 Eh
 * total energy  :  -311.3396579 Eh     change       -0.2851540E-05 Eh
   *** GEOMETRY OPTIMIZATION CONVERGED AFTER 68 ITERATIONS ***

 final structure:
================
183
 xtb: 6.5.1 (b24c23e)
Fe          34.27276519245815        0.02892042584795        0.02150421828275
C           30.89330867076586        0.02371733210318        0.05262969573272
C           31.53254595212485        1.03032389887087       -0.64344370548692
C           30.85582076353818        2.04605709743571       -1.39112827515814
C           31.80276133351687        2.92798744042324       -1.79316002702694
C           33.05479712192431        2.45844140100863       -1.27417661107675
N           32.88247228448736        1.26653622770921       -0.62560812041444
C           34.25117137669663        3.17052389678733       -1.33819416691146
C           34.24253684876756        4.52899990571147       -1.91978494457372
C           35.07889004550672        4.85064769790423       -2.99277475681312
C           35.07226194634069        6.11954550018998       -3.54288278202447
C           34.23621970977871        7.10802786214853       -3.01631305087259
N           34.19918557457812        8.36733260635209       -3.58679231968635
C           33.39514420311181        6.79474982196037       -1.94487963931829
C           33.39939287191913        5.52002083178872       -1.40859848524390
C           35.45150883736927        2.65236187691196       -0.86574822862538
C           36.68547165805378        3.37854218733380       -0.82513946421957
C           37.64392060399851        2.50017859059158       -0.43957856340841
N           35.65111426387195        1.35887719114689       -0.44714038856752
C           36.99387780821934        1.24386782490027       -0.24093372016268
C           37.67423567496743        0.04618207636224        0.02005546173053
C           37.00591065813396       -1.16127728865778        0.26896609429314
C           37.66852471674691       -2.41405892807441        0.44760977081452
C           36.71798298378263       -3.30920885565993        0.81386149731202
C           35.47727680113326       -2.59553889991262        0.86798187275917
N           35.66425441009869       -1.29334656503336        0.46963692000532
C           34.28515665419601       -3.12775411547647        1.34485723227941
C           34.28772245025821       -4.49472875130825        1.90601343744119
C           35.13946140731981       -4.83219855580619        2.96188626098332
C           35.14063507646885       -6.10921332877048        3.49293219206554
C           34.29672947025738       -7.08976973771865        2.96410097633626
N           34.26759909658310       -8.35721946132674        3.51675581430588
C           33.43999436775798       -6.76062531414082        1.90997326014554
C           33.43667766934588       -5.47801478642094        1.39285897070878
C           33.08582063319228       -2.41812292137873        1.31125952983475
C           31.84608293221903       -2.89456728082241        1.85277022330865
C           30.89013642178388       -2.00787901267147        1.48378085260275
C           31.54901436646030       -0.98440167868749        0.73071821835892
N           32.89847420024826       -1.21963850840187        0.67975535242906
H           29.80905820490054        0.02312273502649        0.06477518994613
H           29.79323790148196        2.06593421414741       -1.57509321132576
H           31.67554247913191        3.81618645403031       -2.39065659076512
H           35.72289543148699        4.08659060723166       -3.41424026016369
H           35.71620409170232        6.35248977267624       -4.38389766746174
H           35.02347548076900        8.62857411795575       -4.10355028512446
H           33.84063591416310        9.09670062434315       -2.99159662540233
H           32.74297897735745        7.55725961510481       -1.53312742052091
H           32.75929345170764        5.29185335988160       -0.56340535772063
H           36.79524764515052        4.42653565865080       -1.05212282699241
H           38.69701967868680        2.67775508872233       -0.29459059919141
H           38.72340850784323       -2.57869330175109        0.30019182518120
H           36.83769194113320       -4.36028612794501        1.02069857846929
H           35.78906401554467       -4.07439044528983        3.38600224564512
H           35.79644161651124       -6.35463506648899        4.32113243866717
H           35.09772611585328       -8.62418454775656        4.02107869020314
H           33.90374260873712       -9.07879309970950        2.91536834355992
H           32.78129832859467       -7.51671716612024        1.49679918734881
H           32.78365518385795       -5.23687382463775        0.56125060180125
H           31.73297816397784       -3.78952371292711        2.44299389191254
H           29.83215568421518       -2.03020619282557        1.69230338607598
Fe          55.96112615891143       -0.03772903246602        0.07966524596811
C           59.34488807501354        0.00501772417559        0.16076574652579
C           58.70416925939256       -1.14099614582333        0.58630401164461
C           59.38664822073769       -2.32269470132044        1.01800429819903
C           58.43563620080146       -3.17939252228593        1.46121290153157
C           57.17471547472984       -2.51108559341355        1.31617350808823
N           57.34933662566682       -1.28564681958922        0.73338965291614
C           55.96313111842883       -3.02004185428687        1.77790115560299
C           55.96669025606672       -4.29933619521481        2.52020995482928
C           55.21109453660656       -5.38706474511512        2.07430443793594
C           55.21479417382977       -6.58502933087889        2.76603091250900
C           55.96549796130084       -6.71639153019301        3.93742445668910
N           56.00183628586911       -7.92380186458550        4.61163938656268
C           56.72571035277265       -5.63424835220629        4.38923053605753
C           56.72552362579685       -4.44384810720633        3.68506143868874
C           54.75402517545031       -2.36438566972045        1.58188386121552
C           53.50141360911115       -2.81547412726560        2.11101705020031
C           52.54950926378472       -1.97863951671593        1.63076698992715
N           54.56912592901082       -1.23199439875737        0.82529258000850
C           53.22294222943000       -1.01644320617114        0.81673835360481
C           52.55591320990548       -0.03922939706052        0.06777445117032
C           53.22673601345191        0.92366974731204       -0.69696050667041
C           52.55898881592916        1.85885735598866       -1.54624053260811
C           53.51588619155507        2.67051318882689       -2.05882687566813
C           54.76455405435230        2.23860517526748       -1.50491995644610
N           54.57341014143031        1.13306128395469       -0.71016680632323
C           55.97156186355828        2.89922487471683       -1.69476763650390
C           55.98565973828607        4.14986936030468       -2.48419484105174
C           55.20402080657271        5.24542632409309       -2.10782426096972
C           55.21860980352562        6.41481624171962       -2.84674552475069
C           56.00771809612575        6.50859024666263       -3.99626059525333
N           56.05297547627988        7.68847473922234       -4.71756437751128
C           56.79658558950342        5.41960672204437       -4.37679318799141
C           56.78498528870630        4.25831333020056       -3.62569102314838
C           57.17288226622809        2.42982770468008       -1.16797420217281
C           58.42168873789152        3.12831680681979       -1.26766067578861
C           59.36856546248832        2.31589277114220       -0.74024816556039
C           58.69581729100096        1.12716459440328       -0.31216663590172
N           57.34758227035997        1.22820273764240       -0.53854230074751
H           60.42869936166004        0.02110065903027        0.19101969097797
H           60.45537367120502       -2.46220377261303        0.97701390057159
H           58.56508280024597       -4.17727507270165        1.84781952286649
H           54.63347371309388       -5.29645191026993        1.16090877773446
H           54.63453213694283       -7.42615794705049        2.40259797278105
H           55.21463818453284       -8.53035031400385        4.44700806488494
H           56.27865334083128       -7.86575347043749        5.57847978241876
H           57.31192093386660       -5.73087066714401        5.29658913463021
H           57.30238172118726       -3.60260601884296        4.05343692947308
H           53.37582933071008       -3.65684995111102        2.77292164191899
H           51.48635412116623       -1.99779379584820        1.80839510605304
H           51.49663983517527        1.87470485661967       -1.72876631357217
H           53.39533032018811        3.48440822070850       -2.75510744009348
H           54.59705810105691        5.18491777127878       -1.21111983811388
H           54.61714732929730        7.26265315307321       -2.53736234235497
H           55.25178048270163        8.28883455590690       -4.60557218979387
H           56.36208675084615        7.59393891245182       -5.67174466688054
H           57.41413007338702        5.48782246169966       -5.26575781770486
H           57.38549313211553        3.41103599650418       -3.93823785376683
H           58.54520770188368        4.11619682953419       -1.68105629608100
H           60.42897324915263        2.48780122511840       -0.64392650248968
C           39.07624822372888        0.05178540383611        0.02660223752170
C           40.29597680137910        0.05355510664720        0.03609651547623
C           49.93390582765544       -0.02112216813427        0.07627170177036
C           51.15274617184594       -0.03147737179291        0.07322351845780
Fe          45.11534976893073        0.01562075824860        0.05567816140605
C           41.69793310184744        0.04415987756609        0.03971459927334
C           42.38061347684491        1.13129040946484       -0.52360629529446
C           41.71683496798369        2.25031633976479       -1.11223431748842
C           42.67932793684295        3.14960095946980       -1.43138492282708
C           43.93022260170662        2.56725964956105       -1.04970339605789
N           43.73081834565453        1.31738469475413       -0.51474613467067
C           45.14554405684583        3.24019648770628       -1.10274566207734
C           45.16044139412264        4.63787390692575       -1.59307010292960
C           44.79820940135597        4.93798458079036       -2.90813833715524
C           44.82210016693354        6.24234248954847       -3.36894898737505
C           45.20578317652320        7.28069800938440       -2.51609239985690
N           45.18549956219007        8.59129909659690       -2.95925752535333
C           45.55403747225016        6.98957391937835       -1.19447170621716
C           45.53913650380828        5.68136200993571       -0.74504736349025
C           46.35027401585619        2.66428280372717       -0.71435552819637
C           47.61428811486435        3.33196013498421       -0.79551905276670
C           48.56049747898052        2.41788175741328       -0.46949902325040
N           46.52476115771172        1.35771033134285       -0.32869132961322
C           47.87231471478206        1.19529584618638       -0.20190926775046
C           48.53121508798009       -0.00820696402900        0.08010652157326
C           47.85159639898718       -1.20197333813347        0.35464347915329
C           48.51378773564959       -2.44902542563727        0.56838888972938
C           47.54886871473173       -3.35461053029861        0.86411127323821
C           46.30300737304862       -2.64984391346716        0.84430593521175
N           46.50197317159364       -1.33885797630354        0.48708401055320
C           45.08281271697055       -3.21648942125336        1.19779857075151
C           45.06280484267972       -4.61773670699548        1.66910358191073
C           44.29786768879143       -5.57883420794945        1.00185938827172
C           44.28668166654532       -6.89542571679495        1.42466165176850
C           45.03887168674647       -7.28092251794778        2.53789947430616
N           44.99327041337535       -8.58616733138327        2.99180597378536
C           45.79099436096432       -6.32215346212129        3.22250083612057
C           45.80806740656220       -5.01042421413662        2.78431328508139
C           43.87882963920722       -2.52400574160524        1.12335888229934
C           42.62487727217089       -3.05356539705879        1.56585457966540
C           41.67897948118408       -2.13830987904589        1.24009487282103
C           42.35923545951066       -1.05442584170717        0.60661092092126
N           43.70406175102329       -1.27516992013315        0.57924743290800
H           40.65104896565874        2.33134123492007       -1.24924536789593
H           42.55767652136940        4.12642595523018       -1.86991489206727
H           44.51719928125132        4.13530205406997       -3.58097639290088
H           44.54736324486805        6.46304656912715       -4.39461485123740
H           45.24953654042515        8.70530288608694       -3.95817179214972
H           45.76701001518964        9.22747103566239       -2.43762269588334
H           45.83793285496283        7.79306602012181       -0.52370584879997
H           45.80348609296981        5.46325837332002        0.28380283731008
H           47.75490592273682        4.36093030649067       -1.08336197889302
H           49.62958642279325        2.54620861987058       -0.41978810213795
H           49.57781898838839       -2.60273008427673        0.48939854231500
H           47.66375929704819       -4.40659170991230        1.06826161082504
H           43.72650463713976       -5.29098169049983        0.12620821691648
H           43.69841101781174       -7.63434390645153        0.89160590747648
H           45.77392215337571       -8.87058535401751        3.56125138231377
H           44.71511603056862       -9.26942865564813        2.30597394038615
H           46.36262896821117       -6.61205157169392        4.09736208979684
H           46.38686328458870       -4.27072804683868        3.32642559799234
H           42.49382036806417       -3.99631930815996        2.07140546783138
H           40.61670066296274       -2.17938526130320        1.41666516241154

          :  Hamiltonian                  GFN1-xTB          :
         :: total energy            -311.339657906969 Eh    ::
         :: gradient norm              0.000409645637 Eh/a0 ::
         :: HOMO-LUMO gap              0.042978538502 eV    ::
         :: SCC energy              -316.228512910522 Eh    ::
         :: repulsion energy           5.058453111325 Eh    ::

    * Orbital Energies and Occupations

         #    Occupation            Energy/Eh            Energy/eV
      -------------------------------------------------------------
         1        2.0000           -0.7824039             -21.2903
       ...           ...                  ...                  ...
       276        2.0000           -0.3869165             -10.5285
       277        2.0000           -0.3867430             -10.5238
       278        1.9997           -0.3793257             -10.3220
       279        1.9933           -0.3762703             -10.2388
       280        1.9926           -0.3761787             -10.2363
       281        1.9923           -0.3761345             -10.2351
       282        1.9749           -0.3750101             -10.2045
       283        1.9689           -0.3748021             -10.1989
       284        1.9667           -0.3747353             -10.1971
       285        1.9654           -0.3747004             -10.1961
       286        1.9631           -0.3746359             -10.1944
       287        1.9627           -0.3746276             -10.1941
       288        1.1191           -0.3710890             -10.0978 (HOMO)
       289        0.3884           -0.3695096             -10.0549 (LUMO)
       290        0.3584           -0.3694158             -10.0523
       291        0.3545           -0.3694031             -10.0520
       292                         -0.3341249              -9.0920
       293                         -0.3215896              -8.7509
       294                         -0.3195572              -8.6956
       295                         -0.3173859              -8.6365
       296                         -0.3170484              -8.6273
       297                         -0.3109810              -8.4622
       298                         -0.2918343              -7.9412
       299                         -0.2906358              -7.9086
       ...                                ...                  ...
       623                          1.3428261              36.5402
      -------------------------------------------------------------
                  HL-Gap            0.0015794 Eh            0.0430 eV

Wiberg/Mayer (AO) data.
largest (>0.10) Wiberg bond orders for each atom

     #   Z sym  total        # sym  WBO       # sym  WBO       # sym  WBO
 ---------------------------------------------------------------------------
     1  26 Fe   3.108 --     7 N    0.660    39 N    0.660    26 N    0.653
                            19 N    0.653
     2   6 C    3.913 --    38 C    1.362     3 C    1.361    40 H    0.970
     3   6 C    3.927 --     2 C    1.361     7 N    1.207     4 C    1.176
     4   6 C    3.958 --     5 C    1.645     3 C    1.176    41 H    0.975
     5   6 C    3.963 --     4 C    1.645     6 C    1.178    42 H    0.973
     6   6 C    3.920 --     8 C    1.304     7 N    1.228     5 C    1.178
     7   7 N    3.370 --     6 C    1.228     3 C    1.207     1 Fe   0.660
     8   6 C    3.916 --    16 C    1.327     6 C    1.304     9 C    1.043
     9   6 C    3.985 --    10 C    1.375    15 C    1.375     8 C    1.043
    10   6 C    3.984 --    11 C    1.472     9 C    1.375    43 H    0.972
    11   6 C    3.988 --    10 C    1.472    12 C    1.351    44 H    0.972
    12   6 C    3.948 --    11 C    1.351    14 C    1.351    13 N    1.119
    13   7 N    3.135 --    12 C    1.119    46 H    0.933    45 H    0.933
    14   6 C    3.988 --    15 C    1.472    12 C    1.351    47 H    0.972
    15   6 C    3.984 --    14 C    1.472     9 C    1.375    48 H    0.972
    16   6 C    3.918 --     8 C    1.327    19 N    1.202    17 C    1.183
    17   6 C    3.957 --    18 C    1.631    16 C    1.183    49 H    0.973
    18   6 C    3.959 --    17 C    1.631    20 C    1.193    50 H    0.969
    19   7 N    3.370 --    20 C    1.246    16 C    1.202     1 Fe   0.653
    20   6 C    3.910 --    21 C    1.248    19 N    1.246    18 C    1.193
    21   6 C    3.913 --    20 C    1.248    22 C    1.246   121 C    1.204
    22   6 C    3.910 --    26 N    1.247    21 C    1.246    23 C    1.193
    23   6 C    3.959 --    24 C    1.631    22 C    1.193    51 H    0.970
    24   6 C    3.957 --    23 C    1.631    25 C    1.183    52 H    0.973
    25   6 C    3.918 --    27 C    1.328    26 N    1.201    24 C    1.183
    26   7 N    3.370 --    22 C    1.247    25 C    1.201     1 Fe   0.653
    27   6 C    3.916 --    25 C    1.328    35 C    1.303    28 C    1.043
    28   6 C    3.985 --    29 C    1.375    34 C    1.375    27 C    1.043
    29   6 C    3.984 --    30 C    1.472    28 C    1.375    53 H    0.972
    30   6 C    3.988 --    29 C    1.472    31 C    1.351    54 H    0.972
    31   6 C    3.948 --    30 C    1.351    33 C    1.351    32 N    1.119
    32   7 N    3.135 --    31 C    1.119    56 H    0.933    55 H    0.933
    33   6 C    3.988 --    34 C    1.472    31 C    1.351    57 H    0.972
    34   6 C    3.984 --    33 C    1.472    28 C    1.375    58 H    0.972
    35   6 C    3.919 --    27 C    1.303    39 N    1.229    36 C    1.178
    36   6 C    3.963 --    37 C    1.644    35 C    1.178    59 H    0.973
    37   6 C    3.958 --    36 C    1.644    38 C    1.176    60 H    0.975
    38   6 C    3.927 --     2 C    1.362    39 N    1.207    37 C    1.176
    39   7 N    3.370 --    35 C    1.229    38 C    1.207     1 Fe   0.660
    40   1 H    1.001 --     2 C    0.970
    41   1 H    0.998 --     4 C    0.975
    42   1 H    1.005 --     5 C    0.973
    43   1 H    1.006 --    10 C    0.972
    44   1 H    0.998 --    11 C    0.972
    45   1 H    0.960 --    13 N    0.933
    46   1 H    0.960 --    13 N    0.933
    47   1 H    0.998 --    14 C    0.972
    48   1 H    1.006 --    15 C    0.972
    49   1 H    1.005 --    17 C    0.973
    50   1 H    1.005 --    18 C    0.969
    51   1 H    1.005 --    23 C    0.970
    52   1 H    1.005 --    24 C    0.973
    53   1 H    1.006 --    29 C    0.972
    54   1 H    0.998 --    30 C    0.972
    55   1 H    0.960 --    32 N    0.933
    56   1 H    0.960 --    32 N    0.933
    57   1 H    0.998 --    33 C    0.972
    58   1 H    1.006 --    34 C    0.972
    59   1 H    1.005 --    36 C    0.973
    60   1 H    0.998 --    37 C    0.975
    61  26 Fe   3.091 --    99 N    0.659    67 N    0.659    86 N    0.652
                            79 N    0.652
    62   6 C    3.915 --    98 C    1.363    63 C    1.361   100 H    0.970
    63   6 C    3.927 --    62 C    1.361    67 N    1.209    64 C    1.176
    64   6 C    3.959 --    65 C    1.645    63 C    1.176   101 H    0.975
    65   6 C    3.963 --    64 C    1.645    66 C    1.178   102 H    0.973
    66   6 C    3.920 --    68 C    1.307    67 N    1.228    65 C    1.178
    67   7 N    3.372 --    66 C    1.228    63 C    1.209    61 Fe   0.659
    68   6 C    3.917 --    76 C    1.329    66 C    1.307    69 C    1.039
    69   6 C    3.985 --    70 C    1.378    75 C    1.377    68 C    1.039
    70   6 C    3.986 --    71 C    1.470    69 C    1.378   103 H    0.972
    71   6 C    3.988 --    70 C    1.470    72 C    1.352   104 H    0.972
    72   6 C    3.949 --    71 C    1.352    74 C    1.352    73 N    1.117
    73   7 N    3.134 --    72 C    1.117   105 H    0.933   106 H    0.933
    74   6 C    3.988 --    75 C    1.471    72 C    1.352   107 H    0.972
    75   6 C    3.986 --    74 C    1.471    69 C    1.377   108 H    0.972
    76   6 C    3.918 --    68 C    1.329    79 N    1.203    77 C    1.182
    77   6 C    3.958 --    78 C    1.634    76 C    1.182   109 H    0.973
    78   6 C    3.961 --    77 C    1.634    80 C    1.190   110 H    0.971
    79   7 N    3.371 --    80 C    1.246    76 C    1.203    61 Fe   0.652
    80   6 C    3.911 --    81 C    1.252    79 N    1.246    78 C    1.190
    81   6 C    3.915 --    80 C    1.252    82 C    1.250   124 C    1.196
    82   6 C    3.911 --    81 C    1.250    86 N    1.248    83 C    1.191
    83   6 C    3.961 --    84 C    1.634    82 C    1.191   111 H    0.971
    84   6 C    3.958 --    83 C    1.634    85 C    1.182   112 H    0.973
    85   6 C    3.919 --    87 C    1.331    86 N    1.201    84 C    1.182
    86   7 N    3.371 --    82 C    1.248    85 C    1.201    61 Fe   0.652
    87   6 C    3.918 --    85 C    1.331    95 C    1.305    88 C    1.039
    88   6 C    3.985 --    89 C    1.378    94 C    1.377    87 C    1.039
    89   6 C    3.986 --    90 C    1.470    88 C    1.378   113 H    0.972
    90   6 C    3.988 --    89 C    1.470    91 C    1.353   114 H    0.972
    91   6 C    3.949 --    90 C    1.353    93 C    1.352    92 N    1.117
    92   7 N    3.134 --    91 C    1.117   115 H    0.933   116 H    0.933
    93   6 C    3.988 --    94 C    1.471    91 C    1.352   117 H    0.972
    94   6 C    3.986 --    93 C    1.471    88 C    1.377   118 H    0.972
    95   6 C    3.920 --    87 C    1.305    99 N    1.230    96 C    1.178
    96   6 C    3.963 --    97 C    1.645    95 C    1.178   119 H    0.973
    97   6 C    3.959 --    96 C    1.645    98 C    1.175   120 H    0.975
    98   6 C    3.927 --    62 C    1.363    99 N    1.207    97 C    1.175
    99   7 N    3.372 --    95 C    1.230    98 C    1.207    61 Fe   0.659
   100   1 H    1.001 --    62 C    0.970
   101   1 H    0.998 --    64 C    0.975
   102   1 H    1.005 --    65 C    0.973
   103   1 H    1.005 --    70 C    0.972
   104   1 H    0.999 --    71 C    0.972
   105   1 H    0.960 --    73 N    0.933
   106   1 H    0.960 --    73 N    0.933
   107   1 H    0.998 --    74 C    0.972
   108   1 H    1.005 --    75 C    0.972
   109   1 H    1.005 --    77 C    0.973
   110   1 H    1.004 --    78 C    0.971
   111   1 H    1.004 --    83 C    0.971
   112   1 H    1.005 --    84 C    0.973
   113   1 H    1.005 --    89 C    0.972
   114   1 H    0.999 --    90 C    0.972
   115   1 H    0.960 --    92 N    0.933
   116   1 H    0.960 --    92 N    0.933
   117   1 H    0.998 --    93 C    0.972
   118   1 H    1.005 --    94 C    0.972
   119   1 H    1.005 --    96 C    0.973
   120   1 H    0.998 --    97 C    0.975
   121   6 C    3.917 --   122 C    2.537    21 C    1.204
   122   6 C    3.921 --   121 C    2.537   126 C    1.206
   123   6 C    3.922 --   124 C    2.543   145 C    1.199
   124   6 C    3.916 --   123 C    2.543    81 C    1.196
   125  26 Fe   3.037 --   131 N    0.642   143 N    0.642   163 N    0.642
                           150 N    0.641
   126   6 C    3.900 --   127 C    1.246   162 C    1.245   122 C    1.206
   127   6 C    3.911 --   131 N    1.250   126 C    1.246   128 C    1.193
   128   6 C    3.960 --   129 C    1.631   127 C    1.193   164 H    0.969
   129   6 C    3.959 --   128 C    1.631   130 C    1.186   165 H    0.972
   130   6 C    3.915 --   132 C    1.321   131 N    1.206   129 C    1.186
   131   7 N    3.361 --   127 C    1.250   130 C    1.206   125 Fe   0.642
   132   6 C    3.908 --   130 C    1.321   140 C    1.318   133 C    1.031
   133   6 C    3.984 --   134 C    1.381   139 C    1.380   132 C    1.031
   134   6 C    3.987 --   135 C    1.469   133 C    1.381   166 H    0.973
   135   6 C    3.988 --   134 C    1.469   136 C    1.353   167 H    0.972
   136   6 C    3.951 --   135 C    1.353   138 C    1.353   137 N    1.117
   137   7 N    3.134 --   136 C    1.117   168 H    0.933   169 H    0.933
   138   6 C    3.988 --   139 C    1.469   136 C    1.353   170 H    0.972
   139   6 C    3.987 --   138 C    1.469   133 C    1.380   171 H    0.973
   140   6 C    3.915 --   132 C    1.318   143 N    1.208   141 C    1.186
   141   6 C    3.959 --   142 C    1.631   140 C    1.186   172 H    0.973
   142   6 C    3.960 --   141 C    1.631   144 C    1.193   173 H    0.971
   143   7 N    3.361 --   144 C    1.248   140 C    1.208   125 Fe   0.642
   144   6 C    3.912 --   145 C    1.249   143 N    1.248   142 C    1.193
   145   6 C    3.900 --   144 C    1.249   146 C    1.248   123 C    1.199
   146   6 C    3.912 --   150 N    1.249   145 C    1.248   147 C    1.194
   147   6 C    3.960 --   148 C    1.628   146 C    1.194   174 H    0.971
   148   6 C    3.959 --   147 C    1.628   149 C    1.187   175 H    0.973
   149   6 C    3.915 --   151 C    1.315   150 N    1.209   148 C    1.187
   150   7 N    3.360 --   146 C    1.249   149 C    1.209   125 Fe   0.641
   151   6 C    3.908 --   159 C    1.316   149 C    1.315   152 C    1.040
   152   6 C    3.984 --   158 C    1.376   153 C    1.375   151 C    1.040
   153   6 C    3.986 --   154 C    1.472   152 C    1.375   176 H    0.972
   154   6 C    3.988 --   153 C    1.472   155 C    1.351   177 H    0.972
   155   6 C    3.949 --   157 C    1.351   154 C    1.351   156 N    1.119
   156   7 N    3.135 --   155 C    1.119   179 H    0.933   178 H    0.933
   157   6 C    3.988 --   158 C    1.471   155 C    1.351   180 H    0.972
   158   6 C    3.986 --   157 C    1.471   152 C    1.376   181 H    0.972
   159   6 C    3.915 --   151 C    1.316   163 N    1.208   160 C    1.187
   160   6 C    3.959 --   161 C    1.627   159 C    1.187   182 H    0.973
   161   6 C    3.960 --   160 C    1.627   162 C    1.195   183 H    0.970
   162   6 C    3.910 --   163 N    1.249   126 C    1.245   161 C    1.195
   163   7 N    3.361 --   162 C    1.249   159 C    1.208   125 Fe   0.642
   164   1 H    1.006 --   128 C    0.969
   165   1 H    1.005 --   129 C    0.972
   166   1 H    1.004 --   134 C    0.973
   167   1 H    0.998 --   135 C    0.972
   168   1 H    0.960 --   137 N    0.933
   169   1 H    0.960 --   137 N    0.933
   170   1 H    0.998 --   138 C    0.972
   171   1 H    1.004 --   139 C    0.973
   172   1 H    1.006 --   141 C    0.973
   173   1 H    1.005 --   142 C    0.971
   174   1 H    1.004 --   147 C    0.971
   175   1 H    1.005 --   148 C    0.973
   176   1 H    1.005 --   153 C    0.972
   177   1 H    0.998 --   154 C    0.972
   178   1 H    0.960 --   156 N    0.933
   179   1 H    0.960 --   156 N    0.933
   180   1 H    0.998 --   157 C    0.972
   181   1 H    1.005 --   158 C    0.972
   182   1 H    1.005 --   160 C    0.973
   183   1 H    1.005 --   161 C    0.970
 ---------------------------------------------------------------------------

           -------------------------------------------------
          | TOTAL ENERGY             -311.339657906969 Eh   |
          | GRADIENT NORM               0.000409645637 Eh/α |
          | HOMO-LUMO GAP               0.042978538502 eV   |
           -------------------------------------------------

 * finished run on 2022/07/29 at 18:46:50.351
