   * xtb version 6.5.1 (b24c23e) compiled by 'conda@728c89f4b128' on 2022-07-12
          program call               : xtb Ni_Ph3Me_C2_2.xyz --gfn 1 --opt -T 48

   ID    Z sym.   atoms
    1   28 Ni     1, 75
    2    6 C      2-6, 8-20, 22-27, 29-42, 76-80, 82-94, 96-101, 103-116,
                  149, 150
    3    7 N      7, 21, 28, 43, 81, 95, 102, 117
    4    1 H      44-74, 118-148
########################################################################
[WARNING] Please study the warnings concerning your input carefully
-1- prog_main_parseArguments: Unknown option '-T' provided
########################################################################

          :  Hamiltonian                  GFN1-xTB          :
 * total energy  :  -231.9893207 Eh     change       -0.1601848E-09 Eh
 * total energy  :  -232.1448597 Eh     change       -0.1555389E+00 Eh
 * total energy  :  -232.2044530 Eh     change       -0.5959331E-01 Eh
 * total energy  :  -232.2217491 Eh     change       -0.1729612E-01 Eh
 * total energy  :  -232.2285910 Eh     change       -0.6841917E-02 Eh
 * total energy  :  -232.2325624 Eh     change       -0.3971339E-02 Eh
 * total energy  :  -232.2345929 Eh     change       -0.2030516E-02 Eh
 * total energy  :  -232.2357100 Eh     change       -0.1117158E-02 Eh
 * total energy  :  -232.2364375 Eh     change       -0.7274635E-03 Eh
 * total energy  :  -232.2369085 Eh     change       -0.4710151E-03 Eh
 * total energy  :  -232.2381345 Eh     change       -0.1243696E-04 Eh
 * total energy  :  -232.2381436 Eh     change       -0.9117944E-05 Eh
 * total energy  :  -232.2381567 Eh     change       -0.1304743E-04 Eh
 * total energy  :  -232.2381708 Eh     change       -0.1411868E-04 Eh
 * total energy  :  -232.2381844 Eh     change       -0.1355793E-04 Eh
 * total energy  :  -232.2381972 Eh     change       -0.1287378E-04 Eh
 * total energy  :  -232.2382081 Eh     change       -0.1083179E-04 Eh
 * total energy  :  -232.2382131 Eh     change       -0.5031656E-05 Eh
 * total energy  :  -232.2382162 Eh     change       -0.3075337E-05 Eh
   *** GEOMETRY OPTIMIZATION CONVERGED AFTER 36 ITERATIONS ***

 final structure:
================
150
 xtb: 6.5.1 (b24c23e)
Ni          17.07044144818722        0.07934449428819        0.03203749901398
C           13.67099440225633        0.14926655532671       -0.01350595490340
C           14.33532258039563        1.21069620994438        0.56589289838429
C           13.67297242377365        2.33294427766492        1.15914057701173
C           14.64097127582643        3.20121480185726        1.53575882896766
C           15.89355748578266        2.60921964753673        1.16790394245703
N           15.69741785127881        1.37606626483456        0.59812412252206
C           17.11504447488369        3.25108100181174        1.30139511003720
C           17.13579429650794        4.63317369415030        1.85863922109226
C           16.97578312409521        5.73132697735090        1.00892626538483
C           16.78586722288368        5.51682422606823       -0.46905571711468
C           16.99214771424444        7.01518352519181        1.54162774733449
C           17.16314285980180        7.22050098586272        2.90664313263408
C           17.19694046493544        8.61509662909831        3.47106601393596
C           17.32273598384237        6.11998871961164        3.74260602940320
C           17.31091211666974        4.82752175227663        3.23186177155987
C           17.48156371981032        3.64156762568456        4.14324830851932
C           18.31669960323388        2.66643636102984        0.93248581201912
C           19.57945746599677        3.33280290202888        1.02572718624736
C           20.52312670575979        2.42996314187469        0.66545436946690
N           18.48456404276536        1.37214108435814        0.49505114190537
C           19.83780019274387        1.21352404073414        0.36302531492675
C           20.49181490590802        0.01686872923495        0.05617342279266
C           19.79734575580690       -1.15697724890322       -0.25008899399077
C           20.44136337850340       -2.40094062546330       -0.53047630353018
C           19.46998439758541       -3.27243145939315       -0.89404497913196
C           18.23201314418978       -2.55794133522117       -0.82878370085514
N           18.44111967784102       -1.26696875407948       -0.39906909472111
C           17.01765517021915       -3.09719417901085       -1.22413021298791
C           17.00052529129119       -4.47843935900050       -1.78331959944077
C           17.24290767128821       -4.67809114037801       -3.14612266672418
C           17.52280923939634       -3.49974579569168       -4.04037486050460
C           17.22424215617890       -5.96834183671133       -3.66052784081270
C           16.97000404862879       -7.06257221616548       -2.83840942829831
C           16.94332954103713       -8.45048994950550       -3.41960888353571
C           16.73162182424896       -6.85208740045627       -1.48517393698630
C           16.74419768255144       -5.56911383976350       -0.94859022348427
C           16.48729918217215       -5.34930484718294        0.51844842027601
C           15.82015228111620       -2.40567795407104       -1.12634974078271
C           14.55505460481417       -2.94489825246263       -1.53047236023672
C           13.61414828059405       -2.03511862784522       -1.18415959501379
C           14.30584149216013       -0.94043666004119       -0.57311870448383
N           15.65995121531319       -1.16342435636316       -0.56529332285548
H           12.58760628764593        0.17254694522829       -0.02925244159053
H           12.60332163537860        2.42728203155539        1.25955361474893
H           14.53602908052011        4.16247478124786        2.01266577349786
H           15.87377328144707        4.94615068466639       -0.65429208154480
H           17.62290441090783        4.95033979867459       -0.88120643033101
H           16.71446236056058        6.46860986927066       -0.99457879156419
H           16.86727410402850        7.86760337525538        0.88189873020912
H           16.78999388055781        8.63414434151471        4.48245496831027
H           18.22799507394807        8.97385673252919        3.51389175482464
H           16.62433407203250        9.30152797127846        2.84699639956347
H           17.45627178538961        6.27086551026603        4.80888132900301
H           18.36905287123680        3.07192739941820        3.86108996239356
H           17.58577273351245        3.95928013454061        5.18024799990630
H           16.61976301407837        2.97615473844747        4.06532331614329
H           19.71039299547318        4.35850910952277        1.33046259381130
H           21.59087992522765        2.56218365661939        0.60764574050751
H           21.50237626998513       -2.57221872744231       -0.45427251880340
H           19.56664034962956       -4.30621209941085       -1.18380643805629
H           16.71304147803962       -2.77096527357686       -3.97389600315757
H           17.62708877618649       -3.81472209067732       -5.07820945425590
H           18.44479810481317       -3.00261578357921       -3.73242260542219
H           17.41154827473391       -6.12469502420999       -4.71790005301277
H           17.81623648532041       -8.61779049474095       -4.05232744763853
H           16.93077731499249       -9.20410810028103       -2.63232986122262
H           16.05128323992062       -8.58109174298984       -4.03607636656350
H           16.53397039838099       -7.69876886874787       -0.83592287995314
H           15.58717222753374       -4.74769422071677        0.65892773533749
H           17.32144456113777       -4.81230674284325        0.97365762928913
H           16.35644488488415       -6.29842683236715        1.03729943201615
H           14.42371079823814       -3.90156301791301       -2.01009822009234
H           12.54491533377398       -2.08406338971023       -1.31639098549270
Ni          27.94885379953177       -0.08030140521144       -0.03017945604044
C           31.34819106920839       -0.09894107757641       -0.11255648147248
C           30.68390297799666       -1.26633606378115       -0.42811962862444
C           31.34630945617842       -2.48699533801060       -0.77643256043059
C           30.37831420570403       -3.37464122712488       -1.10479800454723
C           29.12569053153631       -2.69284773513268       -0.96043069229508
N           29.32180400524959       -1.40825247223425       -0.51865574352624
C           27.90421724571467       -3.24854167051162       -1.30834746791180
C           27.88373132367416       -4.63098271907259       -1.86480411171561
C           28.04412399028013       -4.83250356499491       -3.23854934086569
C           28.23402825769860       -3.65260975207064       -4.15408847429228
C           28.02804137101294       -6.12677885679377       -3.74528861263016
C           27.85695933759833       -7.22143368976632       -2.90436452091970
C           27.82358604953262       -8.61734070913435       -3.46561752198916
C           27.69692831711490       -7.00863817140442       -1.53884718262333
C           27.70851952174434       -5.72332034951334       -1.01029985671027
C           27.53749798699852       -5.50038860166715        0.46868863275353
C           26.70256387113585       -2.57125148827078       -1.16989953238926
C           25.43981263649036       -3.11668789810906       -1.56393369406527
C           24.49620872083273       -2.21538963110326       -1.19967050109969
N           26.53474203589305       -1.33412841835380       -0.59015556179573
C           25.18156330464958       -1.12795848873892       -0.57623721096021
C           24.52756489413822       -0.05143562841670        0.02977859795758
C           25.22199837501218        1.00791470881162        0.62100818363181
C           24.57794904779832        2.10012745935128        1.27909568204375
C           25.54935490305120        2.98076643153291        1.61984616234955
C           26.78737867354076        2.41964581643603        1.17288486709695
N           26.57825456988261        1.19024573097160        0.58989120847127
C           28.00176093040892        3.08248706278628        1.26069437521490
C           28.01897120670691        4.46656890241238        1.81289333638843
C           27.77662135359323        5.55390588419005        0.96742147020919
C           27.49670847599599        5.32240709118789       -0.49360143137560
C           27.79530945348872        6.84124259894661        1.48909380742625
C           28.04953837352702        7.06212330448486        2.83980827714704
C           28.07618709635762        8.46617641060962        3.38087716527620
C           28.28792307441729        5.97361035835825        3.67088344124944
C           28.27532671832628        4.67618359935426        3.17025376583553
C           28.53224210718734        3.50225909972273        4.07712136449084
C           29.19920571940998        2.51551396065246        0.85267183236546
C           30.46430854952810        3.18447665082266        0.93360921174940
C           31.40511893693823        2.28813012531098        0.55363161283100
C           30.71339281913549        1.07495948553216        0.23764106963334
N           29.35933396405048        1.23044993745949        0.39809481650079
H           32.43156590807392       -0.10469800872486       -0.14070318771478
H           32.41598534714004       -2.62439864795564       -0.76965251170326
H           30.48328763212345       -4.39867509723355       -1.42543359315394
H           29.14594197113883       -3.11295263360735       -3.89125776692339
H           27.39684705466770       -2.95884605893901       -4.05798017470038
H           28.30574210201945       -3.97333593008409       -5.19290348981897
H           28.15322140936932       -6.28331441537937       -4.81171347385930
H           28.23096538741804       -9.33280528839173       -2.75075503356206
H           26.79261745703090       -8.90575095395474       -3.68362321650426
H           28.39603683222133       -8.67821929405626       -4.39141664679243
H           27.56334718826837       -7.85703363455086       -0.87559162260535
H           26.64990087976136       -4.89431278288258        0.65996264199307
H           27.43328820585667       -6.44821159625571        0.99588904450284
H           28.39914414116912       -4.96663279701659        0.87395556236849
H           25.30882747294021       -4.06809481035048       -2.05357223924872
H           23.42849706994480       -2.27061514868231       -1.33328393874329
H           23.51689848601152        2.17120662389282        1.45234000222504
H           25.45267481467200        3.92766092362864        2.12586374008840
H           28.30646221432523        4.75039661458476       -0.95006986160548
H           27.39245664399563        6.26810461584287       -1.02461610294597
H           26.57469634467551        4.75049616636376       -0.61544139934942
H           27.60800723405566        7.68589298770887        0.83407271684110
H           27.20326927498604        9.02482764544681        3.03997490463967
H           28.08873630404312        8.46526434591201        4.47071721337218
H           28.96822072035635        8.98713201698228        3.02630933464870
H           28.48558708268740        6.13539833987781        4.72550142339798
H           29.43238998356916        2.97079543476820        3.76219887940209
H           27.69811480916048        2.79958114616964        4.03408518276233
H           28.66307638916640        3.82833340569971        5.10849029623856
H           30.59571908284819        4.20701081853810        1.24929564511978
H           32.47431495373598        2.41505064762990        0.49158321166634
C           21.90155331958376       -0.00816200499649        0.05357890932558
C           23.11781961866578       -0.03135477286930        0.04460584193523

          :  Hamiltonian                  GFN1-xTB          :
         :: total energy            -232.238216170211 Eh    ::
         :: gradient norm              0.000306707288 Eh/a0 ::
         :: HOMO-LUMO gap              1.199667308234 eV    ::
         :: SCC energy              -235.835348185264 Eh    ::
         :: repulsion energy           3.735396726111 Eh    ::

    * Orbital Energies and Occupations

         #    Occupation            Energy/Eh            Energy/eV
      -------------------------------------------------------------
         1        2.0000           -0.7785811             -21.1863
       ...           ...                  ...                  ...
       205        2.0000           -0.4197662             -11.4224
       206        2.0000           -0.3961151             -10.7788
       207        2.0000           -0.3960193             -10.7762
       208        2.0000           -0.3959226             -10.7736
       209        2.0000           -0.3956835             -10.7671
       210        2.0000           -0.3956691             -10.7667
       211        2.0000           -0.3948461             -10.7443
       212        2.0000           -0.3948422             -10.7442
       213        2.0000           -0.3937614             -10.7148
       214        2.0000           -0.3937605             -10.7148
       215        2.0000           -0.3937129             -10.7135
       216        2.0000           -0.3937104             -10.7134
       217        2.0000           -0.3816120             -10.3842 (HOMO)
       218                         -0.3375250              -9.1845 (LUMO)
       219                         -0.3254801              -8.8568
       220                         -0.3254770              -8.8567
       221                         -0.3253629              -8.8536
       222                         -0.3253546              -8.8533
       223                         -0.3210184              -8.7354
       224                         -0.2931999              -7.9784
       225                         -0.2839295              -7.7261
       226                         -0.2558090              -6.9609
       227                         -0.2557948              -6.9605
       228                         -0.2557118              -6.9583
       ...                                ...                  ...
       486                          1.3426787              36.5361
      -------------------------------------------------------------
                  HL-Gap            0.0440870 Eh            1.1997 eV

Wiberg/Mayer (AO) data.
largest (>0.10) Wiberg bond orders for each atom

     #   Z sym  total        # sym  WBO       # sym  WBO       # sym  WBO
 ---------------------------------------------------------------------------
     1  28 Ni   3.023 --     7 N    0.666    43 N    0.665    28 N    0.664
                            21 N    0.664
     2   6 C    3.934 --     3 C    1.363    42 C    1.363    44 H    0.970
     3   6 C    3.925 --     2 C    1.363     7 N    1.215     4 C    1.175
     4   6 C    3.960 --     5 C    1.649     3 C    1.175    45 H    0.975
     5   6 C    3.963 --     4 C    1.649     6 C    1.176    46 H    0.974
     6   6 C    3.920 --     8 C    1.329     7 N    1.217     5 C    1.176
     7   7 N    3.402 --     6 C    1.217     3 C    1.215     1 Ni   0.666
     8   6 C    3.939 --    18 C    1.332     6 C    1.329     9 C    1.004
     9   6 C    3.987 --    10 C    1.381    16 C    1.380     8 C    1.004
                            13 C    0.104
    10   6 C    3.985 --    12 C    1.420     9 C    1.381    11 C    1.020
                            15 C    0.103
    11   6 C    3.996 --    10 C    1.020    49 H    0.986    48 H    0.974
                            47 H    0.973
    12   6 C    3.993 --    10 C    1.420    13 C    1.415    50 H    0.970
                            16 C    0.103
    13   6 C    3.988 --    12 C    1.415    15 C    1.413    14 C    1.020
                             9 C    0.104
    14   6 C    3.996 --    13 C    1.020    53 H    0.983    51 H    0.982
                            52 H    0.971
    15   6 C    3.993 --    16 C    1.421    13 C    1.413    54 H    0.970
                            10 C    0.103
    16   6 C    3.985 --    15 C    1.421     9 C    1.380    17 C    1.021
                            12 C    0.103
    17   6 C    3.996 --    16 C    1.021    56 H    0.986    57 H    0.974
                            55 H    0.974
    18   6 C    3.916 --     8 C    1.332    21 N    1.204    19 C    1.183
    19   6 C    3.960 --    20 C    1.635    18 C    1.183    58 H    0.974
    20   6 C    3.962 --    19 C    1.635    22 C    1.192    59 H    0.968
    21   7 N    3.407 --    22 C    1.237    18 C    1.204     1 Ni   0.664
    22   6 C    3.910 --    23 C    1.268    21 N    1.237    20 C    1.192
    23   6 C    3.944 --    22 C    1.268    24 C    1.268   149 C    1.171
    24   6 C    3.910 --    23 C    1.268    28 N    1.237    25 C    1.192
    25   6 C    3.962 --    26 C    1.635    24 C    1.192    60 H    0.968
    26   6 C    3.959 --    25 C    1.635    27 C    1.183    61 H    0.974
    27   6 C    3.916 --    29 C    1.332    28 N    1.203    26 C    1.183
    28   7 N    3.407 --    24 C    1.237    27 C    1.203     1 Ni   0.664
    29   6 C    3.939 --    27 C    1.332    39 C    1.329    30 C    1.004
    30   6 C    3.987 --    37 C    1.384    31 C    1.377    29 C    1.004
                            34 C    0.104
    31   6 C    3.985 --    33 C    1.425    30 C    1.377    32 C    1.020
                            36 C    0.102
    32   6 C    3.996 --    31 C    1.020    63 H    0.986    62 H    0.975
                            64 H    0.973
    33   6 C    3.993 --    31 C    1.425    34 C    1.409    65 H    0.971
                            37 C    0.103
    34   6 C    3.988 --    36 C    1.419    33 C    1.409    35 C    1.020
                            30 C    0.104
    35   6 C    3.996 --    34 C    1.020    67 H    0.985    66 H    0.979
                            68 H    0.973
    36   6 C    3.993 --    34 C    1.419    37 C    1.416    69 H    0.970
                            31 C    0.102
    37   6 C    3.985 --    36 C    1.416    30 C    1.384    38 C    1.020
                            33 C    0.103
    38   6 C    3.996 --    37 C    1.020    72 H    0.986    71 H    0.975
                            70 H    0.973
    39   6 C    3.920 --    29 C    1.329    43 N    1.217    40 C    1.176
    40   6 C    3.963 --    41 C    1.649    39 C    1.176    73 H    0.974
    41   6 C    3.960 --    40 C    1.649    42 C    1.175    74 H    0.975
    42   6 C    3.925 --     2 C    1.363    43 N    1.215    41 C    1.175
    43   7 N    3.402 --    39 C    1.217    42 C    1.215     1 Ni   0.665
    44   1 H    1.000 --     2 C    0.970
    45   1 H    0.998 --     4 C    0.975
    46   1 H    1.002 --     5 C    0.974
    47   1 H    1.008 --    11 C    0.973
    48   1 H    1.007 --    11 C    0.974
    49   1 H    1.004 --    11 C    0.986
    50   1 H    1.000 --    12 C    0.970
    51   1 H    1.004 --    14 C    0.982
    52   1 H    1.006 --    14 C    0.971
    53   1 H    1.004 --    14 C    0.983
    54   1 H    1.000 --    15 C    0.970
    55   1 H    1.008 --    17 C    0.974
    56   1 H    1.004 --    17 C    0.986
    57   1 H    1.007 --    17 C    0.974
    58   1 H    1.002 --    19 C    0.974
    59   1 H    1.006 --    20 C    0.968
    60   1 H    1.006 --    25 C    0.968
    61   1 H    1.002 --    26 C    0.974
    62   1 H    1.007 --    32 C    0.975
    63   1 H    1.004 --    32 C    0.986
    64   1 H    1.008 --    32 C    0.973
    65   1 H    0.999 --    33 C    0.971
    66   1 H    1.005 --    35 C    0.979
    67   1 H    1.004 --    35 C    0.985
    68   1 H    1.006 --    35 C    0.973
    69   1 H    1.000 --    36 C    0.970
    70   1 H    1.008 --    38 C    0.973
    71   1 H    1.007 --    38 C    0.975
    72   1 H    1.004 --    38 C    0.986
    73   1 H    1.002 --    40 C    0.974
    74   1 H    0.998 --    41 C    0.975
    75  28 Ni   3.023 --    81 N    0.666   117 N    0.665   102 N    0.664
                            95 N    0.664
    76   6 C    3.934 --    77 C    1.363   116 C    1.363   118 H    0.970
    77   6 C    3.925 --    76 C    1.363    81 N    1.215    78 C    1.175
    78   6 C    3.960 --    79 C    1.649    77 C    1.175   119 H    0.975
    79   6 C    3.963 --    78 C    1.649    80 C    1.176   120 H    0.974
    80   6 C    3.920 --    82 C    1.329    81 N    1.217    79 C    1.176
    81   7 N    3.402 --    80 C    1.217    77 C    1.215    75 Ni   0.666
    82   6 C    3.939 --    92 C    1.332    80 C    1.329    83 C    1.004
    83   6 C    3.987 --    84 C    1.381    90 C    1.380    82 C    1.004
                            87 C    0.104
    84   6 C    3.985 --    86 C    1.420    83 C    1.381    85 C    1.020
                            89 C    0.103
    85   6 C    3.996 --    84 C    1.020   123 H    0.986   122 H    0.974
                           121 H    0.973
    86   6 C    3.993 --    84 C    1.420    87 C    1.415   124 H    0.970
                            90 C    0.103
    87   6 C    3.988 --    86 C    1.415    89 C    1.413    88 C    1.020
                            83 C    0.104
    88   6 C    3.996 --    87 C    1.020   127 H    0.983   125 H    0.982
                           126 H    0.971
    89   6 C    3.993 --    90 C    1.421    87 C    1.413   128 H    0.970
                            84 C    0.103
    90   6 C    3.985 --    89 C    1.421    83 C    1.380    91 C    1.020
                            86 C    0.103
    91   6 C    3.996 --    90 C    1.020   130 H    0.986   131 H    0.974
                           129 H    0.974
    92   6 C    3.916 --    82 C    1.332    95 N    1.204    93 C    1.183
    93   6 C    3.960 --    94 C    1.635    92 C    1.183   132 H    0.974
    94   6 C    3.962 --    93 C    1.635    96 C    1.192   133 H    0.968
    95   7 N    3.407 --    96 C    1.237    92 C    1.204    75 Ni   0.664
    96   6 C    3.910 --    97 C    1.268    95 N    1.237    94 C    1.192
    97   6 C    3.944 --    96 C    1.268    98 C    1.268   150 C    1.171
    98   6 C    3.910 --    97 C    1.268   102 N    1.237    99 C    1.192
    99   6 C    3.962 --   100 C    1.635    98 C    1.192   134 H    0.968
   100   6 C    3.959 --    99 C    1.635   101 C    1.183   135 H    0.974
   101   6 C    3.916 --   103 C    1.333   102 N    1.203   100 C    1.183
   102   7 N    3.407 --    98 C    1.237   101 C    1.203    75 Ni   0.664
   103   6 C    3.939 --   101 C    1.333   113 C    1.329   104 C    1.004
   104   6 C    3.987 --   111 C    1.384   105 C    1.377   103 C    1.004
                           108 C    0.104
   105   6 C    3.985 --   107 C    1.425   104 C    1.377   106 C    1.020
                           110 C    0.102
   106   6 C    3.996 --   105 C    1.020   137 H    0.986   136 H    0.975
                           138 H    0.973
   107   6 C    3.993 --   105 C    1.425   108 C    1.409   139 H    0.971
                           111 C    0.103
   108   6 C    3.988 --   110 C    1.419   107 C    1.409   109 C    1.020
                           104 C    0.104
   109   6 C    3.996 --   108 C    1.020   141 H    0.985   140 H    0.979
                           142 H    0.973
   110   6 C    3.993 --   108 C    1.419   111 C    1.416   143 H    0.970
                           105 C    0.102
   111   6 C    3.985 --   110 C    1.416   104 C    1.384   112 C    1.020
                           107 C    0.103
   112   6 C    3.996 --   111 C    1.020   146 H    0.986   145 H    0.975
                           144 H    0.973
   113   6 C    3.920 --   103 C    1.329   117 N    1.217   114 C    1.176
   114   6 C    3.963 --   115 C    1.649   113 C    1.176   147 H    0.974
   115   6 C    3.960 --   114 C    1.649   116 C    1.175   148 H    0.975
   116   6 C    3.925 --    76 C    1.363   117 N    1.215   115 C    1.175
   117   7 N    3.402 --   113 C    1.217   116 C    1.215    75 Ni   0.665
   118   1 H    1.000 --    76 C    0.970
   119   1 H    0.998 --    78 C    0.975
   120   1 H    1.002 --    79 C    0.974
   121   1 H    1.008 --    85 C    0.973
   122   1 H    1.007 --    85 C    0.974
   123   1 H    1.004 --    85 C    0.986
   124   1 H    1.000 --    86 C    0.970
   125   1 H    1.004 --    88 C    0.982
   126   1 H    1.006 --    88 C    0.971
   127   1 H    1.004 --    88 C    0.983
   128   1 H    1.000 --    89 C    0.970
   129   1 H    1.008 --    91 C    0.974
   130   1 H    1.004 --    91 C    0.986
   131   1 H    1.007 --    91 C    0.974
   132   1 H    1.002 --    93 C    0.974
   133   1 H    1.006 --    94 C    0.968
   134   1 H    1.006 --    99 C    0.968
   135   1 H    1.002 --   100 C    0.974
   136   1 H    1.007 --   106 C    0.975
   137   1 H    1.004 --   106 C    0.986
   138   1 H    1.008 --   106 C    0.973
   139   1 H    0.999 --   107 C    0.971
   140   1 H    1.005 --   109 C    0.979
   141   1 H    1.004 --   109 C    0.985
   142   1 H    1.006 --   109 C    0.973
   143   1 H    1.000 --   110 C    0.970
   144   1 H    1.008 --   112 C    0.973
   145   1 H    1.007 --   112 C    0.975
   146   1 H    1.004 --   112 C    0.986
   147   1 H    1.002 --   114 C    0.974
   148   1 H    0.998 --   115 C    0.975
   149   6 C    3.937 --   150 C    2.587    23 C    1.171
   150   6 C    3.937 --   149 C    2.587    97 C    1.171
 ---------------------------------------------------------------------------

           -------------------------------------------------
          | TOTAL ENERGY             -232.238216170211 Eh   |
          | GRADIENT NORM               0.000306707288 Eh/α |
          | HOMO-LUMO GAP               1.199667308234 eV   |
           -------------------------------------------------

 * finished run on 2022/07/30 at 05:24:00.919
