   * xtb version 6.5.1 (b24c23e) compiled by 'conda@728c89f4b128' on 2022-07-12
          program call               : xtb Fe_Ph3Me_C4_2.xyz --gfn 1 --opt -T 48

   ID    Z sym.   atoms
    1   26 Fe     1, 75
    2    6 C      2-6, 8-20, 22-27, 29-42, 76-80, 82-94, 96-101, 103-116,
                  149-152
    3    7 N      7, 21, 28, 43, 81, 95, 102, 117
    4    1 H      44-74, 118-148
########################################################################
[WARNING] Please study the warnings concerning your input carefully
-1- prog_main_parseArguments: Unknown option '-T' provided
########################################################################

          :  Hamiltonian                  GFN1-xTB          :
 * total energy  :  -233.4481623 Eh     change       -0.1107509E-08 Eh
 * total energy  :  -233.9749352 Eh     change       -0.5267729E+00 Eh
 * total energy  :  -234.0547887 Eh     change       -0.7985356E-01 Eh
 * total energy  :  -234.0953963 Eh     change       -0.4060759E-01 Eh
 * total energy  :  -234.1074261 Eh     change       -0.1202981E-01 Eh
 * total energy  :  -234.1130511 Eh     change       -0.5625006E-02 Eh
 * total energy  :  -234.1159874 Eh     change       -0.2936303E-02 Eh
 * total energy  :  -234.1173031 Eh     change       -0.1315625E-02 Eh
 * total energy  :  -234.1184966 Eh     change       -0.1193544E-02 Eh
 * total energy  :  -234.1191777 Eh     change       -0.6811513E-03 Eh
 * total energy  :  -234.1214039 Eh     change       -0.1746809E-04 Eh
 * total energy  :  -234.1214310 Eh     change       -0.2710425E-04 Eh
 * total energy  :  -234.1214543 Eh     change       -0.2327443E-04 Eh
 * total energy  :  -234.1214772 Eh     change       -0.2289845E-04 Eh
 * total energy  :  -234.1215038 Eh     change       -0.2658599E-04 Eh
 * total energy  :  -234.1215224 Eh     change       -0.1860558E-04 Eh
 * total energy  :  -234.1215305 Eh     change       -0.8081855E-05 Eh
 * total energy  :  -234.1215359 Eh     change       -0.5405090E-05 Eh
 * total energy  :  -234.1215395 Eh     change       -0.3659000E-05 Eh
   *** GEOMETRY OPTIMIZATION CONVERGED AFTER 38 ITERATIONS ***

 final structure:
================
152
 xtb: 6.5.1 (b24c23e)
Fe          15.78702984222459        0.04971634001213        0.06954470912759
C           12.38650520819860        0.12590660812094       -0.00575678078658
C           13.04511481463212        1.21172289207102        0.53364096418817
C           12.37602236722955        2.35254339429513        1.08345270905287
C           13.34153888200307        3.22305311805403        1.46204504121554
C           14.59815300390171        2.61076712634067        1.14166048136143
N           14.40456904277523        1.37673795599288        0.58315469422842
C           15.82585147181219        3.22740059001193        1.34385878530378
C           15.83998259927361        4.60802325482403        1.90317786144231
C           15.73027808533900        5.70536668483493        1.04417262297881
C           15.59966077030503        5.48766623913754       -0.43967506844273
C           15.74218467998514        6.99033627992255        1.57363974886908
C           15.85967375028187        7.19760182369532        2.94414193670872
C           15.89089838532218        8.59419628010791        3.50363425868115
C           15.96869935391163        6.09779341467749        3.78905395183055
C           15.95990787412034        4.80371131728063        3.28198589090805
C           16.07662263370465        3.61780546376071        4.20192472390078
C           17.03629090023691        2.62254037741787        1.04813993490079
C           18.30582770916894        3.25093539461833        1.26078064252801
C           19.25141538151919        2.34512401156701        0.91319936824694
N           17.20688133279508        1.35075445640873        0.55416436899652
C           18.55622462350012        1.17068676310592        0.48628520802015
C           19.21015482921632        0.00099556995426        0.07848301162901
C           18.52440492270874       -1.14453994653311       -0.34535332462636
C           19.18562440945436       -2.34750804098285       -0.74545939769797
C           18.21677223986609       -3.21397143424088       -1.12816959374112
C           16.96729309721621       -2.53385177030969       -0.96110997308187
N           17.17265807356768       -1.26609460060250       -0.47078142512545
C           15.74304543453276       -3.09117460301538       -1.29234215331676
C           15.71910693398531       -4.46971599768875       -1.85626377975996
C           15.89356906482074       -4.66558811930105       -3.22982203990508
C           16.10782429443682       -3.48265851816225       -4.13592414017064
C           15.86674038704438       -5.95615936460660       -3.74311208883486
C           15.67003448373795       -7.05379596842177       -2.90968903769033
C           15.63442423233612       -8.44208256038126       -3.48940789520822
C           15.49773004870432       -6.84658853672302       -1.54600634969315
C           15.51992399339638       -5.56366469534431       -1.00993160328462
C           15.33150197119016       -5.34670164881214        0.46785992053858
C           14.53430634356728       -2.43087417263019       -1.11609245539698
C           13.26365494431592       -3.00030316921173       -1.45982116628130
C           12.32133128215176       -2.09848993499023       -1.09664193721148
C           13.01853278936881       -0.98079752157886       -0.53433579246932
N           14.37298416039727       -1.18625003086126       -0.57057563763592
H           11.30243577375492        0.14313023308124       -0.01458665232033
H           11.30509805192316        2.45531937036132        1.15921737179430
H           13.23210102694968        4.19420294599276        1.91738954152020
H           14.68247946841125        4.93873196587628       -0.66196115457073
H           16.43930094499917        4.89823250146190       -0.81237455594924
H           15.57464875643763        6.43801025478161       -0.97197410618329
H           15.65676730882471        7.84227463577499        0.90704085343942
H           15.47103033016865        8.61928574535068        4.50950742084628
H           16.92256496665649        8.94972262204428        3.55756780198795
H           15.32891843818909        9.27976266965591        2.86897275931491
H           16.05996735465450        6.25027822410958        4.85951529450795
H           16.98165230383060        3.05094026693336        3.97509342157742
H           16.11622505648567        3.93539168993564        5.24341710081031
H           15.22339213971103        2.94987119442996        4.07061141217118
H           18.43894548489877        4.25394146996838        1.63272795896408
H           20.32441988021813        2.44653730610644        0.93979896741544
H           20.25368102251934       -2.49394475709737       -0.73044314094223
H           18.32184848981591       -4.22374860872563       -1.49068465533310
H           15.29679234117327       -2.76187024270063       -4.01808668277781
H           16.15197751671421       -3.79420349859734       -5.17904881179191
H           17.04207846685248       -2.97744747968112       -3.88308192635835
H           16.00121645080733       -6.11005503324313       -4.80882577737931
H           16.49762717141785       -8.60911184493778       -4.13550072259303
H           15.63536013748000       -9.19508108479895       -2.70145379937061
H           14.73317358743448       -8.57382617624582       -4.09190373972986
H           15.34427812549560       -7.69565249788250       -0.88800791981062
H           14.42017597627449       -4.77436504696755        0.65237744606872
H           16.16929370886347       -4.78078407271911        0.87905504792323
H           15.25775763440521       -6.29751886979080        0.99476955553219
H           13.12985337026070       -3.96699640301397       -1.91811887580943
H           11.24892168125736       -2.16638620204452       -1.18883733943760
Fe          29.22904202241138       -0.08385763402506        0.01660609716230
C           32.62953065490176       -0.08640811122443       -0.09008915782415
C           31.97102646658366       -1.24350913701307       -0.45231466433842
C           32.64025694405763       -2.44742652801602       -0.84496126456004
C           31.67485792131561       -3.33770264278349       -1.17473440733634
C           30.41817318758030       -2.67402751861900       -0.98262783491994
N           30.61160427086013       -1.39690003000188       -0.53120694775299
C           29.19060169383934       -3.25884541125667       -1.26446678266966
C           29.17675901606626       -4.64216752180818       -1.81707202036712
C           29.28819113329488       -4.83897698175842       -3.19654212054646
C           29.42015527437861       -3.65439752702289       -4.11611573224665
C           29.27673391725691       -6.13263414531099       -3.70442603353147
C           29.15801553894562       -7.23121107372203       -2.85940013881814
C           29.12736211134055       -8.62619480677718       -3.42293257247780
C           29.04723190400411       -7.02286653888864       -1.48839307075781
C           29.05552882579529       -5.73814713689081       -0.95804368863346
C           28.93692649174419       -5.51966936291625        0.52670638481566
C           27.98010446101916       -2.61760688922670       -1.05956036545551
C           26.71063110520235       -3.21802843592902       -1.34197103801595
C           25.76496621121196       -2.32393087930722       -0.96544623667697
N           27.80939317115250       -1.35818047768194       -0.53491096728050
C           26.46005249834494       -1.18125139342050       -0.45950499782088
C           25.80595139150658       -0.05523289193828        0.05662357947100
C           26.49154518691265        1.06458838053702        0.54458316445165
C           25.83025312891193        2.20936088600119        1.08919647334522
C           26.79901420687787        3.09970535080464        1.41276850761681
C           28.04851517784169        2.49364526683366        1.06192092216181
N           27.84327946977652        1.23939261841871        0.53798665497676
C           29.27263321644086        3.12550961833945        1.20826035977786
C           29.29636366474870        4.51085983392552        1.75525705507463
C           29.12074661037563        5.60272329029868        0.89941018851592
C           28.90538284856729        5.37575571414955       -0.57312332965966
C           29.14752409830889        6.88957715335667        1.42194674246360
C           29.34530224986713        7.10527502285151        2.78299567814126
C           29.38095185258605        8.50864654293107        3.32517764104714
C           29.51868776989236        6.01206936186463        3.62387912941901
C           29.49657995880238        4.71496362122747        3.12307581702113
C           29.68620102517484        3.53577945307297        4.03959773749538
C           30.48143217040759        2.52727909878515        0.87807687027830
C           31.75199516969300        3.17641748956900        1.02384475055587
C           32.69442543564433        2.27426495006303        0.66178336331005
C           31.99737536621636        1.07820925673845        0.29422831546666
N           30.64292018360163        1.25137055503795        0.41041878672532
H           33.71360033949639       -0.09266198661596       -0.10828795200235
H           33.71118652384766       -2.57404118453805       -0.86103017650183
H           31.78439707785325       -4.35376245415882       -1.51834990738052
H           30.33728053203810       -3.10474543967051       -3.89537736170938
H           28.58058616644358       -2.97080906029503       -3.97769092317993
H           29.44617415812389       -3.97138594833409       -5.15821204120301
H           29.36350848911303       -6.28563539715385       -4.77517794440716
H           29.54639706418714       -9.34086964082596       -2.71416539204436
H           28.09591500466148       -8.91998265489044       -3.63138185226521
H           29.69039306428331       -8.68131635475765       -4.35490703446160
H           28.95498762148920       -7.87414863540093       -0.82185113401952
H           28.03149445955950       -4.95382516505039        0.75447920441230
H           28.89683791775497       -6.47001689802044        1.05809008097892
H           29.78957724448616       -4.94669848261612        0.89558199097635
H           26.57762084093186       -4.19902369255369       -1.76864143650981
H           24.69196555196226       -2.41541604654589       -1.01681146969917
H           24.76222369763500        2.30441193852133        1.20184112778058
H           26.69385937853683        4.07922525079701        1.85047631939252
H           29.71626098708906        4.77412041726283       -0.98749596636036
H           28.86052290016801        6.32249863215777       -1.11051087537618
H           27.97115271952751        4.83581053038136       -0.73947377257631
H           29.01218131998503        7.73811154549281        0.75923679241069
H           28.51744511831461        9.07616973897652        2.97485879716943
H           29.38066707357825        8.50696775732114        4.41507527306314
H           30.28191137600695        9.02083847245398        2.98087489884733
H           29.67295441466272        6.16970355521486        4.68631608775035
H           30.59762070846891        2.99538393975381        3.77612822673147
H           28.84869151117217        2.84228176486598        3.94537862732209
H           29.76048951567930        3.85757367334957        5.07789319346687
H           31.88568712040269        4.19140852606861        1.36201150588530
H           33.76681278707741        2.38726877489732        0.64207691693708
C           21.83488044054286       -0.03065248165518        0.09580288935000
C           20.61075955522587       -0.02176850433066        0.09141187745888
C           23.18125597606647       -0.04092091934490        0.09068680737045
C           24.40535172503717       -0.04792895919639        0.08137248699101

          :  Hamiltonian                  GFN1-xTB          :
         :: total energy            -234.121539520416 Eh    ::
         :: gradient norm              0.000340483681 Eh/a0 ::
         :: HOMO-LUMO gap              0.093643623322 eV    ::
         :: SCC energy              -237.862985633383 Eh    ::
         :: repulsion energy           3.879047719889 Eh    ::

    * Orbital Energies and Occupations

         #    Occupation            Energy/Eh            Energy/eV
      -------------------------------------------------------------
         1        2.0000           -0.7681497             -20.9024
       ...           ...                  ...                  ...
       207        2.0000           -0.4206966             -11.4477
       208        2.0000           -0.4206123             -11.4454
       209        2.0000           -0.4200960             -11.4314
       210        2.0000           -0.3968703             -10.7994
       211        2.0000           -0.3960271             -10.7764
       212        2.0000           -0.3960251             -10.7764
       213        1.9907           -0.3875069             -10.5446
       214        1.9905           -0.3874893             -10.5441
       215        1.9483           -0.3858545             -10.4996
       216        1.9481           -0.3858516             -10.4996
       217        1.9464           -0.3858205             -10.4987
       218        1.9449           -0.3857925             -10.4979
       219        1.7320           -0.3841799             -10.4541 (HOMO)
       220        0.2945           -0.3807386             -10.3604 (LUMO)
       221        0.2046           -0.3803435             -10.3497
       222                         -0.3385350              -9.2120
       223                         -0.3249930              -8.8435
       224                         -0.3249916              -8.8435
       225                         -0.3238504              -8.8124
       226                         -0.3006936              -8.1823
       227                         -0.3006868              -8.1821
       228                         -0.2959481              -8.0532
       229                         -0.2875229              -7.8239
       230                         -0.2640669              -7.1856
       ...                                ...                  ...
       494                          1.5102939              41.0972
      -------------------------------------------------------------
                  HL-Gap            0.0034413 Eh            0.0936 eV

Wiberg/Mayer (AO) data.
largest (>0.10) Wiberg bond orders for each atom

     #   Z sym  total        # sym  WBO       # sym  WBO       # sym  WBO
 ---------------------------------------------------------------------------
     1  26 Fe   3.161 --    43 N    0.670     7 N    0.667    21 N    0.662
                            28 N    0.660
     2   6 C    3.923 --    42 C    1.362     3 C    1.362    44 H    0.970
     3   6 C    3.926 --     2 C    1.362     7 N    1.211     4 C    1.174
     4   6 C    3.959 --     5 C    1.649     3 C    1.174    45 H    0.975
     5   6 C    3.962 --     4 C    1.649     6 C    1.175    46 H    0.974
     6   6 C    3.920 --     8 C    1.316     7 N    1.223     5 C    1.175
     7   7 N    3.379 --     6 C    1.223     3 C    1.211     1 Fe   0.667
     8   6 C    3.925 --    18 C    1.340     6 C    1.316     9 C    1.005
     9   6 C    3.987 --    16 C    1.380    10 C    1.379     8 C    1.005
                            13 C    0.104
    10   6 C    3.984 --    12 C    1.421     9 C    1.379    11 C    1.021
                            15 C    0.103
    11   6 C    3.995 --    10 C    1.021    49 H    0.986    48 H    0.974
                            47 H    0.973
    12   6 C    3.993 --    10 C    1.421    13 C    1.414    50 H    0.970
                            16 C    0.103
    13   6 C    3.988 --    12 C    1.414    15 C    1.414    14 C    1.020
                             9 C    0.104
    14   6 C    3.996 --    13 C    1.020    53 H    0.983    51 H    0.983
                            52 H    0.971
    15   6 C    3.993 --    16 C    1.421    13 C    1.414    54 H    0.970
                            10 C    0.103
    16   6 C    3.984 --    15 C    1.421     9 C    1.380    17 C    1.021
                            12 C    0.103
    17   6 C    3.995 --    16 C    1.021    56 H    0.986    57 H    0.974
                            55 H    0.973
    18   6 C    3.917 --     8 C    1.340    21 N    1.197    19 C    1.179
    19   6 C    3.957 --    20 C    1.638    18 C    1.179    58 H    0.974
    20   6 C    3.960 --    19 C    1.638    22 C    1.189    59 H    0.973
    21   7 N    3.380 --    22 C    1.249    18 C    1.197     1 Fe   0.662
    22   6 C    3.906 --    21 N    1.249    23 C    1.249    20 C    1.189
    23   6 C    3.921 --    22 C    1.249    24 C    1.249   150 C    1.205
    24   6 C    3.907 --    28 N    1.249    23 C    1.249    25 C    1.189
    25   6 C    3.960 --    26 C    1.637    24 C    1.189    60 H    0.973
    26   6 C    3.957 --    25 C    1.637    27 C    1.179    61 H    0.974
    27   6 C    3.917 --    29 C    1.338    28 N    1.198    26 C    1.179
    28   7 N    3.379 --    24 C    1.249    27 C    1.198     1 Fe   0.660
    29   6 C    3.925 --    27 C    1.338    39 C    1.317    30 C    1.005
    30   6 C    3.987 --    37 C    1.383    31 C    1.376    29 C    1.005
                            34 C    0.104
    31   6 C    3.984 --    33 C    1.425    30 C    1.376    32 C    1.020
                            36 C    0.102
    32   6 C    3.995 --    31 C    1.020    63 H    0.986    62 H    0.975
                            64 H    0.973
    33   6 C    3.993 --    31 C    1.425    34 C    1.409    65 H    0.971
                            37 C    0.103
    34   6 C    3.988 --    36 C    1.419    33 C    1.409    35 C    1.020
                            30 C    0.104
    35   6 C    3.996 --    34 C    1.020    67 H    0.986    66 H    0.978
                            68 H    0.973
    36   6 C    3.992 --    34 C    1.419    37 C    1.416    69 H    0.970
                            31 C    0.102
    37   6 C    3.984 --    36 C    1.416    30 C    1.383    38 C    1.021
                            33 C    0.103
    38   6 C    3.995 --    37 C    1.021    72 H    0.986    71 H    0.975
                            70 H    0.973
    39   6 C    3.920 --    29 C    1.317    43 N    1.223    40 C    1.174
    40   6 C    3.962 --    41 C    1.649    39 C    1.174    73 H    0.974
    41   6 C    3.959 --    40 C    1.649    42 C    1.174    74 H    0.975
    42   6 C    3.926 --     2 C    1.362    43 N    1.211    41 C    1.174
    43   7 N    3.380 --    39 C    1.223    42 C    1.211     1 Fe   0.670
    44   1 H    1.001 --     2 C    0.970
    45   1 H    0.998 --     4 C    0.975
    46   1 H    1.002 --     5 C    0.974
    47   1 H    1.008 --    11 C    0.973
    48   1 H    1.007 --    11 C    0.974
    49   1 H    1.004 --    11 C    0.986
    50   1 H    1.000 --    12 C    0.970
    51   1 H    1.004 --    14 C    0.983
    52   1 H    1.006 --    14 C    0.971
    53   1 H    1.004 --    14 C    0.983
    54   1 H    1.000 --    15 C    0.970
    55   1 H    1.008 --    17 C    0.973
    56   1 H    1.004 --    17 C    0.986
    57   1 H    1.007 --    17 C    0.974
    58   1 H    1.002 --    19 C    0.974
    59   1 H    1.002 --    20 C    0.973
    60   1 H    1.002 --    25 C    0.973
    61   1 H    1.002 --    26 C    0.974
    62   1 H    1.007 --    32 C    0.975
    63   1 H    1.004 --    32 C    0.986
    64   1 H    1.008 --    32 C    0.973
    65   1 H    0.999 --    33 C    0.971
    66   1 H    1.005 --    35 C    0.978
    67   1 H    1.004 --    35 C    0.986
    68   1 H    1.006 --    35 C    0.973
    69   1 H    1.000 --    36 C    0.970
    70   1 H    1.008 --    38 C    0.973
    71   1 H    1.007 --    38 C    0.975
    72   1 H    1.004 --    38 C    0.986
    73   1 H    1.002 --    40 C    0.974
    74   1 H    0.998 --    41 C    0.975
    75  26 Fe   3.161 --   117 N    0.670    81 N    0.667    95 N    0.662
                           102 N    0.660
    76   6 C    3.923 --   116 C    1.362    77 C    1.362   118 H    0.970
    77   6 C    3.926 --    76 C    1.362    81 N    1.211    78 C    1.174
    78   6 C    3.959 --    79 C    1.649    77 C    1.174   119 H    0.975
    79   6 C    3.962 --    78 C    1.649    80 C    1.175   120 H    0.974
    80   6 C    3.920 --    82 C    1.316    81 N    1.223    79 C    1.175
    81   7 N    3.379 --    80 C    1.223    77 C    1.211    75 Fe   0.667
    82   6 C    3.925 --    92 C    1.340    80 C    1.316    83 C    1.005
    83   6 C    3.987 --    90 C    1.380    84 C    1.379    82 C    1.005
                            87 C    0.104
    84   6 C    3.984 --    86 C    1.421    83 C    1.379    85 C    1.021
                            89 C    0.103
    85   6 C    3.995 --    84 C    1.021   123 H    0.986   122 H    0.974
                           121 H    0.973
    86   6 C    3.993 --    84 C    1.421    87 C    1.414   124 H    0.970
                            90 C    0.103
    87   6 C    3.988 --    86 C    1.414    89 C    1.414    88 C    1.020
                            83 C    0.104
    88   6 C    3.996 --    87 C    1.020   127 H    0.983   125 H    0.983
                           126 H    0.971
    89   6 C    3.993 --    90 C    1.421    87 C    1.414   128 H    0.970
                            84 C    0.103
    90   6 C    3.984 --    89 C    1.421    83 C    1.380    91 C    1.021
                            86 C    0.103
    91   6 C    3.995 --    90 C    1.021   130 H    0.986   131 H    0.974
                           129 H    0.973
    92   6 C    3.917 --    82 C    1.340    95 N    1.197    93 C    1.179
    93   6 C    3.957 --    94 C    1.638    92 C    1.179   132 H    0.974
    94   6 C    3.960 --    93 C    1.638    96 C    1.189   133 H    0.973
    95   7 N    3.380 --    96 C    1.249    92 C    1.197    75 Fe   0.662
    96   6 C    3.906 --    95 N    1.249    97 C    1.249    94 C    1.189
    97   6 C    3.921 --    96 C    1.249    98 C    1.249   152 C    1.205
    98   6 C    3.907 --   102 N    1.249    97 C    1.249    99 C    1.189
    99   6 C    3.960 --   100 C    1.637    98 C    1.189   134 H    0.973
   100   6 C    3.957 --    99 C    1.637   101 C    1.179   135 H    0.974
   101   6 C    3.917 --   103 C    1.338   102 N    1.198   100 C    1.179
   102   7 N    3.379 --    98 C    1.249   101 C    1.198    75 Fe   0.660
   103   6 C    3.925 --   101 C    1.338   113 C    1.317   104 C    1.005
   104   6 C    3.987 --   111 C    1.383   105 C    1.376   103 C    1.005
                           108 C    0.104
   105   6 C    3.984 --   107 C    1.425   104 C    1.376   106 C    1.020
                           110 C    0.102
   106   6 C    3.995 --   105 C    1.020   137 H    0.986   136 H    0.975
                           138 H    0.973
   107   6 C    3.993 --   105 C    1.425   108 C    1.409   139 H    0.971
                           111 C    0.103
   108   6 C    3.988 --   110 C    1.419   107 C    1.409   109 C    1.020
                           104 C    0.104
   109   6 C    3.996 --   108 C    1.020   141 H    0.986   140 H    0.978
                           142 H    0.973
   110   6 C    3.992 --   108 C    1.419   111 C    1.416   143 H    0.970
                           105 C    0.102
   111   6 C    3.984 --   110 C    1.416   104 C    1.383   112 C    1.021
                           107 C    0.103
   112   6 C    3.995 --   111 C    1.021   146 H    0.986   145 H    0.975
                           144 H    0.973
   113   6 C    3.920 --   103 C    1.317   117 N    1.223   114 C    1.174
   114   6 C    3.962 --   115 C    1.649   113 C    1.174   147 H    0.974
   115   6 C    3.959 --   114 C    1.649   116 C    1.174   148 H    0.975
   116   6 C    3.926 --    76 C    1.362   117 N    1.211   115 C    1.174
   117   7 N    3.380 --   113 C    1.223   116 C    1.211    75 Fe   0.670
   118   1 H    1.001 --    76 C    0.970
   119   1 H    0.998 --    78 C    0.975
   120   1 H    1.002 --    79 C    0.974
   121   1 H    1.008 --    85 C    0.973
   122   1 H    1.007 --    85 C    0.974
   123   1 H    1.004 --    85 C    0.986
   124   1 H    1.000 --    86 C    0.970
   125   1 H    1.004 --    88 C    0.983
   126   1 H    1.006 --    88 C    0.971
   127   1 H    1.004 --    88 C    0.983
   128   1 H    1.000 --    89 C    0.970
   129   1 H    1.008 --    91 C    0.973
   130   1 H    1.004 --    91 C    0.986
   131   1 H    1.007 --    91 C    0.974
   132   1 H    1.002 --    93 C    0.974
   133   1 H    1.002 --    94 C    0.973
   134   1 H    1.002 --    99 C    0.973
   135   1 H    1.002 --   100 C    0.974
   136   1 H    1.007 --   106 C    0.975
   137   1 H    1.004 --   106 C    0.986
   138   1 H    1.008 --   106 C    0.973
   139   1 H    0.999 --   107 C    0.971
   140   1 H    1.005 --   109 C    0.978
   141   1 H    1.004 --   109 C    0.986
   142   1 H    1.006 --   109 C    0.973
   143   1 H    1.000 --   110 C    0.970
   144   1 H    1.008 --   112 C    0.973
   145   1 H    1.007 --   112 C    0.975
   146   1 H    1.004 --   112 C    0.986
   147   1 H    1.002 --   114 C    0.974
   148   1 H    0.998 --   115 C    0.975
   149   6 C    3.921 --   150 C    2.446   151 C    1.327
   150   6 C    3.915 --   149 C    2.446    23 C    1.205   152 C    0.195
   151   6 C    3.921 --   152 C    2.446   149 C    1.327
   152   6 C    3.915 --   151 C    2.446    97 C    1.205   150 C    0.195
 ---------------------------------------------------------------------------

           -------------------------------------------------
          | TOTAL ENERGY             -234.121539520416 Eh   |
          | GRADIENT NORM               0.000340483681 Eh/α |
          | HOMO-LUMO GAP               0.093643623322 eV   |
           -------------------------------------------------

 * finished run on 2022/07/29 at 20:18:27.046
