   * xtb version 6.5.1 (b24c23e) compiled by 'conda@728c89f4b128' on 2022-07-12
          program call               : xtb Ph3Me_C8_2.xyz --gfn 1 --opt -T 48

   ID    Z sym.   atoms
    1    6 C      1-5, 7-19, 21-26, 28-41, 76-80, 82-94, 96-101, 103-116,
                  151-158
    2    7 N      6, 20, 27, 42, 81, 95, 102, 117
    3    1 H      43-75, 118-150
########################################################################
[WARNING] Please study the warnings concerning your input carefully
-1- prog_main_parseArguments: Unknown option '-T' provided
########################################################################

          :  Hamiltonian                  GFN1-xTB          :
 * total energy  :  -238.2075267 Eh     change       -0.7977405E-09 Eh
 * total energy  :  -238.4133099 Eh     change       -0.2057832E+00 Eh
 * total energy  :  -238.4892877 Eh     change       -0.7597777E-01 Eh
 * total energy  :  -238.5146307 Eh     change       -0.2534301E-01 Eh
 * total energy  :  -238.5252336 Eh     change       -0.1060285E-01 Eh
 * total energy  :  -238.5315000 Eh     change       -0.6266419E-02 Eh
 * total energy  :  -238.5338438 Eh     change       -0.2343815E-02 Eh
 * total energy  :  -238.5369023 Eh     change       -0.3058464E-02 Eh
 * total energy  :  -238.5385720 Eh     change       -0.1669763E-02 Eh
 * total energy  :  -238.5403260 Eh     change       -0.1753992E-02 Eh
 * total energy  :  -238.5435136 Eh     change       -0.1017742E-04 Eh
 * total energy  :  -238.5435243 Eh     change       -0.1067598E-04 Eh
 * total energy  :  -238.5435372 Eh     change       -0.1298623E-04 Eh
 * total energy  :  -238.5435519 Eh     change       -0.1468981E-04 Eh
 * total energy  :  -238.5435688 Eh     change       -0.1685234E-04 Eh
 * total energy  :  -238.5435848 Eh     change       -0.1604936E-04 Eh
 * total energy  :  -238.5435994 Eh     change       -0.1460476E-04 Eh
 * total energy  :  -238.5436139 Eh     change       -0.1449311E-04 Eh
 * total energy  :  -238.5436179 Eh     change       -0.3982675E-05 Eh
   *** GEOMETRY OPTIMIZATION CONVERGED AFTER 44 ITERATIONS ***

 final structure:
================
158
 xtb: 6.5.1 (b24c23e)
C           10.66752599550406       -0.13380290969740       -0.03706392046668
C           11.29477236568428       -1.37198765718338       -0.09116979039209
C           10.67284500134555       -2.65033135434171       -0.16694325571755
C           11.65860038866960       -3.59631635725924       -0.20477442392299
C           12.91396789135705       -2.92554992368653       -0.15334671856610
N           12.64389638550977       -1.58828546241025       -0.08466831694252
C           14.18373402259352       -3.50739676499067       -0.16920121529769
C           14.23023982623603       -4.99699872148669       -0.25463258846824
C           14.22427303695054       -5.62422565661911       -1.50373165523680
C           14.16243744032825       -4.79757424484853       -2.76055562654255
C           14.27783551334269       -7.01153566414182       -1.57218200731354
C           14.33796288846657       -7.78236647786024       -0.41594468659360
C           14.38210260701358       -9.28416215075831       -0.50161275142840
C           14.33811112128510       -7.14767979579249        0.82194983678429
C           14.28513933970275       -5.76185078764317        0.91411014362555
C           14.29116728182078       -5.08282743151017        2.25780099427261
C           15.39535859201499       -2.82044831373729       -0.11372861418618
C           16.68880352317732       -3.47952566721536       -0.13513207733322
C           17.61652437353963       -2.50230005337207       -0.06349096222094
N           15.55865717776772       -1.47053031389184       -0.03292051073577
C           16.88775529772630       -1.24986938968978       -0.00059932107928
C           17.52568148406637        0.00617649462118        0.07894904697896
C           16.87181475008790        1.25208594176898        0.13017953761071
C           17.48706164927149        2.53010135997074        0.20349967700377
C           16.49699786833993        3.47335677429856        0.22987348772879
C           15.24608991191927        2.79785866750319        0.17350327349455
N           15.52481283102610        1.45762334800941        0.11501784525772
C           13.97788733322718        3.38167735428448        0.17761749834366
C           13.93414438365300        4.87216462015301        0.24147460440070
C           13.97607277814991        5.62195751466630       -0.93750337907114
C           14.06023678161931        4.92565497222018       -2.26973441459418
C           13.94285167043491        7.00974930729020       -0.86664487772413
C           13.86924131433371        7.66132727646364        0.36007134424104
C           13.81831111740077        9.16400995062635        0.42328319925690
C           13.82298944274432        6.90508686590551        1.52669766478472
C           13.85482826916419        5.51630914296045        1.47956145509852
C           13.80696041669470        4.70585063230152        2.74742375147751
C           12.76478753860004        2.69254878067572        0.12638627568541
C           11.46500806175458        3.34551135809158        0.13391537162101
C           10.54371189209268        2.36247215671451        0.07630727656303
C           11.28036434750562        1.11113149768568        0.03162537783435
N           12.61463365525970        1.34804816776097        0.06351464522824
H            9.58267475985270       -0.15000603809197       -0.05342836324535
H            9.60672200249045       -2.81108186864213       -0.18933063440994
H           11.53936233569329       -4.66639023919706       -0.26200537990316
H           13.34766473334934       -0.85935312241472       -0.03728035403431
H           13.22316112620981       -4.24234581462876       -2.80208283009438
H           14.23250230547449       -5.42919247755216       -3.64561825898116
H           14.97896581042053       -4.07365625016042       -2.77993973937085
H           14.27656662091267       -7.49781407729028       -2.54224878297434
H           13.36754291939051       -9.68854506237261       -0.47374208039298
H           14.85038009845739       -9.60668763684143       -1.43182585863069
H           14.93726056862543       -9.70442642620418        0.33740959868803
H           14.38364098733842       -7.74107677091199        1.72931821357855
H           13.40589364870657       -4.45397362132295        2.36949675529397
H           14.30383502526694       -5.81556950996840        3.06410823047519
H           15.16975719763976       -4.44205906938779        2.35393736525443
H           16.83794519617854       -4.54548031677916       -0.19857169897969
H           18.69095871622874       -2.59298296465237       -0.05419706092039
H           18.55212281071837        2.69513694802133        0.23150582165768
H           16.61273865917797        4.54375779052656        0.28461583299833
H           14.82422487819643        0.72537692076506        0.06654549195536
H           13.99994406033909        5.64266902823851       -3.08794522702538
H           15.00282555408643        4.38078044353849       -2.35271380067500
H           13.24773826648110        4.20450640651559       -2.37382209194957
H           13.97709866526841        7.59119744240527       -1.78220437678883
H           14.26348546275762        9.52907226802732        1.34917305677548
H           12.78019548034808        9.50279548030878        0.38905822472844
H           14.34714907374317        9.60642171498890       -0.42129100175978
H           13.76361067391370        7.40467961566939        2.48815099862866
H           13.74048521687467        5.35359396162025        3.62104522686994
H           12.94213221902100        4.03985781613370        2.73888770494527
H           14.70273036348127        4.08827275183298        2.83690576197710
H           11.31103570116893        4.41204245799836        0.17688213811425
H            9.46801569171146        2.44388563254413        0.06256088551499
C           36.12703925390984        0.13049686783845       -0.03333373010954
C           35.50005663445772        1.36420619519971       -0.15296576373755
C           36.12226044336348        2.63711364078049       -0.29175922113845
C           35.13664329707655        3.57964862725151       -0.38237243626906
C           33.88108169559995        2.91212671147079       -0.30147274409952
N           34.15091293163777        1.58022730424153       -0.16314431914043
C           32.61138284254919        3.49225658336670       -0.35087544078930
C           32.56522903737292        4.97561879029106       -0.51190342146853
C           32.57585884514127        5.53913173552253       -1.79097020009560
C           32.64367962324568        4.65030429757555       -3.00430057840029
C           32.52162528914282        6.92119959723533       -1.92942822016815
C           32.45642288352003        7.74925925419365       -0.81374326784483
C           32.41097707560131        9.24478196795429       -0.97512390631478
C           32.45249947023507        7.17777304716939        0.45456415840801
C           32.50606197224954        5.79840328757265        0.61661605656391
C           32.49653401702226        5.18793790825712        1.99278976120286
C           31.39956773025640        2.80904198886254       -0.26234919157066
C           30.10613113843725        3.46610007930997       -0.31865175195808
C           29.17834056165736        2.49392736366855       -0.19663408295660
N           31.23612787583308        1.46504932224210       -0.11223543994823
C           29.90702534036932        1.24636016730598       -0.06899351981232
C           29.26860818840116       -0.00364066228312        0.07517252708126
C           29.92199369527382       -1.24563733676846        0.18934251010838
C           29.30663918224620       -2.51824846027090        0.32712918441305
C           30.29662878604442       -3.45904932536289        0.40087416713911
C           31.54757155227449       -2.78730725119446        0.31075482669038
N           31.26898005283142       -1.45174965246283        0.18447710539109
C           32.81569536729508       -3.37015763661357        0.34576187881117
C           32.85932106760919       -4.85544678527722        0.48534396688621
C           32.81818711338161       -5.66453493350688       -0.65375434378565
C           32.73368723620765       -5.03732419656816       -2.01985719071562
C           32.85237637277842       -7.04687167268258       -0.51198546278340
C           32.92602521100100       -7.63479388847441        0.74647363571264
C           32.97861165780697       -9.13220977000586        0.88648839867317
C           32.97076177808418       -6.81987245595296        1.87296277412889
C           32.93795872374045       -5.43536950070772        1.75483959385044
C           32.98392589653552       -4.56100880278214        2.97958346881230
C           34.02896043762417       -2.68441070889016        0.26294121349629
C           35.32864188283282       -3.33609740419730        0.30726703875555
C           36.25021963153995       -2.35700314709830        0.20465326708977
C           35.51383498765190       -1.10950617377991        0.09517728623085
N           34.17943175750257       -1.34468890753722        0.13384531366950
H           37.21194977366874        0.14603290771119       -0.04580888209321
H           37.18846497966526        2.79675247051143       -0.31790692579351
H           35.25605907988615        4.64539094791275       -0.49411894451133
H           33.44697865069567        0.85456287357333       -0.08084650255028
H           33.58364067739269        4.09475335434656       -3.01383006964327
H           32.57690083916149        5.23647798707577       -3.92034081188111
H           31.82790694016672        3.92541166676245       -2.99067139125991
H           32.52634002694285        7.35801294911572       -2.92274387946007
H           33.42500263267244        9.65132182885239       -0.96475842592939
H           31.94506381751597        9.51945011821025       -1.92174342723368
H           31.85289486842346        9.70610350279430       -0.15994781850105
H           32.40348094025747        7.81611239578690        1.33070926020257
H           33.38163356769965        4.56576672143675        2.13825052636269
H           32.48170058295570        5.96034846434459        2.76113783880775
H           31.61782027991999        4.55255436109911        2.11882947186086
H           29.95705248900750        4.52734127331636       -0.43729716715784
H           28.10387207225915        2.58475010590188       -0.19238584817476
H           28.24159657212126       -2.68174615329361        0.36345345774801
H           30.18078328400618       -4.52531120145848        0.50956731135536
H           31.96962665840461       -0.72286113295487        0.09979148333310
H           32.79482855315326       -5.79517345726698       -2.80033358954134
H           31.79054549956359       -4.49838601326612       -2.13071538648954
H           33.54545497889300       -4.32159474778504       -2.16057138024537
H           32.81895032322210       -7.67441253276077       -1.39662080376833
H           32.53361537967265       -9.44993249026465        1.82975411080547
H           34.01713728780221       -9.47106334147081        0.86987786731436
H           32.45054062460308       -9.61788202862301        0.06553676034766
H           33.02977408423086       -7.26960401300831        2.85874461015172
H           33.04804390710517       -5.16312743051874        3.88541833425250
H           33.84932227055100       -3.89695113350798        2.93873425669658
H           32.08849540310169       -3.93898768168149        3.03535099003591
H           35.48236361530396       -4.39919288348279        0.40335287837830
H           37.32595123720860       -2.43888034847158        0.19899643784643
C           18.92982803536561        0.02592510120539        0.10408787109284
C           20.15483654602621        0.02526278946984        0.12412587359718
C           21.49720796134633        0.01685262368851        0.14219277163297
C           22.72828987890077       -0.00182558111127        0.14845395128520
C           24.06608518159193       -0.01283706003212        0.14926721158804
C           25.29714335482533       -0.02880031351610        0.14078073558574
C           26.63957179344829       -0.03470098587199        0.12624126036423
C           27.86451541702619       -0.02233647602531        0.10404212269020

          :  Hamiltonian                  GFN1-xTB          :
         :: total energy            -238.543617919328 Eh    ::
         :: gradient norm              0.000812018716 Eh/a0 ::
         :: HOMO-LUMO gap              1.010513722630 eV    ::
         :: SCC energy              -242.584417764175 Eh    ::
         :: repulsion energy           4.173973617657 Eh    ::

    * Orbital Energies and Occupations

         #    Occupation            Energy/Eh            Energy/eV
      -------------------------------------------------------------
         1        2.0000           -0.8025322             -21.8380
       ...           ...                  ...                  ...
       209        2.0000           -0.4197060             -11.4208
       210        2.0000           -0.4190873             -11.4039
       211        2.0000           -0.4190778             -11.4037
       212        2.0000           -0.4148957             -11.2899
       213        2.0000           -0.4147936             -11.2871
       214        2.0000           -0.4141365             -11.2692
       215        2.0000           -0.4140763             -11.2676
       216        2.0000           -0.4108309             -11.1793
       217        2.0000           -0.4048806             -11.0174
       218        2.0000           -0.3973537             -10.8125
       219        2.0000           -0.3970727             -10.8049
       220        2.0000           -0.3846561             -10.4670
       221        2.0000           -0.3766311             -10.2487 (HOMO)
       222                         -0.3394954              -9.2381 (LUMO)
       223                         -0.3301261              -8.9832
       224                         -0.3276846              -8.9168
       225                         -0.3276472              -8.9157
       226                         -0.3004377              -8.1753
       227                         -0.2978988              -8.1062
       228                         -0.2909968              -7.9184
       229                         -0.2721330              -7.4051
       230                         -0.2558434              -6.9619
       231                         -0.2558396              -6.9618
       232                         -0.2557401              -6.9590
       ...                                ...                  ...
       500                          1.6060951              43.7041
      -------------------------------------------------------------
                  HL-Gap            0.0371357 Eh            1.0105 eV

Wiberg/Mayer (AO) data.
largest (>0.10) Wiberg bond orders for each atom

     #   Z sym  total        # sym  WBO       # sym  WBO       # sym  WBO
 ---------------------------------------------------------------------------
     1   6 C    3.924 --    41 C    1.364     2 C    1.347    43 H    0.971
     2   6 C    3.903 --     1 C    1.347     3 C    1.229     6 N    1.170
     3   6 C    3.953 --     4 C    1.596     2 C    1.229    44 H    0.977
     4   6 C    3.959 --     3 C    1.596     5 C    1.232    45 H    0.975
     5   6 C    3.895 --     7 C    1.308     4 C    1.232     6 N    1.173
     6   7 N    3.469 --     5 C    1.173     2 C    1.170    46 H    0.874
     7   6 C    3.940 --    17 C    1.344     5 C    1.308     8 C    1.003
     8   6 C    3.987 --     9 C    1.382    15 C    1.381     7 C    1.003
                            12 C    0.104
     9   6 C    3.984 --    11 C    1.420     8 C    1.382    10 C    1.020
                            14 C    0.103
    10   6 C    3.996 --     9 C    1.020    48 H    0.986    49 H    0.975
                            47 H    0.974
    11   6 C    3.993 --     9 C    1.420    12 C    1.414    50 H    0.970
                            15 C    0.103
    12   6 C    3.988 --    11 C    1.414    14 C    1.414    13 C    1.020
                             8 C    0.104
    13   6 C    3.996 --    12 C    1.020    52 H    0.983    53 H    0.983
                            51 H    0.971
    14   6 C    3.993 --    15 C    1.421    12 C    1.414    54 H    0.970
                             9 C    0.103
    15   6 C    3.985 --    14 C    1.421     8 C    1.381    16 C    1.020
                            11 C    0.103
    16   6 C    3.996 --    15 C    1.020    56 H    0.986    55 H    0.975
                            57 H    0.973
    17   6 C    3.915 --     7 C    1.344    20 N    1.279    18 C    1.124
    18   6 C    3.966 --    19 C    1.710    17 C    1.124    58 H    0.975
    19   6 C    3.964 --    18 C    1.710    21 C    1.129    59 H    0.974
    20   7 N    3.023 --    21 C    1.349    17 C    1.279
    21   6 C    3.909 --    20 N    1.349    22 C    1.249    19 C    1.129
    22   6 C    3.937 --    23 C    1.251    21 C    1.249   151 C    1.196
    23   6 C    3.885 --    22 C    1.251    24 C    1.249    27 N    1.191
    24   6 C    3.959 --    25 C    1.584    23 C    1.249    60 H    0.975
    25   6 C    3.955 --    24 C    1.584    26 C    1.238    61 H    0.975
    26   6 C    3.898 --    28 C    1.317    25 C    1.238    27 N    1.161
    27   7 N    3.473 --    23 C    1.191    26 C    1.161    62 H    0.873
    28   6 C    3.925 --    38 C    1.328    26 C    1.317    29 C    1.004
    29   6 C    3.987 --    30 C    1.381    36 C    1.381    28 C    1.004
                            33 C    0.104
    30   6 C    3.983 --    32 C    1.420    29 C    1.381    31 C    1.020
                            35 C    0.103
    31   6 C    3.996 --    30 C    1.020    63 H    0.986    65 H    0.975
                            64 H    0.973
    32   6 C    3.993 --    30 C    1.420    33 C    1.414    66 H    0.970
                            36 C    0.103
    33   6 C    3.988 --    32 C    1.414    35 C    1.414    34 C    1.020
                            29 C    0.104
    34   6 C    3.996 --    33 C    1.020    69 H    0.983    67 H    0.983
                            68 H    0.971
    35   6 C    3.993 --    36 C    1.421    33 C    1.414    70 H    0.970
                            30 C    0.103
    36   6 C    3.983 --    35 C    1.421    29 C    1.381    37 C    1.020
                            32 C    0.103
    37   6 C    3.996 --    36 C    1.020    71 H    0.986    73 H    0.974
                            72 H    0.974
    38   6 C    3.929 --    28 C    1.328    42 N    1.312    39 C    1.117
    39   6 C    3.967 --    40 C    1.723    38 C    1.117    74 H    0.975
    40   6 C    3.966 --    39 C    1.723    41 C    1.117    75 H    0.976
    41   6 C    3.930 --     1 C    1.364    42 N    1.303    40 C    1.117
    42   7 N    3.012 --    38 C    1.312    41 C    1.303
    43   1 H    1.002 --     1 C    0.971
    44   1 H    0.998 --     3 C    0.977
    45   1 H    1.002 --     4 C    0.975
    46   1 H    0.987 --     6 N    0.874
    47   1 H    1.008 --    10 C    0.974
    48   1 H    1.004 --    10 C    0.986
    49   1 H    1.007 --    10 C    0.975
    50   1 H    1.000 --    11 C    0.970
    51   1 H    1.006 --    13 C    0.971
    52   1 H    1.004 --    13 C    0.983
    53   1 H    1.004 --    13 C    0.983
    54   1 H    1.000 --    14 C    0.970
    55   1 H    1.008 --    16 C    0.975
    56   1 H    1.004 --    16 C    0.986
    57   1 H    1.008 --    16 C    0.973
    58   1 H    1.002 --    18 C    0.975
    59   1 H    1.003 --    19 C    0.974
    60   1 H    1.002 --    24 C    0.975
    61   1 H    1.002 --    25 C    0.975
    62   1 H    0.988 --    27 N    0.873
    63   1 H    1.004 --    31 C    0.986
    64   1 H    1.008 --    31 C    0.973
    65   1 H    1.007 --    31 C    0.975
    66   1 H    1.000 --    32 C    0.970
    67   1 H    1.004 --    34 C    0.983
    68   1 H    1.006 --    34 C    0.971
    69   1 H    1.004 --    34 C    0.983
    70   1 H    1.000 --    35 C    0.970
    71   1 H    1.004 --    37 C    0.986
    72   1 H    1.008 --    37 C    0.974
    73   1 H    1.008 --    37 C    0.974
    74   1 H    1.002 --    39 C    0.975
    75   1 H    0.998 --    40 C    0.976
    76   6 C    3.924 --   116 C    1.364    77 C    1.347   118 H    0.971
    77   6 C    3.903 --    76 C    1.347    78 C    1.229    81 N    1.170
    78   6 C    3.953 --    79 C    1.596    77 C    1.229   119 H    0.977
    79   6 C    3.959 --    78 C    1.596    80 C    1.232   120 H    0.975
    80   6 C    3.895 --    82 C    1.308    79 C    1.232    81 N    1.173
    81   7 N    3.469 --    80 C    1.173    77 C    1.170   121 H    0.874
    82   6 C    3.940 --    92 C    1.344    80 C    1.308    83 C    1.003
    83   6 C    3.987 --    84 C    1.382    90 C    1.381    82 C    1.003
                            87 C    0.104
    84   6 C    3.984 --    86 C    1.420    83 C    1.382    85 C    1.020
                            89 C    0.103
    85   6 C    3.996 --    84 C    1.020   123 H    0.986   124 H    0.975
                           122 H    0.974
    86   6 C    3.993 --    84 C    1.420    87 C    1.414   125 H    0.970
                            90 C    0.103
    87   6 C    3.988 --    86 C    1.414    89 C    1.414    88 C    1.020
                            83 C    0.104
    88   6 C    3.996 --    87 C    1.020   127 H    0.983   128 H    0.983
                           126 H    0.971
    89   6 C    3.993 --    90 C    1.421    87 C    1.414   129 H    0.970
                            84 C    0.103
    90   6 C    3.985 --    89 C    1.421    83 C    1.381    91 C    1.020
                            86 C    0.103
    91   6 C    3.996 --    90 C    1.020   131 H    0.986   130 H    0.975
                           132 H    0.973
    92   6 C    3.915 --    82 C    1.344    95 N    1.279    93 C    1.124
    93   6 C    3.966 --    94 C    1.710    92 C    1.124   133 H    0.975
    94   6 C    3.964 --    93 C    1.710    96 C    1.129   134 H    0.974
    95   7 N    3.023 --    96 C    1.349    92 C    1.279
    96   6 C    3.909 --    95 N    1.349    97 C    1.249    94 C    1.129
    97   6 C    3.937 --    98 C    1.250    96 C    1.249   158 C    1.196
    98   6 C    3.885 --    97 C    1.250    99 C    1.249   102 N    1.191
    99   6 C    3.959 --   100 C    1.584    98 C    1.249   135 H    0.975
   100   6 C    3.955 --    99 C    1.584   101 C    1.238   136 H    0.975
   101   6 C    3.898 --   103 C    1.317   100 C    1.238   102 N    1.161
   102   7 N    3.473 --    98 C    1.191   101 C    1.161   137 H    0.873
   103   6 C    3.925 --   113 C    1.328   101 C    1.317   104 C    1.004
   104   6 C    3.987 --   105 C    1.381   111 C    1.381   103 C    1.004
                           108 C    0.104
   105   6 C    3.983 --   107 C    1.420   104 C    1.381   106 C    1.020
                           110 C    0.103
   106   6 C    3.996 --   105 C    1.020   138 H    0.986   140 H    0.975
                           139 H    0.973
   107   6 C    3.993 --   105 C    1.420   108 C    1.414   141 H    0.970
                           111 C    0.103
   108   6 C    3.988 --   107 C    1.414   110 C    1.414   109 C    1.020
                           104 C    0.104
   109   6 C    3.996 --   108 C    1.020   144 H    0.983   142 H    0.983
                           143 H    0.971
   110   6 C    3.993 --   111 C    1.421   108 C    1.414   145 H    0.970
                           105 C    0.103
   111   6 C    3.983 --   110 C    1.421   104 C    1.381   112 C    1.020
                           107 C    0.103
   112   6 C    3.996 --   111 C    1.020   146 H    0.986   148 H    0.974
                           147 H    0.974
   113   6 C    3.929 --   103 C    1.328   117 N    1.312   114 C    1.117
   114   6 C    3.967 --   115 C    1.723   113 C    1.117   149 H    0.975
   115   6 C    3.966 --   114 C    1.723   116 C    1.117   150 H    0.976
   116   6 C    3.930 --    76 C    1.364   117 N    1.303   115 C    1.117
   117   7 N    3.012 --   113 C    1.312   116 C    1.303
   118   1 H    1.002 --    76 C    0.971
   119   1 H    0.998 --    78 C    0.977
   120   1 H    1.002 --    79 C    0.975
   121   1 H    0.987 --    81 N    0.874
   122   1 H    1.008 --    85 C    0.974
   123   1 H    1.004 --    85 C    0.986
   124   1 H    1.007 --    85 C    0.975
   125   1 H    1.000 --    86 C    0.970
   126   1 H    1.006 --    88 C    0.971
   127   1 H    1.004 --    88 C    0.983
   128   1 H    1.004 --    88 C    0.983
   129   1 H    1.000 --    89 C    0.970
   130   1 H    1.008 --    91 C    0.975
   131   1 H    1.004 --    91 C    0.986
   132   1 H    1.008 --    91 C    0.973
   133   1 H    1.002 --    93 C    0.975
   134   1 H    1.003 --    94 C    0.974
   135   1 H    1.002 --    99 C    0.975
   136   1 H    1.002 --   100 C    0.975
   137   1 H    0.988 --   102 N    0.873
   138   1 H    1.004 --   106 C    0.986
   139   1 H    1.008 --   106 C    0.973
   140   1 H    1.007 --   106 C    0.975
   141   1 H    1.000 --   107 C    0.970
   142   1 H    1.004 --   109 C    0.983
   143   1 H    1.006 --   109 C    0.971
   144   1 H    1.004 --   109 C    0.983
   145   1 H    1.000 --   110 C    0.970
   146   1 H    1.004 --   112 C    0.986
   147   1 H    1.008 --   112 C    0.974
   148   1 H    1.008 --   112 C    0.974
   149   1 H    1.002 --   114 C    0.975
   150   1 H    0.998 --   115 C    0.976
   151   6 C    3.877 --   152 C    2.435    22 C    1.196   154 C    0.186
   152   6 C    3.932 --   151 C    2.435   153 C    1.347
   153   6 C    3.892 --   154 C    2.332   152 C    1.347   156 C    0.182
   154   6 C    3.924 --   153 C    2.332   155 C    1.371   151 C    0.186
   155   6 C    3.924 --   156 C    2.332   154 C    1.371   158 C    0.186
   156   6 C    3.892 --   155 C    2.332   157 C    1.347   153 C    0.182
   157   6 C    3.931 --   158 C    2.435   156 C    1.347
   158   6 C    3.877 --   157 C    2.435    97 C    1.196   155 C    0.186
 ---------------------------------------------------------------------------

           -------------------------------------------------
          | TOTAL ENERGY             -238.543617919328 Eh   |
          | GRADIENT NORM               0.000812018716 Eh/α |
          | HOMO-LUMO GAP               1.010513722630 eV   |
           -------------------------------------------------

 * finished run on 2022/07/29 at 08:05:47.194
