   * xtb version 6.5.1 (b24c23e) compiled by 'conda@728c89f4b128' on 2022-07-12
          program call               : xtb Co_C2Py_C2_3.xyz --gfn 1 --opt -T 48

   ID    Z sym.   atoms
    1   27 Co     1, 59, 121
    2    6 C      2-6, 8-13, 15-19, 21-26, 28-33, 35-40, 60-64, 66-71, 73-77,
                  79-84, 86-91, 93-98, 117-120, 122-126, 128-133, 135-139,
                  141-146, 148-153, 155-160
    3    7 N      7, 14, 20, 27, 34, 41, 65, 72, 78, 85, 92, 99, 127, 134,
                  140, 147, 154, 161
    4    1 H      42-58, 100-116, 162-177
########################################################################
[WARNING] Please study the warnings concerning your input carefully
-1- prog_main_parseArguments: Unknown option '-T' provided
########################################################################

          :  Hamiltonian                  GFN1-xTB          :
 * total energy  :  -317.9102198 Eh     change       -0.1393744E-08 Eh
 * total energy  :  -318.1379584 Eh     change       -0.2277386E+00 Eh
 * total energy  :  -318.2645048 Eh     change       -0.1265464E+00 Eh
 * total energy  :  -318.3201474 Eh     change       -0.5564253E-01 Eh
 * total energy  :  -318.3528937 Eh     change       -0.3274635E-01 Eh
 * total energy  :  -318.3776907 Eh     change       -0.2479701E-01 Eh
 * total energy  :  -318.3967024 Eh     change       -0.1901171E-01 Eh
 * total energy  :  -318.4112794 Eh     change       -0.1457703E-01 Eh
 * total energy  :  -318.4233674 Eh     change       -0.1208791E-01 Eh
 * total energy  :  -318.4345729 Eh     change       -0.1120553E-01 Eh
 * total energy  :  -318.5209091 Eh     change       -0.5072262E-05 Eh
 * total energy  :  -318.5209142 Eh     change       -0.5080263E-05 Eh
 * total energy  :  -318.5209203 Eh     change       -0.6097086E-05 Eh
 * total energy  :  -318.5209276 Eh     change       -0.7283791E-05 Eh
 * total energy  :  -318.5209362 Eh     change       -0.8605031E-05 Eh
 * total energy  :  -318.5209471 Eh     change       -0.1094209E-04 Eh
 * total energy  :  -318.5209607 Eh     change       -0.1360634E-04 Eh
 * total energy  :  -318.5209761 Eh     change       -0.1539205E-04 Eh
 * total energy  :  -318.5209809 Eh     change       -0.4827369E-05 Eh
   *** GEOMETRY OPTIMIZATION CONVERGED AFTER 420 ITERATIONS ***

 final structure:
================
177
 xtb: 6.5.1 (b24c23e)
Co          35.27068608047014        0.12308220622804        0.22925862158566
C           32.11830547043812        0.87807323896019       -0.59170119049840
C           32.87551280216152        1.85135846671571        0.03003615533538
C           32.37821716998236        3.13513117676979        0.42194948843766
C           33.35009310832162        3.71799347184815        1.16688230153599
C           34.46268741612047        2.81806488422256        1.16833279960066
N           34.15721205387081        1.67598685455977        0.48848884293264
C           35.73496085940269        3.14974046501428        1.64565318344802
C           35.90653864332086        4.34322109081514        2.37580837186272
C           36.04934759072519        5.35373761146181        3.03253745190398
C           36.21422459055633        6.53426181124754        3.79242850932448
C           37.47443420671600        6.92877398534822        4.25686694025002
C           37.58121859523523        8.09251544924247        4.99741873748233
N           36.53848079679182        8.86388690297469        5.29441057974543
C           35.33705059909683        8.49547616901186        4.85703109504474
C           35.12257978844749        7.35112783216626        4.10964524466596
C           36.85621083683477        2.39590368556622        1.29481404691056
C           38.20219014320227        2.86259791048741        1.40447254226373
C           38.98583895634241        1.93742398977802        0.79410610351450
N           36.82180022631395        1.17659383359986        0.67316690022612
C           38.12167403218820        0.87725258964873        0.37947625291564
C           38.57924485010410       -0.36937764297633       -0.06681458489931
C           37.73483559924397       -1.48728990845919       -0.08421148320437
C           38.19332723682538       -2.83778132342041       -0.15848056346530
C           37.10015689587824       -3.62983853584690       -0.01807335543802
C           35.97185808773333       -2.75722737706064        0.07385599237381
N           36.37820257928998       -1.44842584673532        0.06329506438304
C           34.64695240113446       -3.18585479040202       -0.01169172863832
C           34.36668721372754       -4.56765032613910        0.00453127930731
C           34.11949539189730       -5.75556761268172        0.02654947015590
C           33.83896017235853       -7.14103903323962        0.03864606470066
C           34.86063223765967       -8.08458492139167        0.19862306633198
C           34.53671653580478       -9.42953379271469        0.19803462676347
N           33.29240363054029       -9.87770600743917        0.05171826462155
C           32.31553404137890       -8.98718993529781       -0.10028517111654
C           32.53290252616770       -7.62083597959151       -0.11392905998095
C           33.60545961238978       -2.28531459216429       -0.26120691574495
C           32.29953609908837       -2.67095531293457       -0.70078188689875
C           31.62994390118552       -1.52676459010093       -0.98589550213274
C           32.50776166009857       -0.44471554321253       -0.65668043495847
N           33.72293900102799       -0.92778711505183       -0.23616836223248
H           31.12155365794404        1.13826373184055       -0.92866753571034
H           31.39782421833229        3.51230386932269        0.17798809103566
H           33.34421497850656        4.68366013330462        1.64674422929385
H           38.34994413533467        6.32941621449328        4.03835412757550
H           38.54630265907179        8.42221924632874        5.37122384560581
H           34.50860592164458        9.14800017897335        5.11727103835847
H           34.12695800617232        7.08812145283803        3.77337069439622
H           38.49210628732091        3.79581847251000        1.86011538714796
H           40.05669826061133        1.94140384818918        0.66901447732172
H           39.22494802590951       -3.13010053262961       -0.27005943894545
H           37.04442603927002       -4.70659050763834       -0.01391227364747
H           35.88778863591103       -7.76235772214999        0.31972044515652
H           35.30928949586439      -10.18337158002094        0.31915348642147
H           31.31255457275187       -9.38767756118355       -0.21644367300638
H           31.70773955946626       -6.93055427296500       -0.24095934470969
H           31.96438512441683       -3.69100774697102       -0.80066595516985
H           30.62240934562683       -1.40786893170102       -1.35150296013421
Co          55.94144847530117       -0.04942538996997        1.45749537753557
C           58.32396588334174        0.23020131650671        3.79245282870384
C           58.01582172543132       -1.03260092416573        3.32759869047011
C           58.70121713764112       -2.22555130242205        3.72333696341455
C           58.28337132491142       -3.20892063556978        2.88830955164850
C           57.29631543033307       -2.62837239024261        2.03052100666811
N           57.14335662984258       -1.30135290319047        2.30169110437008
C           56.51000908344523       -3.35959012491564        1.13383001502534
C           56.82965993724756       -4.70994017542158        0.88446361363034
C           57.11382901959109       -5.86607436308802        0.64923982077387
C           57.45455374011089       -7.21283279180537        0.38754779894921
C           56.69023347204732       -8.00171965761036       -0.48006980458285
C           57.07101737968492       -9.31292243118613       -0.70382634024792
N           58.13573579922630       -9.86893101293466       -0.13144935590509
C           58.86704399973553       -9.12580122437979        0.69530775890676
C           58.57264201726372       -7.80566864696587        0.98594929865617
C           55.34286410915166       -2.82316062189402        0.58964065597484
C           54.32291540325026       -3.60499776394518       -0.03511484726044
C           53.25995820599131       -2.78147846910234       -0.21752986511218
N           54.93227466761074       -1.52314208961097        0.72784254333455
C           53.65930760620889       -1.48675535135586        0.23538533434409
C           52.89844220024412       -0.32509805322430        0.04572861585902
C           53.48085649881473        0.94523786760413        0.14547306370140
C           52.88694607170181        2.13682485889113       -0.37245978898650
C           53.82602355358701        3.11232745806035       -0.28404808898301
C           54.96342801341820        2.52802718030820        0.35355061621416
N           54.74389222686192        1.19885576922249        0.60064550977449
C           56.07082743781908        3.25649000936120        0.79006459103635
C           56.20438903628389        4.60456093111255        0.39907107072091
C           56.32988243885090        5.75817961077313        0.04380223011913
C           56.47058271958950        7.10216250229469       -0.37152700081629
C           55.49461977532734        7.72177668455055       -1.16097932262117
C           55.67919081224125        9.03836678890162       -1.54387433549422
N           56.74717041024119        9.75308832835792       -1.19886495509995
C           57.67933111901601        9.17139333344509       -0.44836856153208
C           57.58977147406042        7.86174876726806       -0.01126622480576
C           56.97263018566191        2.72208134936418        1.71582023739554
C           57.90291317859766        3.50637972609914        2.46899639368067
C           58.44078011597004        2.68292494735144        3.40244630947625
C           57.88693576899515        1.38325843216557        3.17133111637201
N           56.97951506269830        1.42692789280581        2.14194115253996
H           59.04145443374553        0.32062587903093        4.59978808128663
H           59.43104290192939       -2.27778959960432        4.51551348468076
H           58.58257093008903       -4.24461318192763        2.86274690144634
H           55.81552806755152       -7.58862982445319       -0.96769176707555
H           56.49727414243399       -9.94772272458211       -1.37293900836028
H           59.72845754754611       -9.61107707136809        1.14505493288709
H           59.19522757420057       -7.23607694643758        1.66527035504694
H           54.40920101950366       -4.65481715885041       -0.26509076534768
H           52.30141992049641       -3.01044883910085       -0.65397431200608
H           51.89110425280004        2.19946406648796       -0.77961300494444
H           53.75508085052680        4.14512361373419       -0.58538924369047
H           54.60952259463871        7.17586065101437       -1.46456208553130
H           54.93790299915641        9.54421503645682       -2.15579706965779
H           58.53735054274956        9.78352602944375       -0.18571598283283
H           58.37231480833288        7.42723234773459        0.59889987052778
H           58.08262587468192        4.55816263679062        2.31327948853973
H           59.17077014368797        2.91073994237795        4.16281404955076
C           39.93621617590685       -0.51807419624944       -0.38712829088381
C           41.10562741118448       -0.60769775843583       -0.71790959204913
C           50.40892445553784       -0.55056170494855       -0.74485966325755
C           51.56960309273022       -0.44073524719574       -0.38904697471473
Co          45.75686242448455       -0.77715259943538       -1.67720826496348
C           42.45317514289323       -0.67880914754165       -1.09859914510960
C           43.10480474804044        0.49781698537941       -1.49239154427557
C           42.43062972523828        1.73367449301053       -1.73735723259897
C           43.31113370097569        2.53478905193348       -2.39092917222175
C           44.53633756309966        1.80739166029487       -2.48073495347449
N           44.39893452313386        0.56517520262707       -1.92692488382884
C           45.73437624101825        2.33697124368172       -2.96934675665700
C           45.71368871269001        3.57942453558531       -3.63475690369745
C           45.69244224795165        4.63690589831077       -4.22983814614534
C           45.66467281215019        5.87387490845089       -4.91360438670507
C           46.83830454973445        6.46247428339848       -5.39862143609768
C           46.75518563896247        7.67493338971699       -6.06007811396482
N           45.60703899971825        8.31659019314592       -6.26045980172933
C           44.48684906976655        7.76351665183082       -5.80250170018546
C           44.46096719241103        6.55513436462485       -5.12928618566593
C           46.96206111976272        1.73567719046664       -2.68455396551922
C           48.22268203397859        2.39236937582593       -2.82430816374741
C           49.13597691499106        1.61673382337738       -2.18561781545409
N           47.11563438321502        0.53787268556165       -2.03824270647158
C           48.44000473046344        0.46090928688030       -1.71831088342464
C           49.06632397694803       -0.65192913809149       -1.13682316978555
C           48.42065606643801       -1.89439089066396       -1.07911356470168
C           49.09398767107314       -3.13245767553417       -0.84791474587934
C           48.20523122925088       -4.11942498669148       -1.13046480910082
C           46.97478520150389       -3.47706232967508       -1.46535254131610
N           47.11869692613605       -2.11774956255666       -1.43228596499667
C           45.76871046872687       -4.15092228717123       -1.67922655082492
C           45.77995538847412       -5.55657841747791       -1.78872852828873
C           45.78891388887806       -6.76579485339438       -1.89139690880026
C           45.79903720373764       -8.17550288789890       -1.99774685193497
C           44.60810210760481       -8.90505292487674       -2.09138418904570
C           44.67334339585907      -10.28375309113429       -2.18796790018109
N           45.82005207971861      -10.95844182482906       -2.19712459055753
C           46.95651845994912      -10.27219415530820       -2.10885940456199
C           47.00086072425215       -8.89304699615575       -2.00781882555884
C           44.54285863631274       -3.48346716323374       -1.63400829209997
C           43.28146481148200       -4.14034538472902       -1.49829780306120
C           42.37107956605264       -3.17529836268665       -1.20982557036215
C           43.06981013780553       -1.93049369711993       -1.23428912973332
N           44.39340545381026       -2.12834546298311       -1.50402171219033
H           41.40411380330278        1.93620923261258       -1.47761566941373
H           43.16490696495709        3.53844097161590       -2.75668265729030
H           47.79452933391195        5.97358917151711       -5.25682734487759
H           47.64934239289838        8.15477611671126       -6.44735922974844
H           43.56844672248516        8.31439071924458       -5.98355810544489
H           43.52629076931778        6.13961868103117       -4.77267717558956
H           48.36939388529227        3.34198967184183       -3.31324489974885
H           50.19382306391682        1.78622928545487       -2.06849701726920
H           50.12401107425448       -3.22412370072990       -0.54431451535716
H           48.34887470566695       -5.18715845069311       -1.08846624541800
H           43.65238133786003       -8.39506524536797       -2.08671755270748
H           43.76551671672519      -10.87558397747622       -2.26110303446702
H           47.87323156471732      -10.85464511583616       -2.11914413166457
H           47.94857784472598       -8.37312775793712       -1.93733578978934
H           43.13250605529160       -5.20531526994035       -1.57595599230965
H           41.31488143926084       -3.28271780238624       -1.02309497998804

          :  Hamiltonian                  GFN1-xTB          :
         :: total energy            -318.520980934903 Eh    ::
         :: gradient norm              0.000543116804 Eh/a0 ::
         :: HOMO-LUMO gap              0.024272622337 eV    ::
         :: SCC energy              -323.848944880565 Eh    ::
         :: repulsion energy           5.482034224669 Eh    ::

    * Orbital Energies and Occupations

         #    Occupation            Energy/Eh            Energy/eV
      -------------------------------------------------------------
         1        2.0000           -0.7816456             -21.2697
       ...           ...                  ...                  ...
       284        2.0000           -0.4021416             -10.9428
       285        2.0000           -0.4000090             -10.8848
       286        2.0000           -0.3964895             -10.7890
       287        2.0000           -0.3964102             -10.7869
       288        2.0000           -0.3962243             -10.7818
       289        2.0000           -0.3961903             -10.7809
       290        1.9999           -0.3959898             -10.7754
       291        1.9999           -0.3959748             -10.7750
       292        1.9999           -0.3954727             -10.7614
       293        1.9977           -0.3925263             -10.6812
       294        1.7088           -0.3877515             -10.5513
       295        1.2641           -0.3865056             -10.5174
       296        1.2253           -0.3864200             -10.5150 (HOMO)
       297        0.8045           -0.3855280             -10.4908 (LUMO)
       298                         -0.3523565              -9.5881
       299                         -0.3475266              -9.4567
       300                         -0.3452489              -9.3947
       301                         -0.3452166              -9.3938
       302                         -0.3406974              -9.2708
       303                         -0.3281741              -8.9301
       304                         -0.3208307              -8.7302
       305                         -0.3142534              -8.5513
       306                         -0.3124666              -8.5026
       307                         -0.2932022              -7.9784
       ...                                ...                  ...
       623                          1.3464299              36.6382
      -------------------------------------------------------------
                  HL-Gap            0.0008920 Eh            0.0243 eV

Wiberg/Mayer (AO) data.
largest (>0.10) Wiberg bond orders for each atom

     #   Z sym  total        # sym  WBO       # sym  WBO       # sym  WBO
 ---------------------------------------------------------------------------
     1  27 Co   2.999 --     7 N    0.626    41 N    0.626    20 N    0.621
                            27 N    0.621
     2   6 C    3.923 --    40 C    1.365     3 C    1.361    42 H    0.971
     3   6 C    3.916 --     2 C    1.361     7 N    1.197     4 C    1.177
     4   6 C    3.959 --     5 C    1.641     3 C    1.177    43 H    0.975
     5   6 C    3.962 --     4 C    1.641     6 C    1.184    44 H    0.974
     6   6 C    3.912 --     8 C    1.261     7 N    1.238     5 C    1.184
     7   7 N    3.343 --     6 C    1.238     3 C    1.197     1 Co   0.626
     8   6 C    3.924 --    17 C    1.277     6 C    1.261     9 C    1.164
     9   6 C    3.957 --    10 C    2.622     8 C    1.164
    10   6 C    3.929 --     9 C    2.622    11 C    1.142
    11   6 C    3.987 --    12 C    1.350    16 C    1.350    10 C    1.142
    12   6 C    3.973 --    13 C    1.457    11 C    1.350    45 H    0.974
                            15 C    0.104
    13   6 C    3.972 --    12 C    1.457    14 N    1.407    46 H    0.972
                            16 C    0.104
    14   7 N    2.994 --    15 C    1.407    13 C    1.407
    15   6 C    3.972 --    16 C    1.457    14 N    1.407    47 H    0.972
                            12 C    0.104
    16   6 C    3.972 --    15 C    1.457    11 C    1.350    48 H    0.974
                            13 C    0.104
    17   6 C    3.907 --     8 C    1.277    20 N    1.214    18 C    1.191
    18   6 C    3.958 --    19 C    1.628    17 C    1.191    49 H    0.974
    19   6 C    3.960 --    18 C    1.628    21 C    1.192    50 H    0.972
    20   7 N    3.343 --    21 C    1.230    17 C    1.214     1 Co   0.621
    21   6 C    3.900 --    22 C    1.253    20 N    1.230    19 C    1.192
    22   6 C    3.924 --    21 C    1.253    23 C    1.250   117 C    1.197
    23   6 C    3.900 --    22 C    1.250    27 N    1.234    24 C    1.194
    24   6 C    3.961 --    25 C    1.629    23 C    1.194    51 H    0.970
    25   6 C    3.958 --    24 C    1.629    26 C    1.189    52 H    0.974
    26   6 C    3.907 --    28 C    1.283    27 N    1.210    25 C    1.189
    27   7 N    3.342 --    23 C    1.234    26 C    1.210     1 Co   0.621
    28   6 C    3.924 --    26 C    1.283    37 C    1.258    29 C    1.163
    29   6 C    3.957 --    30 C    2.622    28 C    1.163
    30   6 C    3.930 --    29 C    2.622    31 C    1.142
    31   6 C    3.987 --    36 C    1.351    32 C    1.350    30 C    1.142
    32   6 C    3.973 --    33 C    1.457    31 C    1.350    53 H    0.974
                            35 C    0.104
    33   6 C    3.973 --    32 C    1.457    34 N    1.407    54 H    0.972
                            36 C    0.104
    34   7 N    2.994 --    35 C    1.407    33 C    1.407
    35   6 C    3.972 --    36 C    1.456    34 N    1.407    55 H    0.972
                            32 C    0.104
    36   6 C    3.973 --    35 C    1.456    31 C    1.351    56 H    0.974
                            33 C    0.104
    37   6 C    3.912 --    28 C    1.258    41 N    1.242    38 C    1.185
    38   6 C    3.962 --    39 C    1.642    37 C    1.185    57 H    0.974
    39   6 C    3.959 --    38 C    1.642    40 C    1.176    58 H    0.975
    40   6 C    3.917 --     2 C    1.365    41 N    1.193    39 C    1.176
    41   7 N    3.344 --    37 C    1.242    40 C    1.193     1 Co   0.626
    42   1 H    1.000 --     2 C    0.971
    43   1 H    0.997 --     4 C    0.975
    44   1 H    1.001 --     5 C    0.974
    45   1 H    1.002 --    12 C    0.974
    46   1 H    1.013 --    13 C    0.972
    47   1 H    1.013 --    15 C    0.972
    48   1 H    1.002 --    16 C    0.974
    49   1 H    1.001 --    18 C    0.974
    50   1 H    1.003 --    19 C    0.972
    51   1 H    1.004 --    24 C    0.970
    52   1 H    1.002 --    25 C    0.974
    53   1 H    1.002 --    32 C    0.974
    54   1 H    1.013 --    33 C    0.972
    55   1 H    1.013 --    35 C    0.972
    56   1 H    1.002 --    36 C    0.974
    57   1 H    1.002 --    38 C    0.974
    58   1 H    0.997 --    39 C    0.975
    59  27 Co   2.994 --    99 N    0.625    65 N    0.625    78 N    0.621
                            85 N    0.621
    60   6 C    3.923 --    61 C    1.364    98 C    1.362   100 H    0.971
    61   6 C    3.917 --    60 C    1.364    65 N    1.194    62 C    1.176
    62   6 C    3.959 --    63 C    1.641    61 C    1.176   101 H    0.975
    63   6 C    3.962 --    62 C    1.641    64 C    1.185   102 H    0.974
    64   6 C    3.912 --    66 C    1.259    65 N    1.241    63 C    1.185
    65   7 N    3.343 --    64 C    1.241    61 C    1.194    59 Co   0.625
    66   6 C    3.924 --    75 C    1.282    64 C    1.259    67 C    1.163
    67   6 C    3.957 --    68 C    2.622    66 C    1.163
    68   6 C    3.930 --    67 C    2.622    69 C    1.142
    69   6 C    3.987 --    70 C    1.351    74 C    1.350    68 C    1.142
    70   6 C    3.973 --    71 C    1.456    69 C    1.351   103 H    0.974
                            73 C    0.104
    71   6 C    3.973 --    70 C    1.456    72 N    1.407   104 H    0.972
                            74 C    0.104
    72   7 N    2.994 --    71 C    1.407    73 C    1.407
    73   6 C    3.972 --    74 C    1.457    72 N    1.407   105 H    0.972
                            70 C    0.104
    74   6 C    3.973 --    73 C    1.457    69 C    1.350   106 H    0.974
                            71 C    0.104
    75   6 C    3.907 --    66 C    1.282    78 N    1.210    76 C    1.190
    76   6 C    3.958 --    77 C    1.629    75 C    1.190   107 H    0.974
    77   6 C    3.960 --    76 C    1.629    79 C    1.193   108 H    0.969
    78   7 N    3.342 --    79 C    1.234    75 C    1.210    59 Co   0.621
    79   6 C    3.900 --    80 C    1.250    78 N    1.234    77 C    1.193
    80   6 C    3.924 --    81 C    1.253    79 C    1.250   120 C    1.197
    81   6 C    3.900 --    80 C    1.253    85 N    1.231    82 C    1.192
    82   6 C    3.961 --    83 C    1.629    81 C    1.192   109 H    0.969
    83   6 C    3.958 --    82 C    1.629    84 C    1.190   110 H    0.974
    84   6 C    3.907 --    86 C    1.279    85 N    1.213    83 C    1.190
    85   7 N    3.342 --    81 C    1.231    84 C    1.213    59 Co   0.621
    86   6 C    3.924 --    84 C    1.279    95 C    1.261    87 C    1.163
    87   6 C    3.957 --    88 C    2.622    86 C    1.163
    88   6 C    3.930 --    87 C    2.622    89 C    1.141
    89   6 C    3.987 --    94 C    1.350    90 C    1.350    88 C    1.141
    90   6 C    3.973 --    91 C    1.457    89 C    1.350   111 H    0.974
                            93 C    0.104
    91   6 C    3.973 --    90 C    1.457    92 N    1.407   112 H    0.972
                            94 C    0.104
    92   7 N    2.994 --    93 C    1.407    91 C    1.407
    93   6 C    3.972 --    94 C    1.456    92 N    1.407   113 H    0.972
                            90 C    0.104
    94   6 C    3.973 --    93 C    1.456    89 C    1.350   114 H    0.974
                            91 C    0.104
    95   6 C    3.912 --    86 C    1.261    99 N    1.239    96 C    1.184
    96   6 C    3.962 --    97 C    1.642    95 C    1.184   115 H    0.974
    97   6 C    3.959 --    96 C    1.642    98 C    1.177   116 H    0.975
    98   6 C    3.916 --    60 C    1.362    99 N    1.196    97 C    1.177
    99   7 N    3.343 --    95 C    1.239    98 C    1.196    59 Co   0.625
   100   1 H    1.000 --    60 C    0.971
   101   1 H    0.997 --    62 C    0.975
   102   1 H    1.001 --    63 C    0.974
   103   1 H    1.002 --    70 C    0.974
   104   1 H    1.013 --    71 C    0.972
   105   1 H    1.013 --    73 C    0.972
   106   1 H    1.002 --    74 C    0.974
   107   1 H    1.002 --    76 C    0.974
   108   1 H    1.004 --    77 C    0.969
   109   1 H    1.005 --    82 C    0.969
   110   1 H    1.002 --    83 C    0.974
   111   1 H    1.002 --    90 C    0.974
   112   1 H    1.013 --    91 C    0.972
   113   1 H    1.013 --    93 C    0.972
   114   1 H    1.002 --    94 C    0.974
   115   1 H    1.001 --    96 C    0.974
   116   1 H    0.997 --    97 C    0.975
   117   6 C    3.924 --   118 C    2.549    22 C    1.197
   118   6 C    3.930 --   117 C    2.549   122 C    1.198
   119   6 C    3.931 --   120 C    2.550   142 C    1.200
   120   6 C    3.924 --   119 C    2.550    80 C    1.197
   121  27 Co   3.023 --   140 N    0.621   161 N    0.620   147 N    0.619
                           127 N    0.619
   122   6 C    3.916 --   123 C    1.253   160 C    1.248   118 C    1.198
   123   6 C    3.901 --   122 C    1.253   127 N    1.227   124 C    1.194
   124   6 C    3.959 --   125 C    1.624   123 C    1.194   162 H    0.972
   125   6 C    3.960 --   124 C    1.624   126 C    1.195   163 H    0.974
   126   6 C    3.906 --   128 C    1.264   127 N    1.222   125 C    1.195
   127   7 N    3.340 --   123 C    1.227   126 C    1.222   121 Co   0.619
   128   6 C    3.923 --   137 C    1.274   126 C    1.264   129 C    1.164
   129   6 C    3.957 --   130 C    2.621   128 C    1.164
   130   6 C    3.928 --   129 C    2.621   131 C    1.141
   131   6 C    3.987 --   132 C    1.351   136 C    1.350   130 C    1.141
   132   6 C    3.972 --   133 C    1.456   131 C    1.351   164 H    0.974
                           135 C    0.104
   133   6 C    3.972 --   132 C    1.456   134 N    1.408   165 H    0.972
                           136 C    0.104
   134   7 N    2.994 --   133 C    1.408   135 C    1.407
   135   6 C    3.972 --   136 C    1.456   134 N    1.407   166 H    0.972
                           132 C    0.104
   136   6 C    3.972 --   135 C    1.456   131 C    1.350   167 H    0.974
                           133 C    0.104
   137   6 C    3.905 --   128 C    1.274   140 N    1.212   138 C    1.193
   138   6 C    3.959 --   139 C    1.624   137 C    1.193   168 H    0.974
   139   6 C    3.960 --   138 C    1.624   141 C    1.197   169 H    0.969
   140   7 N    3.340 --   141 C    1.237   137 C    1.212   121 Co   0.621
   141   6 C    3.901 --   142 C    1.244   140 N    1.237   139 C    1.197
   142   6 C    3.916 --   143 C    1.254   141 C    1.244   119 C    1.200
   143   6 C    3.900 --   142 C    1.254   147 N    1.227   144 C    1.195
   144   6 C    3.959 --   145 C    1.624   143 C    1.195   170 H    0.969
   145   6 C    3.959 --   144 C    1.624   146 C    1.195   171 H    0.974
   146   6 C    3.906 --   148 C    1.265   147 N    1.222   145 C    1.195
   147   7 N    3.339 --   143 C    1.227   146 C    1.222   121 Co   0.619
   148   6 C    3.922 --   157 C    1.274   146 C    1.265   149 C    1.163
   149   6 C    3.957 --   150 C    2.622   148 C    1.163
   150   6 C    3.928 --   149 C    2.622   151 C    1.141
   151   6 C    3.987 --   152 C    1.350   156 C    1.350   150 C    1.141
   152   6 C    3.972 --   153 C    1.456   151 C    1.350   172 H    0.974
                           155 C    0.104
   153   6 C    3.972 --   152 C    1.456   154 N    1.408   173 H    0.972
                           156 C    0.104
   154   7 N    2.994 --   153 C    1.408   155 C    1.408
   155   6 C    3.972 --   156 C    1.456   154 N    1.408   174 H    0.972
                           152 C    0.104
   156   6 C    3.972 --   155 C    1.456   151 C    1.350   175 H    0.974
                           153 C    0.104
   157   6 C    3.906 --   148 C    1.274   161 N    1.213   158 C    1.192
   158   6 C    3.959 --   159 C    1.625   157 C    1.192   176 H    0.974
   159   6 C    3.960 --   158 C    1.625   160 C    1.196   177 H    0.970
   160   6 C    3.901 --   122 C    1.248   161 N    1.235   159 C    1.196
   161   7 N    3.339 --   160 C    1.235   157 C    1.213   121 Co   0.620
   162   1 H    1.003 --   124 C    0.972
   163   1 H    1.001 --   125 C    0.974
   164   1 H    1.002 --   132 C    0.974
   165   1 H    1.013 --   133 C    0.972
   166   1 H    1.013 --   135 C    0.972
   167   1 H    1.002 --   136 C    0.974
   168   1 H    1.001 --   138 C    0.974
   169   1 H    1.004 --   139 C    0.969
   170   1 H    1.004 --   144 C    0.969
   171   1 H    1.001 --   145 C    0.974
   172   1 H    1.002 --   152 C    0.974
   173   1 H    1.013 --   153 C    0.972
   174   1 H    1.013 --   155 C    0.972
   175   1 H    1.002 --   156 C    0.974
   176   1 H    1.002 --   158 C    0.974
   177   1 H    1.004 --   159 C    0.970
 ---------------------------------------------------------------------------

           -------------------------------------------------
          | TOTAL ENERGY             -318.520980934903 Eh   |
          | GRADIENT NORM               0.000543116804 Eh/α |
          | HOMO-LUMO GAP               0.024272622337 eV   |
           -------------------------------------------------

 * finished run on 2022/07/29 at 23:08:40.165
