   * xtb version 6.5.1 (b24c23e) compiled by 'conda@728c89f4b128' on 2022-07-12
          program call               : xtb DMA_C4_3.xyz --gfn 1 --opt -T 48

   ID    Z sym.   atoms
    1    6 C      1-5, 7-11, 13-19, 21-26, 28-32, 34-41, 74-78, 80-84, 86-92,
                  94-99, 101-105, 107-114, 147-159, 161-165, 167-173,
                  175-180, 182-186, 188-195
    2    7 N      6, 12, 20, 27, 33, 42, 79, 85, 93, 100, 106, 115, 160, 166,
                  174, 181, 187, 196
    3    1 H      43-73, 116-146, 197-226

          :  Hamiltonian                  GFN1-xTB          :
 * total energy  :  -351.0933896 Eh     change       -0.1377407E-07 Eh
 * total energy  :  -351.3064508 Eh     change       -0.2130612E+00 Eh
 * total energy  :  -351.3969582 Eh     change       -0.9050744E-01 Eh
 * total energy  :  -351.4399046 Eh     change       -0.4294640E-01 Eh
 * total energy  :  -351.4635672 Eh     change       -0.2366253E-01 Eh
 * total energy  :  -351.4820761 Eh     change       -0.1850890E-01 Eh
 * total energy  :  -351.4950795 Eh     change       -0.1300346E-01 Eh
 * total energy  :  -351.5065021 Eh     change       -0.1142255E-01 Eh
 * total energy  :  -351.5188934 Eh     change       -0.1239129E-01 Eh
 * total energy  :  -351.5344054 Eh     change       -0.1551200E-01 Eh
 * total energy  :  -351.9588796 Eh     change       -0.7239486E-05 Eh
 * total energy  :  -351.9588868 Eh     change       -0.7164220E-05 Eh
 * total energy  :  -351.9588994 Eh     change       -0.1257039E-04 Eh
 * total energy  :  -351.9589075 Eh     change       -0.8073778E-05 Eh
 * total energy  :  -351.9589186 Eh     change       -0.1119360E-04 Eh
 * total energy  :  -351.9589306 Eh     change       -0.1195045E-04 Eh
 * total energy  :  -351.9589392 Eh     change       -0.8633944E-05 Eh
 * total energy  :  -351.9589451 Eh     change       -0.5865365E-05 Eh
 * total energy  :  -351.9589501 Eh     change       -0.4993490E-05 Eh
   *** GEOMETRY OPTIMIZATION CONVERGED AFTER 108 ITERATIONS ***

 final structure:
================
226
 xtb: 6.5.1 (b24c23e)
C           33.45702645166930        0.03200035766193        0.09942747958935
C           34.06663938183673       -0.12831694150963        1.33749752715660
C           33.41487240047977       -0.24498157180797        2.59656928805763
C           34.37632904679466       -0.40211996640371        3.55578515904736
C           35.64605464199682       -0.39640256792048        2.91228178623319
N           35.40873601794781       -0.21832890001060        1.57846448893266
C           36.90843596239043       -0.52238076407512        3.50630322716230
C           36.93729731528940       -0.74708530549998        4.96937555233830
C           37.60428955862396        0.13519971501650        5.82105100117080
C           37.62651719006972       -0.06678424849672        7.18909639032196
C           36.98234191272059       -1.17176102119755        7.76556893510975
N           37.04985101779683       -1.41536107792376        9.13461091485365
C           37.42855871932391       -0.29857184742700       10.00039882162953
C           36.02790808315680       -2.29195243252427        9.70913670571528
C           36.32557535971296       -2.06550543777784        6.90615519878498
C           36.29958214738409       -1.84997437055583        5.54036924789574
C           38.12277172695779       -0.45082528509723        2.81786288985528
C           39.41995284807321       -0.64478923512120        3.43913577142809
C           40.33926536725394       -0.48988460914571        2.46319203641730
N           38.27549765017945       -0.21036893568364        1.48578014266005
C           39.60203047883262       -0.21750860254970        1.24533607566592
C           40.23835166587345        0.00115359377640        0.00579152366095
C           39.60240541294661        0.20098966609765       -1.23494956250816
C           40.24742500748794        0.43940581202350       -2.47660789357084
C           39.28105707736554        0.56581784567927       -3.43666735772632
C           38.01538218164470        0.40012938591365       -2.81041494154498
N           38.26157311608529        0.19064182889802       -1.47873018385350
C           36.75381327506074        0.46590821917992       -3.41424597711222
C           36.72506708003609        0.65694025628075       -4.88132991383870
C           36.07532546168053        1.75158836746655       -5.45447996546194
C           36.05674650138423        1.93797087194297       -6.82477532430110
C           36.68618677532645        1.02606681933939       -7.68543544398181
N           36.62378923665575        1.17486195433339       -9.06785674508214
C           37.63532940884624        0.47604227324950       -9.86237518947127
C           36.26599123758061        2.49427513148735       -9.58879770195254
C           37.32304942996655       -0.08303767318679       -7.10816593609768
C           37.34677938759098       -0.25516836669685       -5.73641493436943
C           35.53796058575086        0.36439208026169       -2.72795460967465
C           34.23237474871382        0.37990295818484       -3.36825236894974
C           33.32029680814463        0.26782411132069       -2.38102905403399
C           34.06772583408337        0.16664444851112       -1.14057918621213
N           35.39963856609599        0.22024925503567       -1.38852426078180
H           32.37165655761214        0.04633034556065        0.11160369560385
H           32.34646036527865       -0.20562273548864        2.73820441966996
H           34.22395371709257       -0.50200992546602        4.61826977957135
H           36.13454706739019       -0.15472532631617        0.87246776528752
H           38.09488929922718        1.00909848588187        5.40625131896832
H           38.15502916026020        0.65129310773111        7.80270730232784
H           36.75793976569077        0.55824006377468        9.87038268795522
H           37.38993418566234       -0.62843359665831       11.03807949260196
H           38.45252646452285        0.00396245390224        9.77948625769474
H           35.01804035930986       -1.94775442157071        9.46012002214022
H           36.16636344904604       -3.30848366872737        9.33939841471889
H           36.14328628738571       -2.30728116499848       10.79227681078411
H           35.83321548934836       -2.94785006179605        7.29441885762371
H           35.79516561881211       -2.56636148926088        4.90072125847796
H           39.58501541990213       -0.88381187888831        4.47724528763540
H           41.41299630294827       -0.56127567153616        2.53321944149637
H           41.31513123112066        0.50992259349260       -2.60852411745958
H           39.42977252988875        0.76997918903057       -4.48446683659350
H           37.53863354660555        0.06052610361442       -0.77869451430868
H           35.59781686187858        2.48472972363614       -4.81343580460575
H           35.54369522978872        2.80746174224017       -7.21493512226993
H           37.52666899463701        0.76528032404004      -10.90701544130567
H           38.64882604624368        0.72008708998055       -9.52539525675544
H           37.47859621588801       -0.60081198438551       -9.79101789066503
H           35.24363361316116        2.73696189043696       -9.29744420459186
H           36.31027224728791        2.46734611000570      -10.67705585376033
H           36.94538333581227        3.27114543629924       -9.22052846689303
H           37.80197179929966       -0.83148736710739       -7.72628381366749
H           37.83658750410611       -1.12912197938997       -5.32045660170341
H           34.06039017118714        0.45104970169485       -4.43025766150188
H           32.24426628292382        0.24004325977142       -2.45551923490494
C           67.07577011592002        0.09167071436054       -0.09161420602015
C           66.46538580268863        0.21538551783883       -1.33352402311599
C           67.11575965990217        0.40263626749239       -2.58478691217593
C           66.15446102528159        0.45662320964386       -3.55546011849933
C           64.88635956417552        0.29403848337411       -2.92949902008620
N           65.12419447577496        0.16359620074178       -1.59025141724287
C           63.62459818769982        0.28694917053875       -3.53808241926779
C           63.59497910318810        0.40290468606570       -5.01369140381870
C           62.90811622321285        1.44375802918103       -5.64113191868454
C           62.88398838372977        1.55959336635550       -7.01906717638294
C           63.54686172839290        0.62874252859884       -7.83302856692458
N           63.47699829637296        0.70531657392044       -9.22137705263396
C           63.08470253538424        1.98823165610673       -9.80542165869760
C           64.50450438380214       -0.00471782553455       -9.98444571081954
C           64.22417551107453       -0.42483537606814       -7.20075593475586
C           64.25118805169861       -0.52732613534263       -5.82184149263057
C           62.41110881011548        0.18024087337854       -2.85261893090530
C           61.11527298373544        0.11270949152682       -3.50263320773288
C           60.19614305521641        0.03223381961887       -2.51755568907657
N           62.25818536847321        0.11215619271535       -1.50070458189701
C           60.93243258298514        0.03385137181442       -1.26906329189786
C           60.29572828872383       -0.03334566301031       -0.01230109010976
C           60.93157989496080       -0.11153737627558        1.24201010990699
C           60.28672610967813       -0.16601128131180        2.50530008011215
C           61.25353246311534       -0.25706584963078        3.46895238750190
C           62.51931841806056       -0.26760536596365        2.82151025405488
N           62.27275543789562       -0.16881510381587        1.47718835853225
C           63.78110062627018       -0.33405408616960        3.42459717892941
C           63.81062623063413       -0.48648104307775        4.89632580952362
C           64.44837068496885        0.45421606147350        5.70708472223631
C           64.46814855423429        0.31886280601059        7.08328512060696
C           63.85370750722714       -0.77613074140958        7.70950428664686
N           63.91991227656320       -0.95010008260194        9.08874583639166
C           62.93462349921926       -1.84419374164976        9.69881904112142
C           64.24327167831629        0.22223119321483        9.90193707372143
C           63.22907671650505       -1.72973146744631        6.89131192300252
C           63.20250267085276       -1.57934832928191        5.51696809154213
C           64.99666696672082       -0.26492912675732        2.73399407999274
C           66.30298531258278       -0.38608221742583        3.36131205181351
C           67.21455042237726       -0.25680389114067        2.37570012795722
C           66.46615301429442       -0.07386534307452        1.14519458738805
N           65.13421795992139       -0.09293560328428        1.39776706267961
H           68.16084148743066        0.12238868991448       -0.09939180067414
H           68.18310515734738        0.48986079488267       -2.71237069236184
H           66.30579484202268        0.60710616120093       -4.61212412397523
H           64.39917332482341        0.05204463308709       -0.88939756699423
H           62.40273924743590        2.18993274588836       -5.03759673834928
H           62.33853467740925        2.38791476473572       -7.45248000910256
H           63.73763122074752        2.80103622430172       -9.46834645286018
H           63.13928707950399        1.91307037401979      -10.89095543119590
H           62.05315828728133        2.21355852589351       -9.53310243454325
H           65.51236373229496        0.29603258202518       -9.67752247976993
H           64.38794841048175       -1.07980535207144       -9.84454183663040
H           64.37289011412594        0.21451931069858      -11.04344079051019
H           64.73265608974269       -1.18479866562080       -7.78004243894644
H           64.77158598669727       -1.36130697325005       -5.36308322631006
H           60.95092952008788        0.11042544606980       -4.56801573070428
H           59.12332110205651       -0.03629633797748       -2.60279093635574
H           59.21877354569725       -0.13411740487586        2.64960177764813
H           61.10534142429404       -0.29918039629284        4.53571908149860
H           62.99542714672675       -0.13167890121601        0.76588873922844
H           64.91550312421326        1.32144996404643        5.25296234783907
H           64.97125007515614        1.08096625949875        7.66434452215088
H           63.03925635990710       -1.79941031217047       10.78213271421972
H           61.91226504178776       -1.56173808792002        9.42467714890315
H           63.12498367971654       -2.87025084887038        9.38197639605525
H           65.25647182412474        0.55576401449246        9.67619419001142
H           64.20605084323640       -0.05753133619770       10.95421096517941
H           63.53988260567304        1.04313835292105        9.72307840654779
H           62.76148823007352       -2.60716835273781        7.31928155831580
H           62.72139414097062       -2.33878650082984        4.90985915764654
H           66.47562712930636       -0.56188889806592        4.41098843690275
H           68.29089390210385       -0.29100009666177        2.44244288929048
C           42.86592067076072        0.04656114419419       -0.02016658734127
C           41.64350356848992        0.02069204965346       -0.00814806203558
C           44.21432947478031        0.07445266388875       -0.02537545326680
C           45.43691942936139        0.10155351450988       -0.02954509847260
C           56.31973318641817        0.02468369646980        0.02810713788711
C           55.09720699048714        0.05413276703667        0.03173371576505
C           57.66811332709959       -0.00260929478756        0.02236094565489
C           58.89057484916232       -0.02315772395888        0.00427009357288
C           46.84102451236092        0.12560144001472       -0.02105633186792
C           47.45870014310526        0.04968747886811        1.24310498619775
C           46.80048639862171       -0.06981395826453        2.49347053497057
C           47.75627402590875       -0.07058226236723        3.47347804434932
C           49.02593581529159        0.05564753944862        2.84852733659869
N           48.79591024875369        0.11145707546604        1.49956466925182
C           50.27852916563846        0.09949627516052        3.47626240993913
C           50.27353139753339        0.09775618511299        4.95692457758879
C           49.61307108424155        1.09845885676730        5.67228381316983
C           49.60449661925433        1.10475834524235        7.05499410618878
C           50.24636847790585        0.09296236515286        7.78505524551739
N           50.27667468939519        0.12345287081047        9.17646758277020
C           49.24225846706135        0.90921071505938        9.85119366688300
C           50.62624048792984       -1.11688291176368        9.86943522249614
C           50.91427661374821       -0.90835020866838        7.06411591146512
C           50.92794111460107       -0.90012129438185        5.68116704946895
C           51.50867996457282        0.14293375452164        2.81640788780750
C           52.78863341202830        0.24462512381994        3.49315600582064
C           53.73387980143633        0.22885153607353        2.52973003282734
N           51.69635761318599        0.09933884742714        1.46801978237844
C           53.02910464173700        0.13589511422002        1.26736578652210
C           53.69332071103233        0.08834902661447        0.02472450468409
C           53.07533126596184        0.08238281419092       -1.24155449303532
C           53.73259392268915        0.01468524833433       -2.49624152090808
C           52.77701204909068        0.06817943737849       -3.47500326726623
C           51.50851940328558        0.17840360369459       -2.84462975920738
N           51.73885983282020        0.16972473627470       -1.49458382488727
C           50.25645384768188        0.26429967773380       -3.46918486742560
C           50.26075286041892        0.32544064062730       -4.94847620370197
C           50.93589859555711        1.34471397337002       -5.62276644731750
C           50.94486819662112        1.40727897445275       -7.00409792787728
C           50.28798584148595        0.43590089999777       -7.77460818748079
N           50.25866080722059        0.52277374132271       -9.16356885146621
C           49.89059543043368       -0.68349058072197       -9.90547887433275
C           51.30414908699364        1.32005976466638       -9.80681602844445
C           49.60452358409670       -0.58353902224447       -7.09479288089764
C           49.59116454088025       -0.63182011072056       -5.71271041852270
C           49.02690095867598        0.29278440899701       -2.80719276810052
C           47.74840298118268        0.44250765121404       -3.47780756498843
C           46.80286017475182        0.39289227061545       -2.51580646087056
C           47.50615239293241        0.23068230835573       -1.25967213563174
N           48.83846151489024        0.18793748432273       -1.46233517485895
H           45.73266444678497       -0.14882761676297        2.61915953949908
H           47.59679109137969       -0.16372918913386        4.53532152852702
H           49.52215038333246        0.18144932500237        0.79468611963459
H           49.11724427015337        1.90027556180202        5.13564827968971
H           49.09534711158018        1.91575777298112        7.55960071854130
H           49.33276394554202        0.76332662647999       10.92698537302022
H           49.39024440408910        1.96869173670014        9.63958663251476
H           48.23809662002257        0.60999777721607        9.53104942410656
H           51.65830978396924       -1.38473042960992        9.64138012880264
H           49.96274037600002       -1.93999902379129        9.58150815214720
H           50.54853357377093       -0.95440281724689       10.94393380231601
H           51.43366152643862       -1.70863902471545        7.57527065106228
H           51.43620709379034       -1.69833390260188        5.15114074411771
H           52.92529830007138        0.33237196798164        4.55883720193122
H           54.80539180528653        0.28713159068196        2.63667305220965
H           54.79956897731397       -0.06941017763106       -2.62581206906666
H           52.93602965545811        0.02192681039483       -4.53997823172187
H           51.01323867199990        0.21336847562042       -0.78695307977593
H           51.44337238933308        2.11668508049481       -5.05419465200566
H           51.46645505607743        2.23035942255371       -7.47536288656048
H           50.53858118846079       -1.52853916211909       -9.64741025779763
H           48.85311411724444       -0.94197778325901       -9.69143075902205
H           49.97551348960984       -0.48099290273363      -10.97260604191235
H           52.30403030496482        0.99214316111441       -9.50172471417784
H           51.20973469836409        1.22102498148830      -10.88759738125621
H           51.17299275975022        2.37185506111729       -9.55051110727661
H           49.07269245350273       -1.35403873703204       -7.63791491339630
H           49.07095717890088       -1.44344056203581       -5.21565490109438
H           47.61300774176444        0.58265390298939       -4.53803333530617
H           45.73216826397815        0.46971633882814       -2.61926148432949

          :  Hamiltonian                  GFN1-xTB          :
         :: total energy            -351.958950101198 Eh    ::
         :: gradient norm              0.000458290992 Eh/a0 ::
         :: HOMO-LUMO gap              0.775033740217 eV    ::
         :: SCC energy              -357.610637499281 Eh    ::
         :: repulsion energy           5.833884640046 Eh    ::

    * Orbital Energies and Occupations

         #    Occupation            Energy/Eh            Energy/eV
      -------------------------------------------------------------
         1        2.0000           -0.7929365             -21.5769
       ...           ...                  ...                  ...
       311        2.0000           -0.4029298             -10.9643
       312        2.0000           -0.3884545             -10.5704
       313        2.0000           -0.3882690             -10.5653
       314        2.0000           -0.3882417             -10.5646
       315        2.0000           -0.3871075             -10.5337
       316        2.0000           -0.3852295             -10.4826
       317        2.0000           -0.3837618             -10.4427
       318        2.0000           -0.3833420             -10.4313
       319        2.0000           -0.3833139             -10.4305
       320        2.0000           -0.3831487             -10.4260
       321        2.0000           -0.3742748             -10.1845
       322        2.0000           -0.3693450             -10.0504
       323        2.0000           -0.3619082              -9.8480 (HOMO)
       324        0.0000           -0.3334262              -9.0730 (LUMO)
       325                         -0.3235877              -8.8053
       326                         -0.3188152              -8.6754
       327                         -0.3186888              -8.6720
       328                         -0.3184073              -8.6643
       329                         -0.3151285              -8.5751
       330                         -0.2917234              -7.9382
       331                         -0.2840176              -7.7285
       332                         -0.2801187              -7.6224
       333                         -0.2530439              -6.8857
       334                         -0.2530122              -6.8848
       ...                                ...                  ...
       720                          1.5262159              41.5304
      -------------------------------------------------------------
                  HL-Gap            0.0284820 Eh            0.7750 eV

Wiberg/Mayer (AO) data.
largest (>0.10) Wiberg bond orders for each atom

     #   Z sym  total        # sym  WBO       # sym  WBO       # sym  WBO
 ---------------------------------------------------------------------------
     1   6 C    3.921 --    41 C    1.366     2 C    1.344    43 H    0.971
     2   6 C    3.904 --     1 C    1.344     3 C    1.233     6 N    1.169
     3   6 C    3.951 --     4 C    1.590     2 C    1.233    44 H    0.977
     4   6 C    3.959 --     3 C    1.590     5 C    1.239    45 H    0.974
     5   6 C    3.894 --     7 C    1.298     4 C    1.239     6 N    1.177
     6   7 N    3.468 --     5 C    1.177     2 C    1.169    46 H    0.873
     7   6 C    3.938 --    17 C    1.333     5 C    1.298     8 C    1.037
     8   6 C    3.988 --     9 C    1.377    16 C    1.377     7 C    1.037
     9   6 C    3.986 --    10 C    1.472     8 C    1.377    47 H    0.972
    10   6 C    3.989 --     9 C    1.472    11 C    1.342    48 H    0.968
    11   6 C    3.951 --    10 C    1.342    15 C    1.342    12 N    1.109
    12   7 N    3.218 --    11 C    1.109    13 C    0.964    14 C    0.963
    13   6 C    3.969 --    50 H    0.985    51 H    0.983    49 H    0.983
                            12 N    0.964
    14   6 C    3.969 --    54 H    0.985    52 H    0.983    53 H    0.983
                            12 N    0.963
    15   6 C    3.989 --    16 C    1.472    11 C    1.342    55 H    0.968
    16   6 C    3.987 --    15 C    1.472     8 C    1.377    56 H    0.972
    17   6 C    3.913 --     7 C    1.333    20 N    1.285    18 C    1.128
    18   6 C    3.965 --    19 C    1.705    17 C    1.128    57 H    0.973
    19   6 C    3.963 --    18 C    1.705    21 C    1.131    58 H    0.974
    20   7 N    3.019 --    21 C    1.345    17 C    1.285
    21   6 C    3.909 --    20 N    1.345    22 C    1.252    19 C    1.131
    22   6 C    3.932 --    21 C    1.252    23 C    1.249   148 C    1.193
    23   6 C    3.886 --    24 C    1.252    22 C    1.249    27 N    1.190
    24   6 C    3.958 --    25 C    1.578    23 C    1.252    59 H    0.975
    25   6 C    3.955 --    24 C    1.578    26 C    1.245    60 H    0.974
    26   6 C    3.897 --    28 C    1.305    25 C    1.245    27 N    1.165
    27   7 N    3.473 --    23 C    1.190    26 C    1.165    61 H    0.873
    28   6 C    3.923 --    38 C    1.317    26 C    1.305    29 C    1.039
    29   6 C    3.987 --    30 C    1.376    37 C    1.375    28 C    1.039
    30   6 C    3.987 --    31 C    1.472    29 C    1.376    62 H    0.972
    31   6 C    3.989 --    30 C    1.472    32 C    1.342    63 H    0.968
    32   6 C    3.950 --    31 C    1.342    36 C    1.341    33 N    1.110
    33   7 N    3.219 --    32 C    1.110    35 C    0.964    34 C    0.963
    34   6 C    3.969 --    64 H    0.985    65 H    0.983    66 H    0.983
                            33 N    0.963
    35   6 C    3.969 --    68 H    0.985    67 H    0.983    69 H    0.983
                            33 N    0.964
    36   6 C    3.989 --    37 C    1.473    32 C    1.341    70 H    0.968
    37   6 C    3.986 --    36 C    1.473    29 C    1.375    71 H    0.972
    38   6 C    3.927 --    42 N    1.318    28 C    1.317    39 C    1.120
    39   6 C    3.967 --    40 C    1.718    38 C    1.120    72 H    0.973
    40   6 C    3.965 --    39 C    1.718    41 C    1.119    73 H    0.976
    41   6 C    3.930 --     1 C    1.366    42 N    1.299    40 C    1.119
    42   7 N    3.009 --    38 C    1.318    41 C    1.299
    43   1 H    1.002 --     1 C    0.971
    44   1 H    0.998 --     3 C    0.977
    45   1 H    1.006 --     4 C    0.974
    46   1 H    0.987 --     6 N    0.873
    47   1 H    1.006 --     9 C    0.972
    48   1 H    1.002 --    10 C    0.968
    49   1 H    1.003 --    13 C    0.983
    50   1 H    1.009 --    13 C    0.985
    51   1 H    1.013 --    13 C    0.983
    52   1 H    1.003 --    14 C    0.983
    53   1 H    1.013 --    14 C    0.983
    54   1 H    1.009 --    14 C    0.985
    55   1 H    1.002 --    15 C    0.968
    56   1 H    1.005 --    16 C    0.972
    57   1 H    1.006 --    18 C    0.973
    58   1 H    1.003 --    19 C    0.974
    59   1 H    1.003 --    24 C    0.975
    60   1 H    1.006 --    25 C    0.974
    61   1 H    0.988 --    27 N    0.873
    62   1 H    1.005 --    30 C    0.972
    63   1 H    1.002 --    31 C    0.968
    64   1 H    1.009 --    34 C    0.985
    65   1 H    1.003 --    34 C    0.983
    66   1 H    1.013 --    34 C    0.983
    67   1 H    1.013 --    35 C    0.983
    68   1 H    1.009 --    35 C    0.985
    69   1 H    1.003 --    35 C    0.983
    70   1 H    1.002 --    36 C    0.968
    71   1 H    1.005 --    37 C    0.972
    72   1 H    1.006 --    39 C    0.973
    73   1 H    0.999 --    40 C    0.976
    74   6 C    3.921 --   114 C    1.366    75 C    1.344   116 H    0.971
    75   6 C    3.904 --    74 C    1.344    76 C    1.233    79 N    1.169
    76   6 C    3.951 --    77 C    1.590    75 C    1.233   117 H    0.977
    77   6 C    3.959 --    76 C    1.590    78 C    1.239   118 H    0.974
    78   6 C    3.894 --    80 C    1.297    77 C    1.239    79 N    1.177
    79   7 N    3.468 --    78 C    1.177    75 C    1.169   119 H    0.873
    80   6 C    3.938 --    90 C    1.333    78 C    1.297    81 C    1.038
    81   6 C    3.988 --    89 C    1.377    82 C    1.376    80 C    1.038
    82   6 C    3.986 --    83 C    1.472    81 C    1.376   120 H    0.972
    83   6 C    3.989 --    82 C    1.472    84 C    1.342   121 H    0.968
    84   6 C    3.951 --    83 C    1.342    88 C    1.342    85 N    1.109
    85   7 N    3.218 --    84 C    1.109    86 C    0.964    87 C    0.963
    86   6 C    3.969 --   123 H    0.985   124 H    0.983   122 H    0.983
                            85 N    0.964
    87   6 C    3.969 --   127 H    0.985   125 H    0.983   126 H    0.983
                            85 N    0.963
    88   6 C    3.989 --    89 C    1.472    84 C    1.342   128 H    0.968
    89   6 C    3.987 --    88 C    1.472    81 C    1.377   129 H    0.972
    90   6 C    3.913 --    80 C    1.333    93 N    1.285    91 C    1.128
    91   6 C    3.965 --    92 C    1.705    90 C    1.128   130 H    0.973
    92   6 C    3.963 --    91 C    1.705    94 C    1.131   131 H    0.974
    93   7 N    3.019 --    94 C    1.345    90 C    1.285
    94   6 C    3.909 --    93 N    1.345    95 C    1.251    92 C    1.131
    95   6 C    3.933 --    94 C    1.251    96 C    1.249   154 C    1.193
    96   6 C    3.886 --    97 C    1.252    95 C    1.249   100 N    1.190
    97   6 C    3.958 --    98 C    1.578    96 C    1.252   132 H    0.975
    98   6 C    3.955 --    97 C    1.578    99 C    1.245   133 H    0.974
    99   6 C    3.897 --   101 C    1.305    98 C    1.245   100 N    1.165
   100   7 N    3.473 --    96 C    1.190    99 C    1.165   134 H    0.873
   101   6 C    3.923 --   111 C    1.317    99 C    1.305   102 C    1.039
   102   6 C    3.987 --   103 C    1.376   110 C    1.376   101 C    1.039
   103   6 C    3.987 --   104 C    1.472   102 C    1.376   135 H    0.972
   104   6 C    3.989 --   103 C    1.472   105 C    1.342   136 H    0.968
   105   6 C    3.950 --   104 C    1.342   109 C    1.341   106 N    1.110
   106   7 N    3.219 --   105 C    1.110   108 C    0.964   107 C    0.963
   107   6 C    3.969 --   137 H    0.985   139 H    0.983   138 H    0.983
                           106 N    0.963
   108   6 C    3.969 --   141 H    0.985   140 H    0.983   142 H    0.983
                           106 N    0.964
   109   6 C    3.989 --   110 C    1.473   105 C    1.341   143 H    0.968
   110   6 C    3.986 --   109 C    1.473   102 C    1.376   144 H    0.972
   111   6 C    3.927 --   115 N    1.318   101 C    1.317   112 C    1.120
   112   6 C    3.967 --   113 C    1.718   111 C    1.120   145 H    0.973
   113   6 C    3.965 --   112 C    1.718   114 C    1.119   146 H    0.976
   114   6 C    3.930 --    74 C    1.366   115 N    1.299   113 C    1.119
   115   7 N    3.008 --   111 C    1.318   114 C    1.299
   116   1 H    1.002 --    74 C    0.971
   117   1 H    0.998 --    76 C    0.977
   118   1 H    1.006 --    77 C    0.974
   119   1 H    0.987 --    79 N    0.873
   120   1 H    1.006 --    82 C    0.972
   121   1 H    1.002 --    83 C    0.968
   122   1 H    1.003 --    86 C    0.983
   123   1 H    1.009 --    86 C    0.985
   124   1 H    1.013 --    86 C    0.983
   125   1 H    1.003 --    87 C    0.983
   126   1 H    1.013 --    87 C    0.983
   127   1 H    1.009 --    87 C    0.985
   128   1 H    1.002 --    88 C    0.968
   129   1 H    1.005 --    89 C    0.972
   130   1 H    1.006 --    91 C    0.973
   131   1 H    1.003 --    92 C    0.974
   132   1 H    1.003 --    97 C    0.975
   133   1 H    1.006 --    98 C    0.974
   134   1 H    0.988 --   100 N    0.873
   135   1 H    1.005 --   103 C    0.972
   136   1 H    1.002 --   104 C    0.968
   137   1 H    1.009 --   107 C    0.985
   138   1 H    1.003 --   107 C    0.983
   139   1 H    1.013 --   107 C    0.983
   140   1 H    1.013 --   108 C    0.983
   141   1 H    1.009 --   108 C    0.985
   142   1 H    1.003 --   108 C    0.983
   143   1 H    1.002 --   109 C    0.968
   144   1 H    1.005 --   110 C    0.972
   145   1 H    1.006 --   112 C    0.973
   146   1 H    0.999 --   113 C    0.976
   147   6 C    3.931 --   148 C    2.468   149 C    1.314
   148   6 C    3.923 --   147 C    2.468    22 C    1.193   150 C    0.198
   149   6 C    3.928 --   150 C    2.466   147 C    1.314
   150   6 C    3.925 --   149 C    2.466   155 C    1.196   148 C    0.198
   151   6 C    3.928 --   152 C    2.466   153 C    1.314
   152   6 C    3.925 --   151 C    2.466   176 C    1.196   154 C    0.198
   153   6 C    3.931 --   154 C    2.467   151 C    1.314
   154   6 C    3.923 --   153 C    2.467    95 C    1.193   152 C    0.198
   155   6 C    3.919 --   195 C    1.251   156 C    1.244   150 C    1.196
   156   6 C    3.887 --   157 C    1.257   155 C    1.244   160 N    1.189
   157   6 C    3.954 --   158 C    1.571   156 C    1.257   197 H    0.975
   158   6 C    3.955 --   157 C    1.571   159 C    1.251   198 H    0.974
   159   6 C    3.891 --   161 C    1.294   158 C    1.251   160 N    1.166
   160   7 N    3.469 --   156 C    1.189   159 C    1.166   199 H    0.874
   161   6 C    3.926 --   171 C    1.335   159 C    1.294   162 C    1.038
   162   6 C    3.987 --   170 C    1.377   163 C    1.376   161 C    1.038
   163   6 C    3.987 --   164 C    1.473   162 C    1.376   200 H    0.972
   164   6 C    3.989 --   163 C    1.473   165 C    1.341   201 H    0.968
   165   6 C    3.951 --   169 C    1.342   164 C    1.341   166 N    1.109
   166   7 N    3.219 --   165 C    1.109   168 C    0.964   167 C    0.963
   167   6 C    3.969 --   202 H    0.985   204 H    0.983   203 H    0.983
                           166 N    0.963
   168   6 C    3.969 --   207 H    0.985   205 H    0.983   206 H    0.983
                           166 N    0.964
   169   6 C    3.989 --   170 C    1.472   165 C    1.342   208 H    0.968
   170   6 C    3.987 --   169 C    1.472   162 C    1.377   209 H    0.972
   171   6 C    3.915 --   161 C    1.335   174 N    1.283   172 C    1.128
   172   6 C    3.966 --   173 C    1.705   171 C    1.128   210 H    0.973
   173   6 C    3.963 --   172 C    1.705   175 C    1.132   211 H    0.975
   174   7 N    3.006 --   175 C    1.345   171 C    1.283
   175   6 C    3.910 --   174 N    1.345   176 C    1.251   173 C    1.132
   176   6 C    3.919 --   175 C    1.251   177 C    1.244   152 C    1.196
   177   6 C    3.887 --   178 C    1.257   176 C    1.244   181 N    1.189
   178   6 C    3.954 --   179 C    1.571   177 C    1.257   212 H    0.975
   179   6 C    3.955 --   178 C    1.571   180 C    1.251   213 H    0.974
   180   6 C    3.891 --   182 C    1.294   179 C    1.251   181 N    1.166
   181   7 N    3.469 --   177 C    1.189   180 C    1.166   214 H    0.874
   182   6 C    3.926 --   192 C    1.335   180 C    1.294   183 C    1.038
   183   6 C    3.987 --   191 C    1.376   184 C    1.376   182 C    1.038
   184   6 C    3.986 --   185 C    1.473   183 C    1.376   215 H    0.972
   185   6 C    3.989 --   184 C    1.473   186 C    1.341   216 H    0.968
   186   6 C    3.951 --   190 C    1.342   185 C    1.341   187 N    1.109
   187   7 N    3.219 --   186 C    1.109   188 C    0.964   189 C    0.963
   188   6 C    3.969 --   219 H    0.985   218 H    0.983   217 H    0.983
                           187 N    0.964
   189   6 C    3.969 --   221 H    0.985   220 H    0.983   222 H    0.983
                           187 N    0.963
   190   6 C    3.989 --   191 C    1.472   186 C    1.342   223 H    0.968
   191   6 C    3.987 --   190 C    1.472   183 C    1.376   224 H    0.972
   192   6 C    3.915 --   182 C    1.335   196 N    1.284   193 C    1.128
   193   6 C    3.966 --   194 C    1.704   192 C    1.128   225 H    0.973
   194   6 C    3.963 --   193 C    1.704   195 C    1.132   226 H    0.975
   195   6 C    3.910 --   196 N    1.345   155 C    1.251   194 C    1.132
   196   7 N    3.006 --   195 C    1.345   192 C    1.284
   197   1 H    1.002 --   157 C    0.975
   198   1 H    1.006 --   158 C    0.974
   199   1 H    0.988 --   160 N    0.874
   200   1 H    1.005 --   163 C    0.972
   201   1 H    1.002 --   164 C    0.968
   202   1 H    1.009 --   167 C    0.985
   203   1 H    1.013 --   167 C    0.983
   204   1 H    1.003 --   167 C    0.983
   205   1 H    1.013 --   168 C    0.983
   206   1 H    1.003 --   168 C    0.983
   207   1 H    1.009 --   168 C    0.985
   208   1 H    1.002 --   169 C    0.968
   209   1 H    1.006 --   170 C    0.972
   210   1 H    1.006 --   172 C    0.973
   211   1 H    1.003 --   173 C    0.975
   212   1 H    1.002 --   178 C    0.975
   213   1 H    1.006 --   179 C    0.974
   214   1 H    0.988 --   181 N    0.874
   215   1 H    1.005 --   184 C    0.972
   216   1 H    1.002 --   185 C    0.968
   217   1 H    1.003 --   188 C    0.983
   218   1 H    1.013 --   188 C    0.983
   219   1 H    1.009 --   188 C    0.985
   220   1 H    1.003 --   189 C    0.983
   221   1 H    1.009 --   189 C    0.985
   222   1 H    1.013 --   189 C    0.983
   223   1 H    1.002 --   190 C    0.968
   224   1 H    1.006 --   191 C    0.972
   225   1 H    1.006 --   193 C    0.973
   226   1 H    1.003 --   194 C    0.975
 ---------------------------------------------------------------------------

           -------------------------------------------------
          | TOTAL ENERGY             -351.958950101198 Eh   |
          | GRADIENT NORM               0.000458290992 Eh/α |
          | HOMO-LUMO GAP               0.775033740217 eV   |
           -------------------------------------------------

 * finished run on 2022/07/28 at 11:17:18.417
