   * xtb version 6.5.1 (b24c23e) compiled by 'conda@728c89f4b128' on 2022-07-12
          program call               : xtb Co_Ph_C4_2.xyz --gfn 1 --opt -T 48

   ID    Z sym.   atoms
    1   27 Co     1, 57
    2    6 C      2-6, 8-11, 13-29, 32-37, 58-62, 64-67, 69-85, 88-93, 113-116
    3    7 N      7, 12, 30, 31, 63, 68, 86, 87
    4    1 H      38-56, 94-112
########################################################################
[WARNING] Please study the warnings concerning your input carefully
-1- prog_main_parseArguments: Unknown option '-T' provided
########################################################################

          :  Hamiltonian                  GFN1-xTB          :
 * total energy  :  -196.4273297 Eh     change       -0.4901608E-09 Eh
 * total energy  :  -196.5789909 Eh     change       -0.1516612E+00 Eh
 * total energy  :  -196.6245100 Eh     change       -0.4551903E-01 Eh
 * total energy  :  -196.6496309 Eh     change       -0.2512094E-01 Eh
 * total energy  :  -196.6595082 Eh     change       -0.9877274E-02 Eh
 * total energy  :  -196.6663285 Eh     change       -0.6820364E-02 Eh
 * total energy  :  -196.6689303 Eh     change       -0.2601739E-02 Eh
 * total energy  :  -196.6701827 Eh     change       -0.1252384E-02 Eh
 * total energy  :  -196.6705669 Eh     change       -0.3842641E-03 Eh
 * total energy  :  -196.6717411 Eh     change       -0.1174161E-02 Eh
 * total energy  :  -196.6738804 Eh     change       -0.1416270E-04 Eh
 * total energy  :  -196.6738907 Eh     change       -0.1024629E-04 Eh
 * total energy  :  -196.6739067 Eh     change       -0.1597131E-04 Eh
 * total energy  :  -196.6739157 Eh     change       -0.9010189E-05 Eh
 * total energy  :  -196.6739234 Eh     change       -0.7736293E-05 Eh
 * total energy  :  -196.6739404 Eh     change       -0.1701128E-04 Eh
 * total energy  :  -196.6739458 Eh     change       -0.5345027E-05 Eh
 * total energy  :  -196.6739518 Eh     change       -0.6057355E-05 Eh
 * total energy  :  -196.6739567 Eh     change       -0.4833636E-05 Eh
   *** GEOMETRY OPTIMIZATION CONVERGED AFTER 33 ITERATIONS ***

 final structure:
================
116
 xtb: 6.5.1 (b24c23e)
Co          14.06797079176640       -0.04094817175473       -0.05082500716086
C           10.68824700261218       -0.06975063216281       -0.04057842049767
C           11.35266979178181       -1.24185407731586       -0.32991522635152
C           10.68832741852282       -2.47326293009876       -0.63054621575826
C           11.64552885916815       -3.42896705158840       -0.67438039020009
C           12.89486605245687       -2.77788780523108       -0.40841703725926
N           12.70842778756844       -1.43027937212013       -0.23345574628429
C           14.09021498679571       -3.45266417762396       -0.20076509688989
C           15.27603642899879       -2.78645701134959        0.06417237674351
C           16.53381438100930       -3.44629777066661        0.24765230248557
C           17.48106594885475       -2.47937150430633        0.28419374638968
N           15.45006954952809       -1.42063518425019        0.02955124065541
C           16.80071835643292       -1.23377329629355        0.12081277100961
C           17.46690849096711       -0.01591212279787       -0.03505518040034
C           16.77903209226169        1.19173938489170       -0.17538641032839
C           17.43236320815563        2.44688087339693       -0.37048629340725
C           16.47083926445926        3.39890898245081       -0.30462160014473
C           15.23407100316695        2.72003208188666       -0.06094329815633
C           14.03598774352141        3.36639528423418        0.20179860417380
C           14.02261595099250        4.84508691136574        0.29740778341162
C           13.25316629381877        5.60434738396482       -0.58525858221045
C           13.24418818882815        6.98808495743011       -0.49466761754907
C           13.99653909324646        7.62887956823605        0.48039549358549
C           14.76253336548277        6.88009719407014        1.36357872688937
C           14.77962796510929        5.49650079565758        1.27207879087074
C           12.84747847337792        2.66953887690763        0.37095038151001
C           11.59154078168976        3.29030464960806        0.67560296859543
C           10.64818898378107        2.32287859150330        0.59763515776362
C           11.33094920255428        1.11140969492299        0.25952177073984
N           12.68490396999257        1.32107353524687        0.17834539252051
N           15.42985892734177        1.35784939984236       -0.03515767704426
C           14.09754699025811       -4.93483514381506       -0.26427683245817
C           13.83952165767446       -5.59233117823079       -1.46709294207710
C           13.84691109523695       -6.97825406199740       -1.52220756954594
C           14.10749650076545       -7.72119869387922       -0.37885903130097
C           14.36374345175276       -7.07288276644404        0.82166975149849
C           14.36130587062558       -5.68720413124076        0.88038241380110
H            9.60460377169854       -0.07950708677369       -0.04221143434594
H            9.62350085879753       -2.57509756115111       -0.76751578672841
H           11.52742372251780       -4.48585383586346       -0.84990380719764
H           16.66574562073113       -4.51386077023676        0.31364060558978
H           18.54835935131592       -2.58393620416342        0.39475403241248
H           18.49177778275466        2.56679756200678       -0.53033530940926
H           16.57681500098522        4.46615840239716       -0.41163080668613
H           12.67434628376898        5.10572984914847       -1.35477436070035
H           12.64725956947763        7.56867491566821       -1.18932216218273
H           13.98605636104487        8.71060843798754        0.55177153944223
H           15.34961997750418        7.37581711502457        2.12873935183803
H           15.36943405583735        4.91206051354270        1.96948159256603
H           11.46295019830756        4.33376041972956        0.91354254937638
H            9.58301831363210        2.40240831342499        0.74633847330397
H           13.64757989579728       -5.01294950321437       -2.36329475765631
H           13.64894686521379       -7.48008601799704       -2.46288300486630
H           14.11098674945440       -8.80443148229692       -0.42342216304164
H           14.56573343348757       -7.64873898966782        1.71802240161254
H           14.55028112868248       -5.18165985295686        1.82082951086210
Co          27.46718861543800        0.04381629789867       -0.04753510929169
C           30.84693197203812        0.07130762236751       -0.03692161116258
C           30.18269767369532        1.25536798727975       -0.27312352696293
C           30.84729971661850        2.49882682172567       -0.51850982059843
C           29.89023925487784        3.45568377352978       -0.52004755945359
C           28.64077586973254        2.79362581003875       -0.28338223913574
N           28.82700486842294        1.43959446939996       -0.16815242489013
C           27.44530562970313        3.45887977659690       -0.04761667882375
C           26.25947412727967        2.78190761509312        0.18849872755234
C           25.00174289735742        3.43314959288777        0.40083848857692
C           24.05450869402327        2.46554519450006        0.39542845424874
N           26.08539645108040        1.41892867216599        0.09418997013665
C           24.73473882628359        1.22828758084397        0.17729843232610
C           24.06827462496818        0.01863143803690       -0.03227445821110
C           24.75594828037666       -1.18167161103734       -0.22596151027881
C           24.10245973645181       -2.42681462094666       -0.47668788487619
C           25.06378509940508       -3.38101064522793       -0.45251494875337
C           26.30056647942017       -2.71381340778896       -0.17862336437135
C           27.49847946098620       -3.37138236882070        0.05550200026641
C           27.51160857391308       -4.85284972992023        0.08585564631246
C           28.28088917626760       -5.57258206759234       -0.82946482842781
C           28.28989746572438       -6.95895330060780       -0.79978216975723
C           27.53773636625466       -7.64200503819314        0.14631251929283
C           26.77182073103281       -6.93276875585264        1.06161595529786
C           26.75467688537118       -5.54648996901397        1.03099623097646
C           28.68716062095902       -2.68290680532957        0.25491303882980
C           29.94312874323706       -3.31681474377990        0.53110237823613
C           30.88675326421946       -2.34721120107403        0.49478970097438
C           30.20410195116015       -1.12183470753827        0.21088946079168
N           28.85001880050036       -1.32729350792025        0.12166220358507
N           26.10505664013210       -1.35405700831299       -0.09272221821893
C           27.43773789823533        4.94245126093492       -0.04933170135245
C           27.69659762659346        5.64915473489759       -1.22363054755270
C           27.68756497298394        7.03608190264313       -1.22241112468948
C           27.42594351829479        7.73115248362600       -0.04941303507538
C           27.16895074481136        7.03373251941914        1.12335273969558
C           27.17247664345640        5.64677602655377        1.12487932303520
H           31.93057935196308        0.08076566684077       -0.03908038970992
H           31.91216949702810        2.60648238952481       -0.65059847866567
H           30.00851899688664        4.51937211811110       -0.64797696538658
H           24.86986423641472        4.49674721915702        0.51395306313409
H           22.98725687102223        2.56521584884459        0.51085715950269
H           23.04311104056322       -2.53933073304631       -0.64221752617534
H           24.95768107822014       -4.44245083812511       -0.60666383104139
H           28.85959055847054       -5.04064149862870       -1.57642617502120
H           28.88672913414329       -7.50844739227693       -1.51936036132273
H           27.54830176051903       -8.72582116396974        0.17012380115684
H           26.18486638912788       -7.46165782203307        1.80433783656393
H           26.16491336541759       -4.99328310909310        1.75345713048749
H           30.07157447636294       -4.36973149157013        0.72297731256139
H           31.95201963442753       -2.43354994462648        0.63893332961314
H           27.88890069613327        5.10726834696839       -2.14281109144872
H           27.88619129805349        7.57637232791999       -2.14147192782557
H           27.42196348442354        8.81523505591331       -0.04976108795676
H           26.96564652909459        7.57177956740218        2.04259636746839
H           26.98353334530674        5.10253477439905        2.04349385072105
C           20.09301321779896       -0.00128217938973       -0.04860809005235
C           18.87051678251411       -0.00585058673479       -0.04694153461886
C           21.44213330267486        0.00486103650677       -0.04767715755643
C           22.66463819064051        0.00942500936122       -0.04520670448698

          :  Hamiltonian                  GFN1-xTB          :
         :: total energy            -196.673956653411 Eh    ::
         :: gradient norm              0.000680817130 Eh/a0 ::
         :: HOMO-LUMO gap              0.010231326215 eV    ::
         :: SCC energy              -199.909598710596 Eh    ::
         :: repulsion energy           3.339157397230 Eh    ::

    * Orbital Energies and Occupations

         #    Occupation            Energy/Eh            Energy/eV
      -------------------------------------------------------------
         1        2.0000           -0.7707278             -20.9726
       ...           ...                  ...                  ...
       172        2.0000           -0.4271232             -11.6226
       173        2.0000           -0.4256947             -11.5837
       174        2.0000           -0.3970478             -10.8042
       175        2.0000           -0.3967177             -10.7952
       176        2.0000           -0.3967070             -10.7949
       177        2.0000           -0.3950451             -10.7497
       178        2.0000           -0.3950099             -10.7488
       179        1.9998           -0.3917871             -10.6611
       180        1.9998           -0.3917831             -10.6610
       181        1.9998           -0.3917236             -10.6593
       182        1.9998           -0.3917188             -10.6592
       183        1.9050           -0.3856926             -10.4952
       184        1.1462           -0.3831234             -10.4253 (HOMO)
       185        0.9494           -0.3827474             -10.4151 (LUMO)
       186                         -0.3384786              -9.2105
       187                         -0.3274529              -8.9104
       188                         -0.3274396              -8.9101
       189                         -0.3248284              -8.8390
       190                         -0.2980563              -8.1105
       191                         -0.2950437              -8.0285
       192                         -0.2950271              -8.0281
       193                         -0.2906779              -7.9097
       194                         -0.2658291              -7.2336
       195                         -0.2658213              -7.2334
       ...                                ...                  ...
       398                          1.5141641              41.2025
      -------------------------------------------------------------
                  HL-Gap            0.0003760 Eh            0.0102 eV

Wiberg/Mayer (AO) data.
largest (>0.10) Wiberg bond orders for each atom

     #   Z sym  total        # sym  WBO       # sym  WBO       # sym  WBO
 ---------------------------------------------------------------------------
     1  27 Co   3.038 --    30 N    0.638     7 N    0.636    12 N    0.634
                            31 N    0.631
     2   6 C    3.928 --    29 C    1.365     3 C    1.364    38 H    0.970
     3   6 C    3.925 --     2 C    1.364     7 N    1.203     4 C    1.174
     4   6 C    3.960 --     5 C    1.649     3 C    1.174    39 H    0.975
     5   6 C    3.963 --     4 C    1.649     6 C    1.177    40 H    0.973
     6   6 C    3.920 --     8 C    1.319     7 N    1.214     5 C    1.177
     7   7 N    3.347 --     6 C    1.214     3 C    1.203     1 Co   0.636
     8   6 C    3.932 --     9 C    1.336     6 C    1.319    32 C    1.021
     9   6 C    3.917 --     8 C    1.336    12 N    1.192    10 C    1.181
    10   6 C    3.959 --    11 C    1.639     9 C    1.181    41 H    0.973
    11   6 C    3.962 --    10 C    1.639    13 C    1.189    42 H    0.973
    12   7 N    3.346 --    13 C    1.233     9 C    1.192     1 Co   0.634
    13   6 C    3.905 --    14 C    1.260    12 N    1.233    11 C    1.189
    14   6 C    3.932 --    13 C    1.260    15 C    1.259   114 C    1.190
    15   6 C    3.905 --    14 C    1.259    31 N    1.232    16 C    1.191
    16   6 C    3.961 --    17 C    1.636    15 C    1.191    43 H    0.973
    17   6 C    3.959 --    16 C    1.636    18 C    1.182    44 H    0.973
    18   6 C    3.917 --    19 C    1.331    31 N    1.195    17 C    1.182
    19   6 C    3.932 --    18 C    1.331    26 C    1.319    20 C    1.028
    20   6 C    3.988 --    25 C    1.395    21 C    1.394    19 C    1.028
                            23 C    0.108
    21   6 C    3.987 --    22 C    1.448    20 C    1.394    45 H    0.973
                            24 C    0.110
    22   6 C    3.995 --    21 C    1.448    23 C    1.437    46 H    0.973
                            25 C    0.110
    23   6 C    3.990 --    24 C    1.438    22 C    1.437    47 H    0.974
                            20 C    0.108
    24   6 C    3.995 --    25 C    1.448    23 C    1.438    48 H    0.973
                            21 C    0.110
    25   6 C    3.988 --    24 C    1.448    20 C    1.395    49 H    0.973
                            22 C    0.110
    26   6 C    3.921 --    19 C    1.319    30 N    1.213    27 C    1.177
    27   6 C    3.963 --    28 C    1.648    26 C    1.177    50 H    0.973
    28   6 C    3.960 --    27 C    1.648    29 C    1.175    51 H    0.975
    29   6 C    3.925 --     2 C    1.365    30 N    1.202    28 C    1.175
    30   7 N    3.344 --    26 C    1.213    29 C    1.202     1 Co   0.638
    31   7 N    3.348 --    15 C    1.232    18 C    1.195     1 Co   0.631
    32   6 C    3.988 --    33 C    1.397    37 C    1.397     8 C    1.021
                            35 C    0.108
    33   6 C    3.988 --    34 C    1.446    32 C    1.397    52 H    0.973
                            36 C    0.110
    34   6 C    3.995 --    33 C    1.446    35 C    1.438    53 H    0.973
                            37 C    0.110
    35   6 C    3.991 --    34 C    1.438    36 C    1.438    54 H    0.974
                            32 C    0.108
    36   6 C    3.995 --    37 C    1.446    35 C    1.438    55 H    0.973
                            33 C    0.110
    37   6 C    3.988 --    36 C    1.446    32 C    1.397    56 H    0.973
                            34 C    0.110
    38   1 H    1.000 --     2 C    0.970
    39   1 H    0.998 --     4 C    0.975
    40   1 H    1.005 --     5 C    0.973
    41   1 H    1.005 --    10 C    0.973
    42   1 H    1.002 --    11 C    0.973
    43   1 H    1.002 --    16 C    0.973
    44   1 H    1.004 --    17 C    0.973
    45   1 H    1.005 --    21 C    0.973
    46   1 H    1.003 --    22 C    0.973
    47   1 H    1.003 --    23 C    0.974
    48   1 H    1.003 --    24 C    0.973
    49   1 H    1.005 --    25 C    0.973
    50   1 H    1.004 --    27 C    0.973
    51   1 H    0.998 --    28 C    0.975
    52   1 H    1.004 --    33 C    0.973
    53   1 H    1.003 --    34 C    0.973
    54   1 H    1.003 --    35 C    0.974
    55   1 H    1.003 --    36 C    0.973
    56   1 H    1.004 --    37 C    0.973
    57  27 Co   3.039 --    86 N    0.638    63 N    0.636    68 N    0.634
                            87 N    0.631
    58   6 C    3.928 --    85 C    1.365    59 C    1.364    94 H    0.970
    59   6 C    3.925 --    58 C    1.364    63 N    1.203    60 C    1.174
    60   6 C    3.960 --    61 C    1.649    59 C    1.174    95 H    0.975
    61   6 C    3.963 --    60 C    1.649    62 C    1.177    96 H    0.973
    62   6 C    3.920 --    64 C    1.319    63 N    1.214    61 C    1.177
    63   7 N    3.347 --    62 C    1.214    59 C    1.203    57 Co   0.636
    64   6 C    3.932 --    65 C    1.336    62 C    1.319    88 C    1.021
    65   6 C    3.917 --    64 C    1.336    68 N    1.192    66 C    1.181
    66   6 C    3.959 --    67 C    1.639    65 C    1.181    97 H    0.973
    67   6 C    3.962 --    66 C    1.639    69 C    1.189    98 H    0.973
    68   7 N    3.346 --    69 C    1.233    65 C    1.192    57 Co   0.634
    69   6 C    3.905 --    70 C    1.260    68 N    1.233    67 C    1.189
    70   6 C    3.932 --    69 C    1.260    71 C    1.259   116 C    1.190
    71   6 C    3.905 --    70 C    1.259    87 N    1.232    72 C    1.191
    72   6 C    3.961 --    73 C    1.636    71 C    1.191    99 H    0.973
    73   6 C    3.959 --    72 C    1.636    74 C    1.182   100 H    0.973
    74   6 C    3.917 --    75 C    1.331    87 N    1.195    73 C    1.182
    75   6 C    3.932 --    74 C    1.331    82 C    1.319    76 C    1.028
    76   6 C    3.988 --    81 C    1.395    77 C    1.394    75 C    1.028
                            79 C    0.108
    77   6 C    3.987 --    78 C    1.448    76 C    1.394   101 H    0.973
                            80 C    0.110
    78   6 C    3.995 --    77 C    1.448    79 C    1.437   102 H    0.973
                            81 C    0.110
    79   6 C    3.990 --    80 C    1.438    78 C    1.437   103 H    0.974
                            76 C    0.108
    80   6 C    3.995 --    81 C    1.448    79 C    1.438   104 H    0.973
                            77 C    0.110
    81   6 C    3.988 --    80 C    1.448    76 C    1.395   105 H    0.973
                            78 C    0.110
    82   6 C    3.921 --    75 C    1.319    86 N    1.213    83 C    1.176
    83   6 C    3.963 --    84 C    1.648    82 C    1.176   106 H    0.973
    84   6 C    3.960 --    83 C    1.648    85 C    1.175   107 H    0.975
    85   6 C    3.925 --    58 C    1.365    86 N    1.202    84 C    1.175
    86   7 N    3.344 --    82 C    1.213    85 C    1.202    57 Co   0.638
    87   7 N    3.348 --    71 C    1.232    74 C    1.195    57 Co   0.631
    88   6 C    3.988 --    93 C    1.397    89 C    1.397    64 C    1.021
                            91 C    0.109
    89   6 C    3.988 --    90 C    1.446    88 C    1.397   108 H    0.973
                            92 C    0.110
    90   6 C    3.995 --    89 C    1.446    91 C    1.438   109 H    0.973
                            93 C    0.110
    91   6 C    3.991 --    90 C    1.438    92 C    1.438   110 H    0.974
                            88 C    0.109
    92   6 C    3.995 --    93 C    1.446    91 C    1.438   111 H    0.973
                            89 C    0.110
    93   6 C    3.988 --    92 C    1.446    88 C    1.397   112 H    0.973
                            90 C    0.110
    94   1 H    1.000 --    58 C    0.970
    95   1 H    0.998 --    60 C    0.975
    96   1 H    1.005 --    61 C    0.973
    97   1 H    1.005 --    66 C    0.973
    98   1 H    1.002 --    67 C    0.973
    99   1 H    1.002 --    72 C    0.973
   100   1 H    1.004 --    73 C    0.973
   101   1 H    1.005 --    77 C    0.973
   102   1 H    1.003 --    78 C    0.973
   103   1 H    1.003 --    79 C    0.974
   104   1 H    1.003 --    80 C    0.973
   105   1 H    1.005 --    81 C    0.973
   106   1 H    1.004 --    83 C    0.973
   107   1 H    0.998 --    84 C    0.975
   108   1 H    1.004 --    89 C    0.973
   109   1 H    1.002 --    90 C    0.973
   110   1 H    1.003 --    91 C    0.974
   111   1 H    1.003 --    92 C    0.973
   112   1 H    1.004 --    93 C    0.973
   113   6 C    3.930 --   114 C    2.469   115 C    1.312
   114   6 C    3.920 --   113 C    2.469    14 C    1.190   116 C    0.198
   115   6 C    3.930 --   116 C    2.469   113 C    1.312
   116   6 C    3.920 --   115 C    2.469    70 C    1.190   114 C    0.198
 ---------------------------------------------------------------------------

           -------------------------------------------------
          | TOTAL ENERGY             -196.673956653411 Eh   |
          | GRADIENT NORM               0.000680817130 Eh/α |
          | HOMO-LUMO GAP               0.010231326215 eV   |
           -------------------------------------------------

 * finished run on 2022/07/30 at 01:28:09.044
