   * xtb version 6.5.1 (b24c23e) compiled by 'conda@728c89f4b128' on 2022-07-12
          program call               : xtb Co_Py_C6_3.xyz --gfn 1 --opt -T 48

   ID    Z sym.   atoms
    1   27 Co     1, 55, 121
    2    6 C      2-6, 8-11, 13-17, 19-24, 26-29, 31-36, 56-60, 62-65, 67-71,
                  73-78, 80-83, 85-90, 109-120, 122-126, 128-131, 133-137,
                  139-144, 146-149, 151-156
    3    7 N      7, 12, 18, 25, 30, 37, 61, 66, 72, 79, 84, 91, 127, 132,
                  138, 145, 150, 157
    4    1 H      38-54, 92-108, 158-173

          :  Hamiltonian                  GFN1-xTB          :
 * total energy  :  -309.2588941 Eh     change        0.2163233E-08 Eh
 * total energy  :  -309.6354238 Eh     change       -0.3765297E+00 Eh
 * total energy  :  -309.7537387 Eh     change       -0.1183149E+00 Eh
 * total energy  :  -309.8373337 Eh     change       -0.8359502E-01 Eh
 * total energy  :  -309.9070496 Eh     change       -0.6971585E-01 Eh
 * total energy  :  -309.9766509 Eh     change       -0.6960131E-01 Eh
 * total energy  :  -310.0204665 Eh     change       -0.4381558E-01 Eh
 * total energy  :  -310.0474110 Eh     change       -0.2694453E-01 Eh
 * total energy  :  -310.0680714 Eh     change       -0.2066039E-01 Eh
 * total energy  :  -310.0817976 Eh     change       -0.1372617E-01 Eh
 * total energy  :  -310.1693911 Eh     change       -0.2797441E-04 Eh
 * total energy  :  -310.1694195 Eh     change       -0.2830430E-04 Eh
 * total energy  :  -310.1694454 Eh     change       -0.2592368E-04 Eh
 * total energy  :  -310.1694678 Eh     change       -0.2237843E-04 Eh
 * total energy  :  -310.1694797 Eh     change       -0.1191580E-04 Eh
 * total energy  :  -310.1694875 Eh     change       -0.7795979E-05 Eh
 * total energy  :  -310.1694939 Eh     change       -0.6427600E-05 Eh
 * total energy  :  -310.1694999 Eh     change       -0.6056523E-05 Eh
 * total energy  :  -310.1695045 Eh     change       -0.4528256E-05 Eh
   *** GEOMETRY OPTIMIZATION CONVERGED AFTER 67 ITERATIONS ***

 final structure:
================
173
 xtb: 6.5.1 (b24c23e)
Co          22.23854353969637       -0.01885460011294       -0.01429978826032
C           18.86896873527819       -0.05322447273222       -0.04646141442247
C           19.53792700295355       -1.25148892249265       -0.17665843685500
C           18.88678155512773       -2.51760257958028       -0.32557633060143
C           19.84633279520097       -3.46462086385642       -0.20516687473362
C           21.08512357844517       -2.77585310745459        0.01235174478116
N           20.89134462734885       -1.41843691245069       -0.02273086254972
C           22.26656685025362       -3.39781934454050        0.39343636038053
C           22.27925916082386       -4.86893443301336        0.56948210821176
C           22.47545059914760       -5.44657362102191        1.82264037273878
C           22.47996229036430       -6.82817300710533        1.93496733014116
N           22.30903350066541       -7.63978732089401        0.89650564575355
C           22.12291503597586       -7.09608499408341       -0.30183355346683
C           22.09767339370032       -5.72652504976033       -0.51418382070740
C           23.43501211768254       -2.68518279438393        0.61382576751905
C           24.68099387814269       -3.28002302750611        0.99498565690669
C           25.62568004627856       -2.31569206141364        0.88382253251417
N           23.61234929718176       -1.35246538114362        0.31734794778366
C           24.95692968990941       -1.13758924937680        0.42943740459759
C           25.62596207934749        0.00993533281654       -0.00408486120651
C           24.93764273120870        1.14772262764353       -0.43226894120157
C           25.58195385742827        2.33027765298469       -0.90918018631385
C           24.62140891329910        3.28023308722141       -1.01387121452918
C           23.39404922992661        2.67481712694577       -0.59231591556998
N           23.59142390755530        1.34402873446694       -0.30358842456030
C           22.20799350307189        3.36607632564536       -0.39417534101706
C           22.20031900533332        4.83666806513077       -0.55296675204348
C           21.36740246975722        5.46374277063006       -1.47909424966932
C           21.40182975066278        6.84461712045161       -1.59225214231128
N           22.19325433669324        7.61295496474358       -0.85056315600161
C           22.98840668933137        7.02358570341958        0.03657630562566
C           23.02984880710909        5.65033585693808        0.21841670577651
C           21.02924632076104        2.71375879784891       -0.05631749720683
C           19.78141849291351        3.37421230696153        0.19352143974512
C           18.83737861360320        2.40746494485265        0.27962543374738
C           19.51138736568902        1.15774097401186        0.09897015032609
N           20.86253032222567        1.35263722344587       -0.04147402797095
H           17.78547011370987       -0.06462482891951       -0.05228389135968
H           17.82720708710689       -2.64466218131925       -0.48062586417906
H           19.73570961501605       -4.53639298351473       -0.23560001152441
H           22.60802245386001       -4.82326967914689        2.69884478093382
H           22.62738487372265       -7.30264699383657        2.90072961657674
H           21.98834618202437       -7.78519186353999       -1.13044308571890
H           21.95420563898690       -5.32733178133929       -1.51114399115353
H           24.80922442730302       -4.30993335696156        1.28546572771903
H           26.68557392081366       -2.38494385469071        1.06838461500805
H           26.63591572565764        2.40964923413446       -1.12159461070132
H           24.72324508556673        4.30094252301578       -1.34462261803703
H           20.71509795302453        4.87692207934598       -2.11473649078845
H           20.76661154392566        7.35516876716776       -2.31016990248518
H           23.62118375196159        7.67774828510159        0.62923360799570
H           23.68610534499185        5.21441349231529        0.96222910667244
H           19.65731489098675        4.44111484975511        0.28438823004317
H           17.77662585197405        2.51093791886756        0.44390985758229
Co          54.12672644926101        0.03739025605641       -0.00223682292262
C           57.50125350736453        0.05694682041453       -0.00967728317609
C           56.83939631133902        1.16376853506012       -0.49590927909199
C           57.50227647257741        2.32620264781627       -1.00416049997996
C           56.54602917234889        3.26350280320751       -1.20054909720533
C           55.29841114149234        2.67044774653047       -0.81608778912653
N           55.48397968320913        1.36758744330846       -0.42921634701407
C           54.11053095864871        3.37699200172279       -0.68682057896658
C           54.10370300329614        4.82949352638014       -0.98044868955780
C           53.87995139266038        5.76878331071045        0.02472066798954
C           53.88240458481997        7.11655841473242       -0.29914043193997
N           54.08512311558459        7.56415983357734       -1.53398541084789
C           54.29758293742454        6.67422934398622       -2.49787131672240
C           54.31874712334812        5.30669069300095       -2.27216755172396
C           52.93105127145427        2.76851434047497       -0.28789005258524
C           51.68117582496105        3.45535965465276       -0.15583251663249
C           50.73327171584074        2.50820153795500        0.03979658220847
N           52.75212122751427        1.41201786567755       -0.13342141510522
C           51.40469190248027        1.24716145793102        0.02017041760678
C           50.73363694293094        0.02192023837395        0.01545063037819
C           51.41707672005580       -1.19648640598825        0.00429624390353
C           50.76284030454121       -2.46530193273711       -0.05045989310811
C           51.72272080577643       -3.40442486929499        0.12766400936407
C           52.95871301377031       -2.70277139780619        0.30288975767177
N           52.76561484940941       -1.34715487839223        0.16127882841945
C           54.15039285820865       -3.30683420468671        0.67262549319606
C           54.16150692934292       -4.75899732608867        0.95659098498412
C           54.96316334908016       -5.63344175435314        0.22353700894077
C           54.93494634884213       -6.98654758486658        0.52190402447708
N           54.17882875051543       -7.49983834927918        1.48716034271225
C           53.41457881812573       -6.67273639732506        2.19315306687732
C           53.36930633266980       -5.30636142036582        1.96525550473883
C           55.33415247079434       -2.58876254634618        0.78037588750819
C           56.58190539905643       -3.15293419273068        1.20500953685874
C           57.52711365007035       -2.20414582106837        1.00777080037203
C           56.85389949369711       -1.05909127092147        0.47454628464044
N           55.50218910061437       -1.28356504194794        0.39552383405186
H           58.58480822697280        0.06579504647657       -0.00606453494277
H           58.56601791367493        2.40109134686372       -1.16445765621369
H           56.66325616624223        4.27574820157925       -1.55190649531366
H           53.72034020412725        5.44934464626403        1.04762040406634
H           53.71412002988465        7.86821776941590        0.46652767684634
H           54.45754980375747        7.07094791445997       -3.49616544453754
H           54.48496316464956        4.61682732492749       -3.09088841420786
H           51.55389535086468        4.52311969679080       -0.22775523765907
H           49.67032585627747        2.63338235536543        0.16876501802205
H           49.70406761821616       -2.60190419599352       -0.20065611674171
H           51.61523232820038       -4.47669209235708        0.14229314719418
H           55.58660539792977       -5.26101460298919       -0.58055228720311
H           55.54537652367217       -7.68801202821834       -0.03921181664712
H           52.81095302313297       -7.12148660011847        2.97663168459989
H           52.73906722821006       -4.66857231831183        2.57349505888563
H           56.70415206481990       -4.14888814713394        1.59877267469781
H           58.58812695102444       -2.25739196465260        1.19292145417064
C           30.82421951602040        0.03492274298332       -0.02217947905018
C           29.59525141462445        0.03251080240504       -0.01859049823849
C           28.25236979299245        0.02730686365452       -0.01443236058856
C           27.02821980089909        0.01945389174897       -0.01005697906138
C           32.16678217337506        0.03364573322481       -0.02353887714719
C           33.39136094070749        0.03151359904961       -0.02607805296224
C           46.76490248697169        0.00246162294751        0.01657570543127
C           45.53576107506014       -0.00040268727877        0.01207404595392
C           44.19363534925407       -0.00263795208855        0.00721328545420
C           42.96890165689729       -0.00374053461713       -0.00068408045814
C           48.10734811175956        0.00875868477152        0.01789431407693
C           49.33169258408342        0.01432092579534        0.01557353940748
Co          38.18067122503237        0.02392854829925       -0.00270055309316
C           34.79211024471923        0.02289857249538       -0.02631623419883
C           35.46941132888964       -0.64238141595710        1.00082380786663
C           34.81925953520663       -1.28508083327812        2.09792035882309
C           35.77117005265670       -1.99776935001688        2.74965640856523
C           36.99660211624785       -1.79457051869476        2.03864252461765
N           36.80935113100711       -0.90599074070795        1.00627805876404
C           38.16725706960874       -2.50604682230467        2.26604629273816
C           38.16290819851043       -3.59224562600587        3.26940066347702
C           37.29117411225437       -4.67547781432686        3.16186798851006
C           37.32521612758801       -5.66792731377271        4.12864197968758
N           38.15118610772144       -5.63709369881201        5.16957392524433
C           38.98332828041635       -4.60674006200985        5.28118997936528
C           39.02887395842922       -3.57013333977904        4.36252217744716
C           39.34229285329100       -2.22216603358509        1.58358783420351
C           40.56532986976642       -2.95022875085459        1.73623921046428
C           41.52501570106490       -2.23916555137257        1.09486325521674
N           39.53765596961873       -1.12110826657536        0.78253899773556
C           40.88192376800610       -1.08912092499109        0.54360693326657
C           41.56869531818186       -0.00344767670219       -0.00966588192663
C           40.89168854238749        1.08151398370744       -0.57673195856345
C           41.54291122719147        2.22577470917275       -1.13026177702620
C           40.59389079739803        2.92648737041562       -1.79895685768467
C           39.36849592735956        2.20099616473458       -1.65527876532502
N           39.55295803876655        1.10540144460672       -0.84559406465452
C           38.19926344560877        2.48255967073879       -2.34943658254115
C           38.21156947569860        3.55561943832995       -3.36680227445338
C           39.08382226482543        3.50991546286743       -4.45409004952021
C           39.05711162199766        4.53643670094117       -5.38475308565809
N           38.23776261878223        5.57868341462687       -5.28988630218369
C           37.40618264046246        5.63213622895078       -4.25447057087036
C           37.35374918469774        4.65145720982474       -3.27658730159323
C           37.02016523768651        1.78928746885801       -2.11225059337510
C           35.79475263886662        2.00833329201420       -2.81921115644433
C           34.83302472869919        1.32221062180819       -2.15434247473939
C           35.47748410670702        0.67563485421619       -1.05585829580952
N           36.82335556790171        0.90685421136419       -1.07537449425034
H           33.76822398653653       -1.20001757865445        2.32228806711119
H           35.66282355104186       -2.60932687658904        3.63048741202361
H           36.60892105361179       -4.74834100588872        2.32331377809883
H           36.65979217112346       -6.52383421628760        4.06424854982304
H           39.64323669704492       -4.60885468804075        6.14373208420548
H           39.71495451753543       -2.74303941599376        4.50073342254470
H           40.66690256597723       -3.88023106495598        2.27130120326019
H           42.57745239868863       -2.45447816339270        1.00392318271884
H           42.59314617282069        2.44450593792313       -1.02345722504632
H           40.70378096849265        3.84993071563014       -2.34383915346337
H           39.76068300633357        2.67299796624072       -4.57823663229928
H           39.72260684523300        4.52059288201808       -6.24290026336922
H           36.75185166872799        6.49745581543503       -4.20348523382663
H           36.66828407247937        4.74313403153083       -2.44251630020595
H           35.69290762895811        2.61476456260831       -3.70430176511278
H           33.77886042410538        1.25686284802906       -2.37041304958100

          :  Hamiltonian                  GFN1-xTB          :
         :: total energy            -310.169504477867 Eh    ::
         :: gradient norm              0.000653509831 Eh/a0 ::
         :: HOMO-LUMO gap              0.005319055928 eV    ::
         :: SCC energy              -315.233305471599 Eh    ::
         :: repulsion energy           5.220755047352 Eh    ::

    * Orbital Energies and Occupations

         #    Occupation            Energy/Eh            Energy/eV
      -------------------------------------------------------------
         1        2.0000           -0.7810504             -21.2535
       ...           ...                  ...                  ...
       276        2.0000           -0.4021792             -10.9439
       277        2.0000           -0.4019479             -10.9376
       278        2.0000           -0.4019255             -10.9369
       279        1.9998           -0.3990427             -10.8585
       280        1.9998           -0.3988818             -10.8541
       281        1.9998           -0.3986333             -10.8474
       282        1.9997           -0.3985431             -10.8449
       283        1.9997           -0.3984762             -10.8431
       284        1.9997           -0.3983741             -10.8403
       285        1.9989           -0.3972219             -10.8090
       286        1.7500           -0.3918610             -10.6631
       287        1.1194           -0.3901330             -10.6161
       288        1.1133           -0.3901202             -10.6157 (HOMO)
       289        1.0198           -0.3899248             -10.6104 (LUMO)
       290                         -0.3503302              -9.5330
       291                         -0.3406464              -9.2695
       292                         -0.3382699              -9.2048
       293                         -0.3354028              -9.1268
       294                         -0.3351142              -9.1189
       295                         -0.3349247              -9.1138
       296                         -0.3160258              -8.5995
       297                         -0.3056693              -8.3177
       298                         -0.3043160              -8.2809
       299                         -0.3005555              -8.1785
       ...                                ...                  ...
       607                          1.5700123              42.7222
      -------------------------------------------------------------
                  HL-Gap            0.0001955 Eh            0.0053 eV

Wiberg/Mayer (AO) data.
largest (>0.10) Wiberg bond orders for each atom

     #   Z sym  total        # sym  WBO       # sym  WBO       # sym  WBO
 ---------------------------------------------------------------------------
     1  27 Co   3.041 --     7 N    0.640    37 N    0.639    18 N    0.635
                            25 N    0.635
     2   6 C    3.929 --     3 C    1.366    36 C    1.365    38 H    0.970
     3   6 C    3.924 --     2 C    1.366     7 N    1.200     4 C    1.173
     4   6 C    3.960 --     5 C    1.651     3 C    1.173    39 H    0.975
     5   6 C    3.963 --     4 C    1.651     6 C    1.175    40 H    0.973
     6   6 C    3.920 --     8 C    1.320     7 N    1.211     5 C    1.175
     7   7 N    3.348 --     6 C    1.211     3 C    1.200     1 Co   0.640
     8   6 C    3.933 --    15 C    1.335     6 C    1.320     9 C    1.022
     9   6 C    3.986 --    10 C    1.395    14 C    1.395     8 C    1.022
                            12 N    0.107
    10   6 C    3.988 --    11 C    1.441     9 C    1.395    41 H    0.973
                            13 C    0.109
    11   6 C    3.972 --    10 C    1.441    12 N    1.416    42 H    0.972
                            14 C    0.109
    12   7 N    3.031 --    11 C    1.416    13 C    1.416     9 C    0.107
    13   6 C    3.972 --    14 C    1.441    12 N    1.416    43 H    0.972
                            10 C    0.109
    14   6 C    3.987 --    13 C    1.441     9 C    1.395    44 H    0.973
                            11 C    0.109
    15   6 C    3.916 --     8 C    1.335    18 N    1.191    16 C    1.180
    16   6 C    3.958 --    17 C    1.640    15 C    1.180    45 H    0.973
    17   6 C    3.962 --    16 C    1.640    19 C    1.188    46 H    0.973
    18   7 N    3.349 --    19 C    1.230    15 C    1.191     1 Co   0.635
    19   6 C    3.902 --    20 C    1.259    18 N    1.230    17 C    1.188
    20   6 C    3.935 --    21 C    1.259    19 C    1.259   112 C    1.192
    21   6 C    3.903 --    20 C    1.259    25 N    1.228    22 C    1.189
    22   6 C    3.961 --    23 C    1.637    21 C    1.189    47 H    0.973
    23   6 C    3.958 --    22 C    1.637    24 C    1.181    48 H    0.973
    24   6 C    3.917 --    26 C    1.330    25 N    1.193    23 C    1.181
    25   7 N    3.348 --    21 C    1.228    24 C    1.193     1 Co   0.635
    26   6 C    3.934 --    24 C    1.330    33 C    1.318    27 C    1.032
    27   6 C    3.986 --    28 C    1.391    32 C    1.391    26 C    1.032
                            30 N    0.106
    28   6 C    3.987 --    29 C    1.442    27 C    1.391    49 H    0.973
                            31 C    0.108
    29   6 C    3.972 --    28 C    1.442    30 N    1.415    50 H    0.972
                            32 C    0.108
    30   7 N    3.029 --    29 C    1.415    31 C    1.415    27 C    0.106
    31   6 C    3.972 --    32 C    1.442    30 N    1.415    51 H    0.972
                            28 C    0.108
    32   6 C    3.985 --    31 C    1.442    27 C    1.391    52 H    0.973
                            29 C    0.108
    33   6 C    3.921 --    26 C    1.318    37 N    1.212    34 C    1.176
    34   6 C    3.963 --    35 C    1.649    33 C    1.176    53 H    0.973
    35   6 C    3.958 --    34 C    1.649    36 C    1.174    54 H    0.975
    36   6 C    3.924 --     2 C    1.365    37 N    1.200    35 C    1.174
    37   7 N    3.347 --    33 C    1.212    36 C    1.200     1 Co   0.639
    38   1 H    1.000 --     2 C    0.970
    39   1 H    0.997 --     4 C    0.975
    40   1 H    1.004 --     5 C    0.973
    41   1 H    1.003 --    10 C    0.973
    42   1 H    1.013 --    11 C    0.972
    43   1 H    1.013 --    13 C    0.972
    44   1 H    1.003 --    14 C    0.973
    45   1 H    1.004 --    16 C    0.973
    46   1 H    1.001 --    17 C    0.973
    47   1 H    1.001 --    22 C    0.973
    48   1 H    1.003 --    23 C    0.973
    49   1 H    1.004 --    28 C    0.973
    50   1 H    1.013 --    29 C    0.972
    51   1 H    1.013 --    31 C    0.972
    52   1 H    1.004 --    32 C    0.973
    53   1 H    1.004 --    34 C    0.973
    54   1 H    0.997 --    35 C    0.975
    55  27 Co   3.024 --    61 N    0.637    91 N    0.637    72 N    0.632
                            79 N    0.632
    56   6 C    3.928 --    90 C    1.365    57 C    1.365    92 H    0.970
    57   6 C    3.924 --    56 C    1.365    61 N    1.201    58 C    1.173
    58   6 C    3.960 --    59 C    1.651    57 C    1.173    93 H    0.975
    59   6 C    3.963 --    58 C    1.651    60 C    1.175    94 H    0.973
    60   6 C    3.920 --    62 C    1.320    61 N    1.212    59 C    1.175
    61   7 N    3.347 --    60 C    1.212    57 C    1.201    55 Co   0.637
    62   6 C    3.932 --    69 C    1.335    60 C    1.320    63 C    1.022
    63   6 C    3.986 --    68 C    1.395    64 C    1.395    62 C    1.022
                            66 N    0.107
    64   6 C    3.988 --    65 C    1.441    63 C    1.395    95 H    0.973
                            67 C    0.109
    65   6 C    3.972 --    64 C    1.441    66 N    1.416    96 H    0.972
                            68 C    0.109
    66   7 N    3.031 --    67 C    1.416    65 C    1.416    63 C    0.107
    67   6 C    3.972 --    68 C    1.441    66 N    1.416    97 H    0.972
                            64 C    0.109
    68   6 C    3.987 --    67 C    1.441    63 C    1.395    98 H    0.973
                            65 C    0.109
    69   6 C    3.916 --    62 C    1.335    72 N    1.192    70 C    1.180
    70   6 C    3.958 --    71 C    1.640    69 C    1.180    99 H    0.973
    71   6 C    3.962 --    70 C    1.640    73 C    1.188   100 H    0.973
    72   7 N    3.347 --    73 C    1.232    69 C    1.192    55 Co   0.632
    73   6 C    3.902 --    74 C    1.258    72 N    1.232    71 C    1.188
    74   6 C    3.933 --    73 C    1.258    75 C    1.258   120 C    1.194
    75   6 C    3.902 --    74 C    1.258    79 N    1.232    76 C    1.189
    76   6 C    3.961 --    77 C    1.638    75 C    1.189   101 H    0.973
    77   6 C    3.958 --    76 C    1.638    78 C    1.181   102 H    0.973
    78   6 C    3.917 --    80 C    1.332    79 N    1.193    77 C    1.181
    79   7 N    3.347 --    75 C    1.232    78 C    1.193    55 Co   0.632
    80   6 C    3.932 --    78 C    1.332    87 C    1.317    81 C    1.030
    81   6 C    3.986 --    86 C    1.392    82 C    1.392    80 C    1.030
                            84 N    0.106
    82   6 C    3.987 --    83 C    1.442    81 C    1.392   103 H    0.973
                            85 C    0.109
    83   6 C    3.972 --    82 C    1.442    84 N    1.415   104 H    0.972
                            86 C    0.109
    84   7 N    3.030 --    85 C    1.416    83 C    1.415    81 C    0.106
    85   6 C    3.972 --    86 C    1.442    84 N    1.416   105 H    0.972
                            82 C    0.109
    86   6 C    3.987 --    85 C    1.442    81 C    1.392   106 H    0.973
                            83 C    0.109
    87   6 C    3.920 --    80 C    1.317    91 N    1.214    88 C    1.176
    88   6 C    3.963 --    89 C    1.649    87 C    1.176   107 H    0.973
    89   6 C    3.959 --    88 C    1.649    90 C    1.174   108 H    0.975
    90   6 C    3.924 --    56 C    1.365    91 N    1.200    89 C    1.174
    91   7 N    3.346 --    87 C    1.214    90 C    1.200    55 Co   0.637
    92   1 H    1.000 --    56 C    0.970
    93   1 H    0.997 --    58 C    0.975
    94   1 H    1.004 --    59 C    0.973
    95   1 H    1.003 --    64 C    0.973
    96   1 H    1.013 --    65 C    0.972
    97   1 H    1.013 --    67 C    0.972
    98   1 H    1.003 --    68 C    0.973
    99   1 H    1.004 --    70 C    0.973
   100   1 H    1.001 --    71 C    0.973
   101   1 H    1.001 --    76 C    0.973
   102   1 H    1.004 --    77 C    0.973
   103   1 H    1.004 --    82 C    0.973
   104   1 H    1.013 --    83 C    0.972
   105   1 H    1.013 --    85 C    0.972
   106   1 H    1.004 --    86 C    0.973
   107   1 H    1.004 --    88 C    0.973
   108   1 H    0.997 --    89 C    0.975
   109   6 C    3.920 --   110 C    2.356   113 C    1.343   112 C    0.188
   110   6 C    3.917 --   109 C    2.356   111 C    1.341   114 C    0.188
   111   6 C    3.931 --   112 C    2.441   110 C    1.341
   112   6 C    3.881 --   111 C    2.441    20 C    1.192   109 C    0.188
   113   6 C    3.925 --   114 C    2.435   109 C    1.343
   114   6 C    3.884 --   113 C    2.435   122 C    1.198   110 C    0.188
   115   6 C    3.917 --   116 C    2.353   119 C    1.343   118 C    0.188
   116   6 C    3.920 --   115 C    2.353   117 C    1.345   120 C    0.188
   117   6 C    3.925 --   118 C    2.433   116 C    1.345
   118   6 C    3.884 --   117 C    2.433   140 C    1.200   115 C    0.188
   119   6 C    3.930 --   120 C    2.438   115 C    1.343
   120   6 C    3.881 --   119 C    2.438    74 C    1.194   116 C    0.188
   121  27 Co   3.045 --   138 N    0.632   157 N    0.631   127 N    0.627
                           145 N    0.627
   122   6 C    3.921 --   156 C    1.254   123 C    1.253   114 C    1.198
   123   6 C    3.904 --   122 C    1.253   127 N    1.232   124 C    1.193
   124   6 C    3.959 --   125 C    1.632   123 C    1.193   158 H    0.974
   125   6 C    3.959 --   124 C    1.632   126 C    1.185   159 H    0.973
   126   6 C    3.915 --   128 C    1.320   127 N    1.197   125 C    1.185
   127   7 N    3.339 --   123 C    1.232   126 C    1.197   121 Co   0.627
   128   6 C    3.926 --   135 C    1.324   126 C    1.320   129 C    1.033
   129   6 C    3.986 --   130 C    1.391   134 C    1.391   128 C    1.033
                           132 N    0.106
   130   6 C    3.985 --   131 C    1.442   129 C    1.391   160 H    0.972
                           133 C    0.108
   131   6 C    3.972 --   130 C    1.442   132 N    1.416   161 H    0.972
                           134 C    0.109
   132   7 N    3.029 --   131 C    1.416   133 C    1.416   129 C    0.106
   133   6 C    3.972 --   134 C    1.442   132 N    1.416   162 H    0.972
                           130 C    0.108
   134   6 C    3.985 --   133 C    1.442   129 C    1.391   163 H    0.972
                           131 C    0.109
   135   6 C    3.915 --   128 C    1.324   138 N    1.195   136 C    1.184
   136   6 C    3.959 --   137 C    1.634   135 C    1.184   164 H    0.973
   137   6 C    3.959 --   136 C    1.634   139 C    1.192   165 H    0.974
   138   7 N    3.338 --   139 C    1.233   135 C    1.195   121 Co   0.632
   139   6 C    3.903 --   140 C    1.253   138 N    1.233   137 C    1.192
   140   6 C    3.921 --   139 C    1.253   141 C    1.252   118 C    1.200
   141   6 C    3.903 --   140 C    1.252   145 N    1.232   142 C    1.193
   142   6 C    3.959 --   143 C    1.632   141 C    1.193   166 H    0.974
   143   6 C    3.959 --   142 C    1.632   144 C    1.185   167 H    0.973
   144   6 C    3.915 --   146 C    1.320   145 N    1.197   143 C    1.185
   145   7 N    3.339 --   141 C    1.232   144 C    1.197   121 Co   0.627
   146   6 C    3.926 --   153 C    1.324   144 C    1.320   147 C    1.033
   147   6 C    3.986 --   152 C    1.391   148 C    1.391   146 C    1.033
                           150 N    0.106
   148   6 C    3.985 --   149 C    1.442   147 C    1.391   168 H    0.972
                           151 C    0.109
   149   6 C    3.972 --   148 C    1.442   150 N    1.415   169 H    0.972
                           152 C    0.109
   150   7 N    3.030 --   151 C    1.416   149 C    1.415   147 C    0.106
   151   6 C    3.972 --   152 C    1.442   150 N    1.416   170 H    0.972
                           148 C    0.109
   152   6 C    3.985 --   151 C    1.442   147 C    1.391   171 H    0.972
                           149 C    0.109
   153   6 C    3.915 --   146 C    1.324   157 N    1.195   154 C    1.184
   154   6 C    3.960 --   155 C    1.634   153 C    1.184   172 H    0.973
   155   6 C    3.959 --   154 C    1.634   156 C    1.192   173 H    0.974
   156   6 C    3.904 --   122 C    1.254   157 N    1.233   155 C    1.192
   157   7 N    3.338 --   156 C    1.233   153 C    1.195   121 Co   0.631
   158   1 H    1.001 --   124 C    0.974
   159   1 H    1.003 --   125 C    0.973
   160   1 H    1.004 --   130 C    0.972
   161   1 H    1.013 --   131 C    0.972
   162   1 H    1.013 --   133 C    0.972
   163   1 H    1.004 --   134 C    0.972
   164   1 H    1.003 --   136 C    0.973
   165   1 H    1.001 --   137 C    0.974
   166   1 H    1.001 --   142 C    0.974
   167   1 H    1.003 --   143 C    0.973
   168   1 H    1.004 --   148 C    0.972
   169   1 H    1.013 --   149 C    0.972
   170   1 H    1.013 --   151 C    0.972
   171   1 H    1.004 --   152 C    0.972
   172   1 H    1.003 --   154 C    0.973
   173   1 H    1.001 --   155 C    0.974
 ---------------------------------------------------------------------------

           -------------------------------------------------
          | TOTAL ENERGY             -310.169504477867 Eh   |
          | GRADIENT NORM               0.000653509831 Eh/α |
          | HOMO-LUMO GAP               0.005319055928 eV   |
           -------------------------------------------------

 * finished run on 2022/07/29 at 22:59:33.578
