   * xtb version 6.5.1 (b24c23e) compiled by 'conda@728c89f4b128' on 2022-07-12
          program call               : xtb Fe_PhCN_C2_3.xyz --gfn 1 --opt -T 48

   ID    Z sym.   atoms
    1   26 Fe     1, 59, 121
    2    6 C      2-6, 8-13, 15-19, 21-26, 28-33, 35-40, 60-64, 66-71, 73-77,
                  79-84, 86-91, 93-98, 117-120, 122-126, 128-133, 135-139,
                  141-146, 148-153, 155-160
    3    7 N      7, 14, 20, 27, 34, 41, 65, 72, 78, 85, 92, 99, 127, 134,
                  140, 147, 154, 161
    4    1 H      42-58, 100-116, 162-177

          :  Hamiltonian                  GFN1-xTB          :
 * total energy  :  -316.7574650 Eh     change        0.1410513E-07 Eh
 * total energy  :  -316.8970523 Eh     change       -0.1395873E+00 Eh
 * total energy  :  -317.0027000 Eh     change       -0.1056477E+00 Eh
 * total energy  :  -317.0501621 Eh     change       -0.4746208E-01 Eh
 * total energy  :  -317.0741489 Eh     change       -0.2398679E-01 Eh
 * total energy  :  -317.0939640 Eh     change       -0.1981509E-01 Eh
 * total energy  :  -317.1091138 Eh     change       -0.1514983E-01 Eh
 * total energy  :  -317.1215921 Eh     change       -0.1247832E-01 Eh
 * total energy  :  -317.1314661 Eh     change       -0.9873984E-02 Eh
 * total energy  :  -317.1390103 Eh     change       -0.7544195E-02 Eh
 * total energy  :  -317.1814011 Eh     change       -0.1377377E-04 Eh
 * total energy  :  -317.1814148 Eh     change       -0.1366373E-04 Eh
 * total energy  :  -317.1814273 Eh     change       -0.1250896E-04 Eh
 * total energy  :  -317.1814391 Eh     change       -0.1185649E-04 Eh
 * total energy  :  -317.1814492 Eh     change       -0.1011028E-04 Eh
 * total energy  :  -317.1814577 Eh     change       -0.8435043E-05 Eh
 * total energy  :  -317.1814662 Eh     change       -0.8564408E-05 Eh
 * total energy  :  -317.1814759 Eh     change       -0.9672705E-05 Eh
 * total energy  :  -317.1814784 Eh     change       -0.2505237E-05 Eh
   *** GEOMETRY OPTIMIZATION CONVERGED AFTER 94 ITERATIONS ***

 final structure:
================
177
 xtb: 6.5.1 (b24c23e)
Fe          36.38017073673541        0.03432342322105        0.05130852972894
C           32.99569227919435        0.01843102914607        0.14580102176947
C           33.63764734668042        1.23960989628130        0.18506786703059
C           32.95779734771529        2.49914795893124        0.22546238004280
C           33.90987477388131        3.44929860961883        0.38147291997521
C           35.16931458120993        2.76593665181227        0.45399636991190
N           34.99259421498127        1.42046527530725        0.28008459761130
C           36.38060850637508        3.38475280231756        0.74812555926266
C           36.38372491226700        4.83431445368524        1.04847572040963
C           35.64929529476823        5.33769885804399        2.12481005675584
C           35.65458973335536        6.69138125655652        2.40914088787323
C           36.39305146449401        7.57195704178577        1.61300133013008
C           36.39699544471492        8.96630831208991        1.90034467410024
N           36.40031960154180       10.09323980674279        2.13306966467721
C           37.12769120265884        7.07338480831592        0.53306442327899
C           37.12405813815867        5.71756383163810        0.25904990293675
C           37.58674259158770        2.69764850200720        0.78329004836730
C           38.83566711419239        3.28359810703859        1.16968259812383
C           39.78723036129241        2.33933854880958        0.97134372878485
N           37.77311605152055        1.39093010328672        0.40186131537497
C           39.11885403921638        1.18175573821740        0.46575683646118
C           39.78803661763907        0.03826316912073        0.00960479970397
C           39.11160609212502       -1.10165900537982       -0.44526741856260
C           39.77031608766030       -2.24797663436408       -0.98774686531957
C           38.81380415256120       -3.18478235808769       -1.19717983430096
C           37.57266539251035       -2.60848822062241       -0.77275051825495
N           37.76699723974600       -1.31055142410375       -0.36467593849735
C           36.37070762822225       -3.30080061318176       -0.71522238142634
C           36.36647605393525       -4.74194163954221       -1.05434936095342
C           35.59547724934888       -5.21731469452816       -2.11768366415189
C           35.59531444323061       -6.56227075094468       -2.44096475199284
C           36.36400966897566       -7.46221646774604       -1.69671378453123
C           36.36186130015545       -8.84752424550551       -2.02497083141529
N           36.35725625513646       -9.96593019546394       -2.29565271401420
C           37.13330525140206       -6.99200653972178       -0.62830463392456
C           37.13516024960082       -5.64456475151817       -0.31563907587792
C           35.17060828430637       -2.69858073229853       -0.34895257655440
C           33.92378943004733       -3.39622387858082       -0.21879767607304
C           32.97590621825613       -2.46083840885293        0.02655349469429
C           33.64569380014080       -1.19546803688582        0.05451158250001
N           34.99349171725370       -1.35993963821176       -0.13155146845760
H           31.91215144290936        0.01307313942365        0.18113022659202
H           31.88949544267073        2.62078888011256        0.14314676060245
H           33.78323939762160        4.51802245235316        0.44210015209762
H           35.08556645400978        4.65628248834219        2.75185420968119
H           35.08787930727778        7.07392853302757        3.24990208150249
H           37.69859155332986        7.75359813658070       -0.08805511808621
H           37.68607193903826        5.33540531475484       -0.58562730624278
H           38.95790466261436        4.28421148019720        1.55110034272984
H           40.84770199919995        2.40756516902777        1.15053322890246
H           40.82769819342226       -2.31327151367636       -1.18536620365755
H           38.92826613387738       -4.17514368620301       -1.60669105340899
H           35.00707336971880       -4.52060076698307       -2.70392165154512
H           35.00094777894392       -6.92311028612687       -3.27218312504335
H           37.72686590982919       -7.68742117655918       -0.04651699605326
H           37.72409656729904       -5.28453936495662        0.52037463649051
H           33.80288345893850       -4.46406992490471       -0.30269186021667
H           31.91615948722908       -2.59562087334435        0.17360858373574
Fe          58.07458636511651       -0.01267946107456        0.10836351826090
C           61.45893488388970        0.01131652950662        0.31152658887013
C           60.80687303366938       -1.17680703977766        0.56825204070403
C           61.48502615641377       -2.39319382842358        0.90141561109710
C           60.53676265422593       -3.35532567815153        0.98385481236520
C           59.27794523567601       -2.72104007036275        0.71611150167789
N           59.45622405998105       -1.38663940766846        0.47152684805719
C           58.06578501393238       -3.39958928792262        0.65123097804635
C           58.06191137409294       -4.86275839931823        0.89174396645576
C           58.40208548283103       -5.37007164509282        2.14746405019264
C           58.39484553434352       -6.73356826705514        2.38084013992512
C           58.05103756673577       -7.61800815258545        1.35422833703058
C           58.04584376560770       -9.02196428742557        1.59070643679553
N           58.03826899465354      -10.15637435149577        1.78392007060111
C           57.71265760406730       -7.11428352553874        0.09487945912301
C           57.71580704800703       -5.74901965593432       -0.12987461857706
C           56.85721915311181       -2.76850561888817        0.39462133240150
C           55.59333463423659       -3.44387793323907        0.38144798948421
C           54.64366537562633       -2.49176891147598        0.22131962091677
N           56.67705900418144       -1.41619872425157        0.22597385086411
C           55.32824056463727       -1.23946062163317        0.13595214382765
C           54.66532481952330       -0.01033725068647        0.04513647132282
C           55.33484834963343        1.21410767941243       -0.06043020125768
C           54.65584932612352        2.46128799194288       -0.22819701827212
C           55.61057433404680        3.39831878429401       -0.43918711490499
C           56.87277294506390        2.72267157950632       -0.37973514846913
N           56.68565065428437        1.38273744489062       -0.13727791027057
C           58.09385971647962        3.34272276589187       -0.60182597885347
C           58.10753710922469        4.78780834982442       -0.93392692689350
C           58.54488088090269        5.21536289341713       -2.18914361024682
C           58.55873274415502        6.56141393756329       -2.50811770627692
C           58.13991674497449        7.50824774232645       -1.56866216454141
C           58.15686901797864        8.89438990814257       -1.89322749416432
N           58.17294156201272       10.01414759839096       -2.15765412910815
C           57.70576416509147        7.08452465613320       -0.30926341652409
C           57.68830642344444        5.73624212173021        0.00084675327846
C           59.31105732564600        2.67704288752347       -0.50808259818771
C           60.58498168584992        3.32175146832257       -0.65073648207541
C           61.52743349635594        2.39234021689958       -0.36849100219944
C           60.82902844528208        1.18095723382126       -0.05992358948196
N           59.47501458915537        1.36335639243740       -0.16191395602006
H           62.54033826155185        0.02149512979208        0.38837853949466
H           62.55129677678026       -2.48185361417311        1.03574376829273
H           60.66665186419562       -4.40437680510784        1.19448406335183
H           58.65874317308432       -4.68575006055016        2.94815175451208
H           58.65421862142497       -7.12060423970067        3.35926814624662
H           57.44886174122917       -7.79761803886639       -0.70377666967551
H           57.46200855768787       -5.36155695950537       -1.11003302535658
H           55.45895669593803       -4.50665281808529        0.49965396247547
H           53.57333056176191       -2.61153665084484        0.17551184837107
H           53.58535338226280        2.58630094590780       -0.20702057712874
H           55.48047280546071        4.45113848709471       -0.62917955707413
H           58.86243778837015        4.48231899703085       -2.92200344643491
H           58.89352569171793        6.88665823143588       -3.48613485993858
H           57.38453761247474        7.81632498874237        0.42262647104340
H           57.36191075556663        5.41125236789229        0.98221865237200
H           60.72546648788010        4.35749469844937       -0.91403804545153
H           62.60049352267434        2.49873120757390       -0.36048761460101
C           41.19092971452380        0.03808155908134       -0.00056210274457
C           42.41031697520428        0.03950206628402       -0.01343301106681
C           52.04233745348389        0.00346181027866        0.02071681535696
C           53.26067749404006       -0.00589510658226        0.03462659185456
Fe          47.22686035870748        0.03143502259318       -0.02790057530728
C           43.81251857390101        0.03942082149135       -0.02525091156831
C           44.48580287266305       -1.18083070717971       -0.17633006863237
C           43.82325426656778       -2.44266006162872       -0.27246028603087
C           44.77505537779869       -3.36028277235650       -0.57298267696509
C           46.01611027373200       -2.65168355638266       -0.65852587364468
N           45.82880300210076       -1.32449355514638       -0.36167819510863
C           47.21707664406042       -3.22603606402296       -1.05939839066184
C           47.20398209772892       -4.63129053762778       -1.52383084078739
C           46.42995485221230       -4.99884375291919       -2.62726049232214
C           46.42027704703761       -6.30700337266051       -3.07621969584785
C           47.18207718645544       -7.27846214908195       -2.42011384101544
C           47.17491976917142       -8.62573553208300       -2.88045433929050
N           47.17017066894952       -9.71350186937039       -3.25578511234018
C           47.95168959463560       -6.91722028303802       -1.31034987922417
C           47.96337390103545       -5.60538792492429       -0.87155922664206
C           48.42701149526916       -2.54210522002963       -1.04120628796366
C           49.67395877909522       -3.09793050857808       -1.47371172450716
C           50.63375295466943       -2.19496662841325       -1.15536281989372
N           48.61947546388086       -1.28496774609169       -0.52323593818875
C           49.96781383233807       -1.08712110437595       -0.54659208853379
C           50.63896252711353        0.01398069861405        0.00008526446212
C           49.96832427433002        1.12916715487973        0.51760959514667
C           50.63371274111575        2.23992405556303        1.12175572743905
C           49.67986838153691        3.16566506352652        1.38855510119469
C           48.43665480759112        2.61718957690587        0.93665462253179
N           48.62459043014617        1.34815199266788        0.44797254419334
C           47.23278529130490        3.31234967064071        0.92669817125801
C           47.23092225830138        4.72734707684543        1.36147393600021
C           46.46359801388607        5.12573333799361        2.45874822530188
C           46.46570783336963        6.44383533847100        2.87788747239498
C           47.23276989346554        7.39413475488635        2.19743059123492
C           47.23492444959329        8.75208927279701        2.62529761841518
N           47.23838731261321        9.84875836594170        2.97338203749859
C           47.99752246833284        7.00138637904479        1.09500246163327
C           47.99784552736048        5.67976940547566        0.68645674632555
C           46.02838487925148        2.73705084188655        0.53891970005017
C           44.78743357932763        3.44655593780006        0.45764640863445
C           43.82925347654373        2.52472555356345        0.19250579410403
C           44.48862864757088        1.26046048515278        0.10728228721192
N           45.83466908805060        1.40529588320042        0.26564197228572
H           42.76680908307060       -2.59536470771758       -0.12469538636611
H           44.65739540527255       -4.42210005035264       -0.71530502734050
H           45.84743909872679       -4.24519146375469       -3.14495961404761
H           45.82414748227584       -6.58310828440891       -3.93803659772083
H           48.53859020134826       -7.66907914279815       -0.79597072074057
H           48.55209803131154       -5.33119724455098       -0.00352557717567
H           49.79177990064714       -4.05288427534021       -1.95912205164288
H           51.69728876270965       -2.25899743751262       -1.31893564782402
H           51.69300229518345        2.29146209180369        1.31471631279451
H           49.79848032597265        4.13051821365565        1.85382044442229
H           45.87709411496923        4.38871349186599        2.99553423267600
H           45.87467819828989        6.74416138839053        3.73511018089457
H           48.58952864002907        7.73649862130824        0.56259098700384
H           48.58370120674430        5.38038540289795       -0.17516940406477
H           44.67336156163422        4.51097558001290        0.58231372678062
H           42.77066005562746        2.67652326171731        0.05983124874264

          :  Hamiltonian                  GFN1-xTB          :
         :: total energy            -317.181478418054 Eh    ::
         :: gradient norm              0.000761266916 Eh/a0 ::
         :: HOMO-LUMO gap              0.052386407542 eV    ::
         :: SCC energy              -322.465488308360 Eh    ::
         :: repulsion energy           5.454420937982 Eh    ::

    * Orbital Energies and Occupations

         #    Occupation            Energy/Eh            Energy/eV
      -------------------------------------------------------------
         1        2.0000           -0.7861363             -21.3919
       ...           ...                  ...                  ...
       282        2.0000           -0.4107386             -11.1768
       283        2.0000           -0.4103757             -11.1669
       284        1.9999           -0.4063588             -11.0576
       285        1.9931           -0.4022213             -10.9450
       286        1.9927           -0.4021681             -10.9435
       287        1.9917           -0.4020469             -10.9403
       288        1.9676           -0.4007399             -10.9047
       289        1.9603           -0.4005443             -10.8994
       290        1.9550           -0.4004239             -10.8961
       291        1.9533           -0.4003875             -10.8951
       292        1.9505           -0.4003300             -10.8935
       293        1.9485           -0.4002925             -10.8925
       294        1.2469           -0.3973190             -10.8116 (HOMO)
       295        0.3583           -0.3953938             -10.7592 (LUMO)
       296        0.3445           -0.3953486             -10.7580
       297        0.3377           -0.3953256             -10.7574
       298                         -0.3577728              -9.7355
       299                         -0.3460866              -9.4175
       300                         -0.3453011              -9.3961
       301                         -0.3433500              -9.3430
       302                         -0.3422497              -9.3131
       303                         -0.3348152              -9.1108
       304                         -0.3197435              -8.7007
       305                         -0.3150178              -8.5721
       ...                                ...                  ...
       623                          1.3198454              35.9148
      -------------------------------------------------------------
                  HL-Gap            0.0019252 Eh            0.0524 eV

Wiberg/Mayer (AO) data.
largest (>0.10) Wiberg bond orders for each atom

     #   Z sym  total        # sym  WBO       # sym  WBO       # sym  WBO
 ---------------------------------------------------------------------------
     1  26 Fe   3.105 --     7 N    0.664    41 N    0.663    27 N    0.656
                            20 N    0.655
     2   6 C    3.915 --    40 C    1.363     3 C    1.362    42 H    0.970
     3   6 C    3.923 --     2 C    1.362     7 N    1.208     4 C    1.173
     4   6 C    3.959 --     5 C    1.649     3 C    1.173    43 H    0.975
     5   6 C    3.962 --     4 C    1.649     6 C    1.174    44 H    0.973
     6   6 C    3.920 --     8 C    1.311     7 N    1.226     5 C    1.174
     7   7 N    3.376 --     6 C    1.226     3 C    1.208     1 Fe   0.664
     8   6 C    3.917 --    17 C    1.330     6 C    1.311     9 C    1.033
     9   6 C    3.963 --    16 C    1.384    10 C    1.384     8 C    1.033
    10   6 C    3.986 --    11 C    1.464     9 C    1.384    45 H    0.971
                            15 C    0.102
    11   6 C    3.993 --    10 C    1.464    12 C    1.364    46 H    0.972
                            16 C    0.102
    12   6 C    3.984 --    15 C    1.364    11 C    1.364    13 C    1.098
    13   6 C    3.958 --    14 N    2.820    12 C    1.098
    14   7 N    2.973 --    13 C    2.820
    15   6 C    3.993 --    16 C    1.464    12 C    1.364    47 H    0.972
                            10 C    0.102
    16   6 C    3.987 --    15 C    1.464     9 C    1.384    48 H    0.971
                            11 C    0.102
    17   6 C    3.918 --     8 C    1.330    20 N    1.201    18 C    1.180
    18   6 C    3.956 --    19 C    1.636    17 C    1.180    49 H    0.973
    19   6 C    3.961 --    18 C    1.636    21 C    1.189    50 H    0.969
    20   7 N    3.374 --    21 C    1.245    17 C    1.201     1 Fe   0.655
    21   6 C    3.907 --    22 C    1.250    20 N    1.245    19 C    1.189
    22   6 C    3.916 --    21 C    1.250    23 C    1.249   117 C    1.200
    23   6 C    3.907 --    22 C    1.249    27 N    1.247    24 C    1.189
    24   6 C    3.961 --    25 C    1.636    23 C    1.189    51 H    0.970
    25   6 C    3.956 --    24 C    1.636    26 C    1.179    52 H    0.973
    26   6 C    3.918 --    28 C    1.332    27 N    1.200    25 C    1.179
    27   7 N    3.374 --    23 C    1.247    26 C    1.200     1 Fe   0.656
    28   6 C    3.917 --    26 C    1.332    37 C    1.309    29 C    1.032
    29   6 C    3.963 --    30 C    1.384    36 C    1.384    28 C    1.032
    30   6 C    3.987 --    31 C    1.464    29 C    1.384    53 H    0.971
                            35 C    0.102
    31   6 C    3.993 --    30 C    1.464    32 C    1.364    54 H    0.972
                            36 C    0.102
    32   6 C    3.984 --    35 C    1.364    31 C    1.364    33 C    1.098
    33   6 C    3.958 --    34 N    2.820    32 C    1.098
    34   7 N    2.973 --    33 C    2.820
    35   6 C    3.993 --    36 C    1.464    32 C    1.364    55 H    0.972
                            30 C    0.102
    36   6 C    3.987 --    35 C    1.464    29 C    1.384    56 H    0.971
                            31 C    0.102
    37   6 C    3.920 --    28 C    1.309    41 N    1.227    38 C    1.175
    38   6 C    3.962 --    39 C    1.650    37 C    1.175    57 H    0.973
    39   6 C    3.959 --    38 C    1.650    40 C    1.173    58 H    0.975
    40   6 C    3.924 --     2 C    1.363    41 N    1.207    39 C    1.173
    41   7 N    3.375 --    37 C    1.227    40 C    1.207     1 Fe   0.663
    42   1 H    1.000 --     2 C    0.970
    43   1 H    0.997 --     4 C    0.975
    44   1 H    1.004 --     5 C    0.973
    45   1 H    1.003 --    10 C    0.971
    46   1 H    1.000 --    11 C    0.972
    47   1 H    1.000 --    15 C    0.972
    48   1 H    1.003 --    16 C    0.971
    49   1 H    1.004 --    18 C    0.973
    50   1 H    1.005 --    19 C    0.969
    51   1 H    1.005 --    24 C    0.970
    52   1 H    1.004 --    25 C    0.973
    53   1 H    1.003 --    30 C    0.971
    54   1 H    1.000 --    31 C    0.972
    55   1 H    1.000 --    35 C    0.972
    56   1 H    1.003 --    36 C    0.971
    57   1 H    1.003 --    38 C    0.973
    58   1 H    0.997 --    39 C    0.975
    59  26 Fe   3.092 --    99 N    0.664    65 N    0.663    78 N    0.656
                            85 N    0.655
    60   6 C    3.917 --    61 C    1.363    98 C    1.363   100 H    0.970
    61   6 C    3.924 --    60 C    1.363    65 N    1.209    62 C    1.172
    62   6 C    3.959 --    63 C    1.651    61 C    1.172   101 H    0.975
    63   6 C    3.962 --    62 C    1.651    64 C    1.174   102 H    0.973
    64   6 C    3.920 --    66 C    1.313    65 N    1.226    63 C    1.174
    65   7 N    3.378 --    64 C    1.226    61 C    1.209    59 Fe   0.663
    66   6 C    3.918 --    75 C    1.335    64 C    1.313    67 C    1.025
    67   6 C    3.963 --    74 C    1.388    68 C    1.387    66 C    1.025
    68   6 C    3.987 --    69 C    1.463    67 C    1.387   103 H    0.971
                            73 C    0.103
    69   6 C    3.993 --    68 C    1.463    70 C    1.365   104 H    0.972
                            74 C    0.103
    70   6 C    3.986 --    73 C    1.365    69 C    1.365    71 C    1.098
    71   6 C    3.958 --    72 N    2.820    70 C    1.098
    72   7 N    2.974 --    71 C    2.820
    73   6 C    3.993 --    74 C    1.462    70 C    1.365   105 H    0.972
                            68 C    0.103
    74   6 C    3.988 --    73 C    1.462    67 C    1.388   106 H    0.972
                            69 C    0.103
    75   6 C    3.918 --    66 C    1.335    78 N    1.201    76 C    1.178
    76   6 C    3.957 --    77 C    1.640    75 C    1.178   107 H    0.973
    77   6 C    3.961 --    76 C    1.640    79 C    1.186   108 H    0.971
    78   7 N    3.376 --    79 C    1.246    75 C    1.201    59 Fe   0.656
    79   6 C    3.909 --    80 C    1.255    78 N    1.246    77 C    1.186
    80   6 C    3.918 --    81 C    1.255    79 C    1.255   120 C    1.190
    81   6 C    3.909 --    80 C    1.255    85 N    1.246    82 C    1.186
    82   6 C    3.961 --    83 C    1.640    81 C    1.186   109 H    0.971
    83   6 C    3.957 --    82 C    1.640    84 C    1.178   110 H    0.972
    84   6 C    3.918 --    86 C    1.334    85 N    1.202    83 C    1.178
    85   7 N    3.376 --    81 C    1.246    84 C    1.202    59 Fe   0.655
    86   6 C    3.918 --    84 C    1.334    95 C    1.314    87 C    1.024
    87   6 C    3.963 --    94 C    1.388    88 C    1.387    86 C    1.024
    88   6 C    3.987 --    89 C    1.463    87 C    1.387   111 H    0.972
                            93 C    0.103
    89   6 C    3.993 --    88 C    1.463    90 C    1.365   112 H    0.972
                            94 C    0.103
    90   6 C    3.986 --    93 C    1.365    89 C    1.365    91 C    1.098
    91   6 C    3.958 --    92 N    2.821    90 C    1.098
    92   7 N    2.974 --    91 C    2.821
    93   6 C    3.993 --    94 C    1.462    90 C    1.365   113 H    0.972
                            88 C    0.103
    94   6 C    3.988 --    93 C    1.462    87 C    1.388   114 H    0.971
                            89 C    0.103
    95   6 C    3.920 --    86 C    1.314    99 N    1.225    96 C    1.173
    96   6 C    3.961 --    97 C    1.651    95 C    1.173   115 H    0.973
    97   6 C    3.959 --    96 C    1.651    98 C    1.172   116 H    0.975
    98   6 C    3.923 --    60 C    1.363    99 N    1.210    97 C    1.172
    99   7 N    3.378 --    95 C    1.225    98 C    1.210    59 Fe   0.664
   100   1 H    1.000 --    60 C    0.970
   101   1 H    0.997 --    62 C    0.975
   102   1 H    1.004 --    63 C    0.973
   103   1 H    1.002 --    68 C    0.971
   104   1 H    1.000 --    69 C    0.972
   105   1 H    1.000 --    73 C    0.972
   106   1 H    1.002 --    74 C    0.972
   107   1 H    1.004 --    76 C    0.973
   108   1 H    1.004 --    77 C    0.971
   109   1 H    1.004 --    82 C    0.971
   110   1 H    1.004 --    83 C    0.972
   111   1 H    1.002 --    88 C    0.972
   112   1 H    1.000 --    89 C    0.972
   113   1 H    1.000 --    93 C    0.972
   114   1 H    1.003 --    94 C    0.971
   115   1 H    1.004 --    96 C    0.973
   116   1 H    0.997 --    97 C    0.975
   117   6 C    3.916 --   118 C    2.541    22 C    1.200
   118   6 C    3.921 --   117 C    2.541   122 C    1.204
   119   6 C    3.922 --   120 C    2.548   142 C    1.195
   120   6 C    3.915 --   119 C    2.548    80 C    1.190
   121  26 Fe   3.065 --   161 N    0.649   140 N    0.648   127 N    0.647
                           147 N    0.646
   122   6 C    3.903 --   123 C    1.247   160 C    1.246   118 C    1.204
   123   6 C    3.908 --   122 C    1.247   127 N    1.246   124 C    1.192
   124   6 C    3.960 --   125 C    1.631   123 C    1.192   162 H    0.970
   125   6 C    3.958 --   124 C    1.631   126 C    1.184   163 H    0.973
   126   6 C    3.916 --   128 C    1.318   127 N    1.206   125 C    1.184
   127   7 N    3.364 --   123 C    1.246   126 C    1.206   121 Fe   0.647
   128   6 C    3.910 --   137 C    1.320   126 C    1.318   129 C    1.034
   129   6 C    3.963 --   136 C    1.384   130 C    1.383   128 C    1.034
   130   6 C    3.986 --   131 C    1.464   129 C    1.383   164 H    0.971
                           135 C    0.102
   131   6 C    3.993 --   130 C    1.464   132 C    1.364   165 H    0.972
                           136 C    0.102
   132   6 C    3.984 --   135 C    1.365   131 C    1.364   133 C    1.097
   133   6 C    3.958 --   134 N    2.821   132 C    1.097
   134   7 N    2.974 --   133 C    2.821
   135   6 C    3.993 --   136 C    1.463   132 C    1.365   166 H    0.972
                           130 C    0.102
   136   6 C    3.986 --   135 C    1.463   129 C    1.384   167 H    0.971
                           131 C    0.102
   137   6 C    3.916 --   128 C    1.320   140 N    1.206   138 C    1.183
   138   6 C    3.958 --   139 C    1.633   137 C    1.183   168 H    0.973
   139   6 C    3.960 --   138 C    1.633   141 C    1.191   169 H    0.971
   140   7 N    3.365 --   141 C    1.247   137 C    1.206   121 Fe   0.648
   141   6 C    3.910 --   142 C    1.250   140 N    1.247   139 C    1.191
   142   6 C    3.902 --   143 C    1.252   141 C    1.250   119 C    1.195
   143   6 C    3.910 --   142 C    1.252   147 N    1.246   144 C    1.191
   144   6 C    3.960 --   145 C    1.633   143 C    1.191   170 H    0.971
   145   6 C    3.958 --   144 C    1.633   146 C    1.184   171 H    0.973
   146   6 C    3.916 --   148 C    1.319   147 N    1.207   145 C    1.184
   147   7 N    3.364 --   143 C    1.246   146 C    1.207   121 Fe   0.646
   148   6 C    3.910 --   157 C    1.320   146 C    1.319   149 C    1.033
   149   6 C    3.963 --   156 C    1.384   150 C    1.384   148 C    1.033
   150   6 C    3.986 --   151 C    1.464   149 C    1.384   172 H    0.971
                           155 C    0.102
   151   6 C    3.993 --   150 C    1.464   152 C    1.364   173 H    0.972
                           156 C    0.102
   152   6 C    3.984 --   155 C    1.365   151 C    1.364   153 C    1.097
   153   6 C    3.958 --   154 N    2.821   152 C    1.097
   154   7 N    2.974 --   153 C    2.821
   155   6 C    3.993 --   156 C    1.463   152 C    1.365   174 H    0.972
                           150 C    0.102
   156   6 C    3.986 --   155 C    1.463   149 C    1.384   175 H    0.971
                           151 C    0.102
   157   6 C    3.916 --   148 C    1.320   161 N    1.205   158 C    1.184
   158   6 C    3.958 --   159 C    1.631   157 C    1.184   176 H    0.973
   159   6 C    3.960 --   158 C    1.631   160 C    1.192   177 H    0.970
   160   6 C    3.908 --   161 N    1.248   122 C    1.246   159 C    1.192
   161   7 N    3.365 --   160 C    1.248   157 C    1.205   121 Fe   0.649
   162   1 H    1.005 --   124 C    0.970
   163   1 H    1.003 --   125 C    0.973
   164   1 H    1.003 --   130 C    0.971
   165   1 H    1.000 --   131 C    0.972
   166   1 H    1.000 --   135 C    0.972
   167   1 H    1.003 --   136 C    0.971
   168   1 H    1.004 --   138 C    0.973
   169   1 H    1.003 --   139 C    0.971
   170   1 H    1.003 --   144 C    0.971
   171   1 H    1.003 --   145 C    0.973
   172   1 H    1.003 --   150 C    0.971
   173   1 H    1.000 --   151 C    0.972
   174   1 H    1.000 --   155 C    0.972
   175   1 H    1.003 --   156 C    0.971
   176   1 H    1.003 --   158 C    0.973
   177   1 H    1.005 --   159 C    0.970
 ---------------------------------------------------------------------------

           -------------------------------------------------
          | TOTAL ENERGY             -317.181478418054 Eh   |
          | GRADIENT NORM               0.000761266916 Eh/α |
          | HOMO-LUMO GAP               0.052386407542 eV   |
           -------------------------------------------------

 * finished run on 2022/07/29 at 23:28:14.444
