   * xtb version 6.5.1 (b24c23e) compiled by 'conda@728c89f4b128' on 2022-07-12
          program call               : xtb Cu_NMA_C4_2.xyz --gfn 1 --opt -T 48

   ID    Z sym.   atoms
    1   29 Cu     1, 67
    2    6 C      2-6, 8-12, 14-19, 21-26, 28-32, 34-40, 68-72, 74-78, 80-85,
                  87-92, 94-98, 100-106, 133-136
    3    7 N      7, 13, 20, 27, 33, 41, 73, 79, 86, 93, 99, 107
    4    1 H      42-66, 108-132
########################################################################
[WARNING] Please study the warnings concerning your input carefully
-1- prog_main_parseArguments: Unknown option '-T' provided
########################################################################

          :  Hamiltonian                  GFN1-xTB          :
 * total energy  :  -210.1401776 Eh     change       -0.7900610E-08 Eh
 * total energy  :  -222.5239530 Eh     change       -0.1238378E+02 Eh
 * total energy  :  -223.9349381 Eh     change       -0.1410985E+01 Eh
 * total energy  :  -224.7065017 Eh     change       -0.7715636E+00 Eh
 * total energy  :  -225.1604770 Eh     change       -0.4539753E+00 Eh
 * total energy  :  -225.4112442 Eh     change       -0.2507672E+00 Eh
 * total energy  :  -225.5843624 Eh     change       -0.1731181E+00 Eh
 * total energy  :  -225.7253877 Eh     change       -0.1410253E+00 Eh
 * total energy  :  -225.8450816 Eh     change       -0.1196940E+00 Eh
 * total energy  :  -225.9527611 Eh     change       -0.1076795E+00 Eh
 * total energy  :  -226.4270593 Eh     change       -0.8160566E-05 Eh
 * total energy  :  -226.4270693 Eh     change       -0.9933809E-05 Eh
 * total energy  :  -226.4270811 Eh     change       -0.1179769E-04 Eh
 * total energy  :  -226.4270911 Eh     change       -0.9987513E-05 Eh
 * total energy  :  -226.4270993 Eh     change       -0.8266554E-05 Eh
 * total energy  :  -226.4271071 Eh     change       -0.7767175E-05 Eh
 * total energy  :  -226.4271142 Eh     change       -0.7056457E-05 Eh
 * total energy  :  -226.4271198 Eh     change       -0.5628668E-05 Eh
 * total energy  :  -226.4271241 Eh     change       -0.4344171E-05 Eh
   *** GEOMETRY OPTIMIZATION CONVERGED AFTER 80 ITERATIONS ***

 final structure:
================
136
 xtb: 6.5.1 (b24c23e)
Cu          17.59241305115272        0.03042720758175        0.00813680870395
C           14.18920651935965        0.09419513804749       -0.05301108057036
C           14.81532014505539        1.02048063427298        0.76815927975714
C           14.13193178597362        1.94436344459408        1.62665719193687
C           15.08478328668223        2.67035419854847        2.26361031058566
C           16.35933485178818        2.20697510227766        1.78738898470716
N           16.16435551339305        1.19977387911993        0.88666697052677
C           17.60034828145239        2.70470840495241        2.19656930227485
C           17.60942476551812        3.84499908295611        3.14275726082056
C           17.00070197079095        5.05852877227505        2.81074832318008
C           17.02137238925347        6.12404374831620        3.69088193584770
C           17.64341119510259        6.00399987846185        4.93967792572924
N           17.68443245323595        7.11697701576589        5.76698174463724
C           17.87948767791048        6.94303600842804        7.20002766820079
C           18.25600499194272        4.79348839210179        5.27604956913559
C           18.23657026471977        3.73390596524161        4.38524273183327
C           18.83661364767967        2.20496525426688        1.77885289123592
C           20.10971497852988        2.77056837405954        2.12487091648263
C           21.06089850894557        2.00915964261832        1.52616676003051
N           19.03267288044339        1.11993926200318        0.96573993853679
C           20.37656147854261        0.97965575996002        0.80439926998476
C           21.01846468550722       -0.02344367107184        0.05686917860874
C           20.36658162497094       -1.01100254243860       -0.70287223104920
C           21.03831855313544       -2.06668611055855       -1.39806918341155
C           20.08091959320128       -2.80261895904387       -2.01835904106815
C           18.81720665988734       -2.19345061166969       -1.71447865588141
N           19.02416807713400       -1.11024677482823       -0.90161680495343
C           17.57853038031385       -2.65181464992744       -2.17079625076283
C           17.57890243347699       -3.79842263026978       -3.10923246456089
C           18.25508602562515       -3.72098019464070       -4.32839646340140
C           18.26974044663589       -4.78874826433450       -5.20942104406735
C           17.60238865142452       -5.97377496616486       -4.88661176393710
N           17.63604152475897       -7.09547259383735       -5.70222409195784
C           17.88789833086709       -6.94252327460622       -7.12877282702553
C           16.92930895798789       -6.05968980096231       -3.66170377787184
C           16.91412453587290       -4.98605003988915       -2.79137478477608
C           16.34330019400305       -2.10608999492978       -1.80784804674512
C           15.07026966579001       -2.52284012332752       -2.32898757563317
C           14.12326078378214       -1.75759247183123       -1.73040217447060
C           14.80954021662672       -0.85692190667993       -0.84983893690616
N           16.15420581146506       -1.08796561666382       -0.91817325670028
H           13.10424586737884        0.11493640916193       -0.07327154922757
H           13.06009422703250        2.00934935213921        1.73067956097559
H           14.94307328165984        3.44280614349787        3.00244873417474
H           16.52652026796346        5.17129453000804        1.84183705366878
H           16.55614030769429        7.06467595069854        3.41521193221961
H           16.95644351820149        7.78873809713477        5.55550104181272
H           18.89401084650344        6.59545995962861        7.39944854001032
H           17.16387713048344        6.22743962597470        7.62099048398065
H           17.74310837403418        7.91282066390553        7.67863262597878
H           18.75124571116396        4.67173957857362        6.23156548908741
H           18.70075129368962        2.79431503697543        4.66504514360468
H           20.25434488039556        3.65010740632640        2.73111434591362
H           22.13178381755676        2.13201529841616        1.55739939481846
H           22.10511917456830       -2.22413099976966       -1.39683519810401
H           20.21497638851059       -3.69141038751723       -2.61340801954505
H           18.76275532562249       -2.80112591212524       -4.59805200417028
H           18.80449891214114       -4.69367850568512       -6.14649335771572
H           16.87980723538149       -7.74156590187652       -5.51095191609883
H           17.21194583288463       -6.20802749837119       -7.58152189653295
H           17.73647549915404       -7.91207787351011       -7.60330290604491
H           18.91987840003330       -6.63054711285904       -7.29469600185114
H           16.42024280833025       -6.98040712928248       -3.39647062579585
H           16.40002380540679       -5.07278809364768       -1.84030532781613
H           14.92635275824077       -3.29287563519349       -3.06992371514869
H           13.05426399727467       -1.78184108800872       -1.87370602849208
Cu          31.04923756723676       -0.01392489280182       -0.02803434289716
C           34.45238864070449        0.03312370500461       -0.10508535300288
C           33.82622434813760       -0.97067451650522       -0.82942474038425
C           34.50965132006744       -2.01030367190361       -1.54334072044739
C           33.55681999393475       -2.79087324875069       -2.11213554935657
C           32.28223795346653       -2.22516045657395       -1.76373396470450
N           32.47716755304815       -1.12589352147195       -0.97798363682626
C           31.04127958635963       -2.73362457904580       -2.15969820897716
C           31.03235592888012       -3.90603667254261       -3.06575521693063
C           31.64089213478969       -3.84700647447184       -4.32258856122318
C           31.62037850594060       -4.93865636471789       -5.17008746899065
C           30.99877275237675       -6.13125340401240       -4.78000686451291
N           30.95795424152592       -7.18174028822395       -5.68530635762022
C           30.76312168451839       -8.54221401532896       -5.20254836838375
C           30.38638944858132       -6.19521434195166       -3.52514514771566
C           30.40557074979498       -5.09440942971449       -2.68581409314963
C           29.80495722953496       -2.21717277946538       -1.76301646805124
C           28.53187060719486       -2.67832416687575       -2.23946704623193
C           27.58067941234141       -1.92775294016484       -1.62723632236676
N           29.60887519015987       -1.18689958598766       -0.88157011425163
C           28.26501082123372       -0.99876674036710       -0.77998342371934
C           27.62315233989299       -0.05008442165891        0.03553757595634
C           28.27509304684238        0.90708853612960        0.83318821187103
C           27.60333253612193        1.81606883383147        1.71153296951370
C           28.56072689607814        2.58202323059729        2.29434424657106
C           29.82445011164979        2.15250787375279        1.76622168999854
N           29.61749681039367        1.12282223387995        0.88653065813828
C           31.06311312464326        2.69776465976093        2.11416889771014
C           31.06268294487517        3.86347017785457        3.02875110488185
C           30.38625870095549        5.03640240776374        2.68778718843949
C           30.37136205988509        6.12870591449144        3.53820215465517
C           31.03876346668701        6.07172890276167        4.76505357956802
N           31.00483292870893        7.11192745964019        5.68236653207244
C           30.75316833932496        8.47096677716892        5.22239574350627
C           31.71217726707115        4.89507420273622        5.11549257727830
C           31.72756132095937        3.81191621804130        4.25704861172821
C           32.29839213131793        2.22465298693896        1.66072036121964
C           33.57134550134730        2.82453701533816        1.95333756527306
C           34.51835920152192        2.07383183020606        1.33661949779086
C           33.83213618226559        1.01794579519094        0.64974610659126
N           32.48753844304657        1.13446472238265        0.86103477275961
H           35.53733556106938        0.04863509338537       -0.13025392145533
H           35.58150509512160       -2.12575448153235       -1.58429359147997
H           33.69853745613172       -3.68079024859293       -2.70425724636076
H           32.11473758244024       -2.92599353227944       -4.64439681613578
H           32.08540190982356       -4.87500025532779       -6.14831283897981
H           31.68572466108309       -7.12195792519003       -6.38724502651328
H           29.74857381694176       -8.66110474025609       -4.81992780696558
H           31.47868339830549       -8.79654697238400       -4.41218629502522
H           30.89975146462486       -9.22107946084060       -6.04434336420219
H           29.89153227102569       -7.10122332588267       -3.19748479271809
H           29.94155241311845       -5.16228588493909       -1.70772201086420
H           28.38729391728302       -3.46190117694299       -2.96551429379536
H           26.50980026648348       -1.98495758189279       -1.74042817913644
H           26.53653630807664        1.84922124765312        1.86546251793382
H           28.42661190039844        3.35675200575302        3.03177772359419
H           29.87852808206452        5.09926176507094        1.73131799763387
H           29.83633158436710        7.02246919252456        3.24148917945053
H           31.76110299986646        7.06593783446274        6.35458067990585
H           31.42941925071785        8.75289159387851        4.40718126162198
H           30.90431967444541        9.14520282772719        6.06542419030330
H           29.72131282424408        8.56501278592495        4.88141878272782
H           32.22132971078269        4.83674340169933        6.07182786789838
H           32.24192184929106        2.90265946142667        4.54866245433209
H           33.71521784812306        3.71554581213802        2.54330047337886
H           35.58730109604488        2.21936238164571        1.32859847030790
C           23.64600657134995       -0.04886612083291        0.06741897873330
C           22.42412432583432       -0.03887163996464        0.06629180478601
C           24.99562767997554       -0.05452960530432        0.06237832921400
C           26.21749600668273       -0.05571230394477        0.05254608937125

          :  Hamiltonian                  GFN1-xTB          :
         :: total energy            -226.427124132682 Eh    ::
         :: gradient norm              0.000213292368 Eh/a0 ::
         :: HOMO-LUMO gap              0.006434314995 eV    ::
         :: SCC energy              -229.900037685310 Eh    ::
         :: repulsion energy           3.588660725231 Eh    ::

    * Orbital Energies and Occupations

         #    Occupation            Energy/Eh            Energy/eV
      -------------------------------------------------------------
         1        2.0000           -0.7761546             -21.1202
       ...           ...                  ...                  ...
       198        2.0000           -0.3981262             -10.8336
       199        2.0000           -0.3980904             -10.8326
       200        2.0000           -0.3980877             -10.8325
       201        2.0000           -0.3980486             -10.8315
       202        2.0000           -0.3939644             -10.7203
       203        2.0000           -0.3906386             -10.6298
       204        2.0000           -0.3886629             -10.5761
       205        2.0000           -0.3886606             -10.5760
       206        2.0000           -0.3852408             -10.4829
       207        2.0000           -0.3852384             -10.4829
       208        2.0000           -0.3780765             -10.2880
       209        2.0000           -0.3683769             -10.0240
       210        1.0621           -0.3456264              -9.4050 (HOMO)
       211        0.9379           -0.3453900              -9.3985 (LUMO)
       212                         -0.3277620              -8.9189
       213                         -0.3166579              -8.6167
       214                         -0.3166569              -8.6167
       215                         -0.3139296              -8.5425
       216                         -0.2869428              -7.8081
       217                         -0.2791640              -7.5964
       218                         -0.2534171              -6.8958
       219                         -0.2534164              -6.8958
       220                         -0.2533867              -6.8950
       221                         -0.2533853              -6.8950
       ...                                ...                  ...
       454                          1.5296023              41.6226
      -------------------------------------------------------------
                  HL-Gap            0.0002365 Eh            0.0064 eV

Wiberg/Mayer (AO) data.
largest (>0.10) Wiberg bond orders for each atom

     #   Z sym  total        # sym  WBO       # sym  WBO       # sym  WBO
 ---------------------------------------------------------------------------
     1  29 Cu   2.183 --    41 N    0.504     7 N    0.504    20 N    0.502
                            27 N    0.501
     2   6 C    3.926 --     3 C    1.360    40 C    1.360    42 H    0.971
     3   6 C    3.919 --     2 C    1.360     7 N    1.229     4 C    1.173
     4   6 C    3.954 --     5 C    1.651     3 C    1.173    43 H    0.976
     5   6 C    3.958 --     4 C    1.651     6 C    1.175    44 H    0.973
     6   6 C    3.912 --     8 C    1.314     7 N    1.241     5 C    1.175
     7   7 N    3.242 --     6 C    1.241     3 C    1.229     1 Cu   0.504
     8   6 C    3.933 --    17 C    1.323     6 C    1.314     9 C    1.035
     9   6 C    3.988 --    16 C    1.384    10 C    1.374     8 C    1.035
    10   6 C    3.987 --    11 C    1.476     9 C    1.374    45 H    0.973
    11   6 C    3.989 --    10 C    1.476    12 C    1.346    46 H    0.972
    12   6 C    3.952 --    15 C    1.354    11 C    1.346    13 N    1.108
    13   7 N    3.179 --    12 C    1.108    14 C    0.972    47 H    0.931
    14   6 C    3.968 --    50 H    0.990    48 H    0.986    49 H    0.984
                            13 N    0.972
    15   6 C    3.990 --    16 C    1.464    12 C    1.354    51 H    0.970
    16   6 C    3.987 --    15 C    1.464     9 C    1.384    52 H    0.973
    17   6 C    3.907 --     8 C    1.323    20 N    1.223    18 C    1.181
    18   6 C    3.955 --    19 C    1.639    17 C    1.181    53 H    0.973
    19   6 C    3.956 --    18 C    1.639    21 C    1.189    54 H    0.974
    20   7 N    3.246 --    21 C    1.257    17 C    1.223     1 Cu   0.502
    21   6 C    3.899 --    22 C    1.258    20 N    1.257    19 C    1.189
    22   6 C    3.935 --    21 C    1.258    23 C    1.258   134 C    1.188
    23   6 C    3.899 --    22 C    1.258    27 N    1.257    24 C    1.189
    24   6 C    3.956 --    25 C    1.639    23 C    1.189    55 H    0.974
    25   6 C    3.955 --    24 C    1.639    26 C    1.181    56 H    0.973
    26   6 C    3.907 --    28 C    1.323    27 N    1.222    25 C    1.181
    27   7 N    3.246 --    23 C    1.257    26 C    1.222     1 Cu   0.501
    28   6 C    3.934 --    26 C    1.323    37 C    1.314    29 C    1.036
    29   6 C    3.988 --    30 C    1.383    36 C    1.374    28 C    1.036
    30   6 C    3.987 --    31 C    1.464    29 C    1.383    57 H    0.973
    31   6 C    3.990 --    30 C    1.464    32 C    1.353    58 H    0.970
    32   6 C    3.952 --    31 C    1.353    35 C    1.345    33 N    1.108
    33   7 N    3.179 --    32 C    1.108    34 C    0.972    59 H    0.931
    34   6 C    3.968 --    61 H    0.990    62 H    0.986    60 H    0.984
                            33 N    0.972
    35   6 C    3.989 --    36 C    1.476    32 C    1.345    63 H    0.972
    36   6 C    3.987 --    35 C    1.476    29 C    1.374    64 H    0.973
    37   6 C    3.912 --    28 C    1.314    41 N    1.241    38 C    1.176
    38   6 C    3.958 --    39 C    1.651    37 C    1.176    65 H    0.973
    39   6 C    3.954 --    38 C    1.651    40 C    1.173    66 H    0.976
    40   6 C    3.919 --     2 C    1.360    41 N    1.229    39 C    1.173
    41   7 N    3.242 --    37 C    1.241    40 C    1.229     1 Cu   0.504
    42   1 H    1.002 --     2 C    0.971
    43   1 H    0.998 --     4 C    0.976
    44   1 H    1.006 --     5 C    0.973
    45   1 H    1.005 --    10 C    0.973
    46   1 H    0.999 --    11 C    0.972
    47   1 H    0.966 --    13 N    0.931
    48   1 H    1.012 --    14 C    0.986
    49   1 H    1.003 --    14 C    0.984
    50   1 H    1.007 --    14 C    0.990
    51   1 H    1.001 --    15 C    0.970
    52   1 H    1.006 --    16 C    0.973
    53   1 H    1.005 --    18 C    0.973
    54   1 H    1.002 --    19 C    0.974
    55   1 H    1.002 --    24 C    0.974
    56   1 H    1.005 --    25 C    0.973
    57   1 H    1.006 --    30 C    0.973
    58   1 H    1.001 --    31 C    0.970
    59   1 H    0.966 --    33 N    0.931
    60   1 H    1.003 --    34 C    0.984
    61   1 H    1.007 --    34 C    0.990
    62   1 H    1.012 --    34 C    0.986
    63   1 H    0.999 --    35 C    0.972
    64   1 H    1.005 --    36 C    0.973
    65   1 H    1.006 --    38 C    0.973
    66   1 H    0.998 --    39 C    0.976
    67  29 Cu   2.183 --    73 N    0.504   107 N    0.504    93 N    0.501
                            86 N    0.501
    68   6 C    3.926 --    69 C    1.360   106 C    1.360   108 H    0.971
    69   6 C    3.919 --    68 C    1.360    73 N    1.229    70 C    1.173
    70   6 C    3.954 --    71 C    1.651    69 C    1.173   109 H    0.976
    71   6 C    3.958 --    70 C    1.651    72 C    1.175   110 H    0.973
    72   6 C    3.912 --    74 C    1.314    73 N    1.241    71 C    1.175
    73   7 N    3.242 --    72 C    1.241    69 C    1.229    67 Cu   0.504
    74   6 C    3.933 --    83 C    1.323    72 C    1.314    75 C    1.035
    75   6 C    3.988 --    82 C    1.384    76 C    1.374    74 C    1.035
    76   6 C    3.987 --    77 C    1.476    75 C    1.374   111 H    0.973
    77   6 C    3.989 --    76 C    1.476    78 C    1.346   112 H    0.972
    78   6 C    3.952 --    81 C    1.354    77 C    1.346    79 N    1.108
    79   7 N    3.179 --    78 C    1.108    80 C    0.972   113 H    0.931
    80   6 C    3.968 --   116 H    0.990   114 H    0.986   115 H    0.984
                            79 N    0.972
    81   6 C    3.990 --    82 C    1.464    78 C    1.354   117 H    0.970
    82   6 C    3.987 --    81 C    1.464    75 C    1.384   118 H    0.973
    83   6 C    3.907 --    74 C    1.323    86 N    1.223    84 C    1.181
    84   6 C    3.955 --    85 C    1.639    83 C    1.181   119 H    0.973
    85   6 C    3.956 --    84 C    1.639    87 C    1.189   120 H    0.974
    86   7 N    3.246 --    87 C    1.257    83 C    1.223    67 Cu   0.501
    87   6 C    3.899 --    88 C    1.258    86 N    1.257    85 C    1.189
    88   6 C    3.935 --    87 C    1.258    89 C    1.258   136 C    1.188
    89   6 C    3.899 --    88 C    1.258    93 N    1.257    90 C    1.189
    90   6 C    3.956 --    91 C    1.639    89 C    1.189   121 H    0.974
    91   6 C    3.955 --    90 C    1.639    92 C    1.181   122 H    0.973
    92   6 C    3.907 --    94 C    1.323    93 N    1.222    91 C    1.181
    93   7 N    3.246 --    89 C    1.257    92 C    1.222    67 Cu   0.501
    94   6 C    3.933 --    92 C    1.323   103 C    1.314    95 C    1.036
    95   6 C    3.988 --    96 C    1.383   102 C    1.374    94 C    1.036
    96   6 C    3.987 --    97 C    1.464    95 C    1.383   123 H    0.973
    97   6 C    3.990 --    96 C    1.464    98 C    1.353   124 H    0.970
    98   6 C    3.952 --    97 C    1.353   101 C    1.346    99 N    1.108
    99   7 N    3.179 --    98 C    1.108   100 C    0.972   125 H    0.931
   100   6 C    3.968 --   127 H    0.990   128 H    0.986   126 H    0.984
                            99 N    0.972
   101   6 C    3.989 --   102 C    1.476    98 C    1.346   129 H    0.972
   102   6 C    3.987 --   101 C    1.476    95 C    1.374   130 H    0.973
   103   6 C    3.912 --    94 C    1.314   107 N    1.241   104 C    1.175
   104   6 C    3.958 --   105 C    1.651   103 C    1.175   131 H    0.973
   105   6 C    3.954 --   104 C    1.651   106 C    1.173   132 H    0.976
   106   6 C    3.919 --    68 C    1.360   107 N    1.229   105 C    1.173
   107   7 N    3.242 --   103 C    1.241   106 C    1.229    67 Cu   0.504
   108   1 H    1.002 --    68 C    0.971
   109   1 H    0.998 --    70 C    0.976
   110   1 H    1.006 --    71 C    0.973
   111   1 H    1.005 --    76 C    0.973
   112   1 H    0.999 --    77 C    0.972
   113   1 H    0.966 --    79 N    0.931
   114   1 H    1.012 --    80 C    0.986
   115   1 H    1.003 --    80 C    0.984
   116   1 H    1.007 --    80 C    0.990
   117   1 H    1.001 --    81 C    0.970
   118   1 H    1.006 --    82 C    0.973
   119   1 H    1.005 --    84 C    0.973
   120   1 H    1.002 --    85 C    0.974
   121   1 H    1.002 --    90 C    0.974
   122   1 H    1.005 --    91 C    0.973
   123   1 H    1.006 --    96 C    0.973
   124   1 H    1.001 --    97 C    0.970
   125   1 H    0.966 --    99 N    0.931
   126   1 H    1.003 --   100 C    0.984
   127   1 H    1.007 --   100 C    0.990
   128   1 H    1.012 --   100 C    0.986
   129   1 H    0.999 --   101 C    0.972
   130   1 H    1.005 --   102 C    0.973
   131   1 H    1.006 --   104 C    0.973
   132   1 H    0.998 --   105 C    0.976
   133   6 C    3.935 --   134 C    2.477   135 C    1.308
   134   6 C    3.926 --   133 C    2.477    22 C    1.188   136 C    0.200
   135   6 C    3.935 --   136 C    2.477   133 C    1.308
   136   6 C    3.926 --   135 C    2.477    88 C    1.188   134 C    0.200
 ---------------------------------------------------------------------------

           -------------------------------------------------
          | TOTAL ENERGY             -226.427124132682 Eh   |
          | GRADIENT NORM               0.000213292368 Eh/α |
          | HOMO-LUMO GAP               0.006434314995 eV   |
           -------------------------------------------------

 * finished run on 2022/07/30 at 05:57:39.519
