   * xtb version 6.5.1 (b24c23e) compiled by 'conda@728c89f4b128' on 2022-07-12
          program call               : xtb Cu_m-CP_C8_2.xyz --gfn 1 --opt -T 48

   ID    Z sym.   atoms
    1   29 Cu     1, 63
    2    6 C      2-6, 8-12, 15-20, 22-27, 29-35, 38-42, 64-68, 70-74, 77-82,
                  84-89, 91-97, 100-104, 125-132
    3    7 N      7, 21, 28, 43, 69, 83, 90, 105
    4    8 O      13, 14, 36, 37, 75, 76, 98, 99
    5    1 H      44-62, 106-124
########################################################################
[WARNING] Please study the warnings concerning your input carefully
-1- prog_main_parseArguments: Unknown option '-T' provided
########################################################################

          :  Hamiltonian                  GFN1-xTB          :
 * total energy  :  -252.1259299 Eh     change        0.2421530E-09 Eh
 * total energy  :  -252.8813800 Eh     change       -0.7554501E+00 Eh
 * total energy  :  -253.0247254 Eh     change       -0.1433454E+00 Eh
 * total energy  :  -253.0862306 Eh     change       -0.6150526E-01 Eh
 * total energy  :  -253.1113237 Eh     change       -0.2509304E-01 Eh
 * total energy  :  -253.1229863 Eh     change       -0.1166262E-01 Eh
 * total energy  :  -253.1309639 Eh     change       -0.7977612E-02 Eh
 * total energy  :  -253.1375054 Eh     change       -0.6541522E-02 Eh
 * total energy  :  -253.1426000 Eh     change       -0.5094605E-02 Eh
 * total energy  :  -253.1461255 Eh     change       -0.3525466E-02 Eh
 * total energy  :  -253.1600993 Eh     change       -0.1770086E-04 Eh
 * total energy  :  -253.1601090 Eh     change       -0.9763256E-05 Eh
 * total energy  :  -253.1601201 Eh     change       -0.1106926E-04 Eh
 * total energy  :  -253.1601279 Eh     change       -0.7859923E-05 Eh
 * total energy  :  -253.1601344 Eh     change       -0.6433576E-05 Eh
 * total energy  :  -253.1601409 Eh     change       -0.6572118E-05 Eh
 * total energy  :  -253.1601467 Eh     change       -0.5716721E-05 Eh
 * total energy  :  -253.1601463 Eh     change        0.3928990E-06 Eh
 * total energy  :  -253.1601508 Eh     change       -0.4551544E-05 Eh
   *** GEOMETRY OPTIMIZATION CONVERGED AFTER 43 ITERATIONS ***

 final structure:
================
132
 xtb: 6.5.1 (b24c23e)
Cu          13.18023385117960       -0.01983589705751        0.00904184162005
C            9.77753876404502       -0.00312401627587        0.16786993861853
C           10.41389529415883        1.22244165445599        0.29410629544125
C            9.74040482255906        2.48070966476147        0.44625350164472
C           10.70015298810373        3.43401961561318        0.53626356447263
C           11.97016468975722        2.76435215531643        0.45209627173308
N           11.76472262617318        1.42408092907679        0.29681340404659
C           13.21629241343358        3.39335862362914        0.50375402706002
C           13.23184840874561        4.86298307235239        0.71350677411143
C           12.70512300654793        5.41683084007136        1.87674430418051
C           12.71944089430921        6.79731177975929        2.07239146206594
C           12.14528540583017        7.32691841941400        3.33471020575226
O           12.21413282933085        8.66251407324286        3.43580814721687
O           11.65751651582111        6.64483395258190        4.19924671219373
C           13.26088042244851        7.63590471405563        1.09815175800821
C           13.78461124033254        7.08691303993923       -0.06171841960780
C           13.77308857796731        5.71259671556733       -0.25417364944446
C           14.44812356264776        2.74870282188241        0.37626900045212
C           15.72752451769313        3.38851722252081        0.49830409575001
C           16.67081247661321        2.42868737218192        0.32264879777204
N           14.63279822292196        1.41227514870085        0.14070405572996
C           15.97564551227076        1.19674949263915        0.09897738753236
C           16.60722994990352       -0.03777099631788       -0.13653936979973
C           15.94467837659987       -1.26392932987563       -0.32349492697862
C           16.60509010663198       -2.50201456292798       -0.61027809385348
C           15.63984685213147       -3.45087883365241       -0.71038419643835
C           14.38228307327874       -2.79870810903398       -0.47611887478398
N           14.60062247617175       -1.46474408557578       -0.25388554552027
C           13.13775657308958       -3.43154559500121       -0.49070446307496
C           13.11911053299232       -4.90232615697102       -0.69366798731950
C           13.74081501117126       -5.75003282948167        0.22594029710467
C           13.71924847765858       -7.12619871030703        0.04667348198122
C           13.07980897071952       -7.67315359462755       -1.05312143496588
C           12.45642340383842       -6.83664028145903       -1.98038698246441
C           11.78186396916331       -7.46220773433792       -3.14521830936025
O           11.20303470032874       -6.57743808082180       -3.97053964246109
O           11.74205615739949       -8.64838864404954       -3.35093885697034
C           12.47604167818116       -5.45504992246305       -1.79906607639578
C           11.90767148341339       -2.79098329850316       -0.32217034260837
C           10.62948506011813       -3.44901579438376       -0.28227396268772
C            9.69134588830265       -2.48678834326512       -0.10198605964072
C           10.38744473716686       -1.23465517321136       -0.01799702900046
N           11.72986633597665       -1.44866503098799       -0.15120727374454
H            8.69368795360567        0.00192260732592        0.22071319573089
H            8.66932406433055        2.60521308041847        0.47050048035137
H           10.56687693031981        4.49871321616857        0.64068638058084
H           12.29170702431822        4.77908837520430        2.65041576287738
H           11.82087608509403        8.92814367871949        4.28292597443718
H           13.26897045796294        8.70832175593590        1.25076300194818
H           14.20410567728671        7.73315966928728       -0.82443285453658
H           14.17366597087023        5.29065499453085       -1.16917793231379
H           15.88104923967853        4.43477433502538        0.70769046341653
H           17.74341260137579        2.53574265499837        0.34806331354945
H           17.67075313356889       -2.61881257333408       -0.72606030220610
H           15.76273982220138       -4.49758278450340       -0.93755212007357
H           14.23036537911487       -5.32408311804256        1.09464407213999
H           14.20212502113331       -7.77160380340360        0.77154024768873
H           13.05287258658514       -8.74577603587574       -1.20840278238814
H           10.78732815553415       -7.06454026465854       -4.70049090550191
H           12.00220416992699       -4.80748534338620       -2.52735470074155
H           10.47683330404160       -4.51268748866274       -0.36961375608605
H            8.62191373632253       -2.60175041959761       -0.02146266664788
Cu          31.77499839039636        0.01292273618298        0.01302367658264
C           35.17757665670438       -0.05063150713167        0.16233967334548
C           34.54340379639257       -1.25124386008679       -0.11920599032980
C           35.21885853795318       -2.48947246782351       -0.38481235533633
C           34.26062099224680       -3.42107574120516       -0.61273847638714
C           32.98956856739270       -2.76213725434088       -0.47581251224556
N           33.19297556324046       -1.44435939314230       -0.18484424614697
C           31.74423975256090       -3.37491118346639       -0.63338851248366
C           31.72953807052380       -4.83267482333429       -0.91398275751580
C           32.25623117548865       -5.73521082296082        0.00542236074079
C           32.24028917535801       -7.10429849018591       -0.25846908604948
C           32.81347006400685       -8.01631659288648        0.76296163627079
O           32.74681600989951       -9.31181497851900        0.42237947695881
O           33.29901512501026       -7.65325411098936        1.80360472370632
C           31.69727137594878       -7.57999870853642       -1.45193044562204
C           31.17388905986764       -6.68314703904051       -2.36994120797852
C           31.18711947115098       -5.32095558230945       -2.10508265630670
C           30.51159150095074       -2.72530683160706       -0.54383957101073
C           29.23305768343023       -3.37163374253311       -0.63718589597388
C           28.28842385006286       -2.40848350595466       -0.48928212846456
N           30.32503190425308       -1.38541539998083       -0.32995753646142
C           28.98182832813630       -1.17003293918054       -0.29848639412518
C           28.34794427281807        0.07240610450315       -0.11723089049123
C           29.00830960263430        1.29389877275003        0.10507151726588
C           28.34605083681613        2.55676653188687        0.23790947658732
C           29.31007899710580        3.48795124876025        0.45183461428866
C           30.56859103569531        2.79688240048642        0.46005296187953
N           30.35213080204903        1.46300972423337        0.23551021754890
C           31.81236604228281        3.40133785862623        0.65263837931297
C           31.82996356098698        4.85779804305127        0.94095322870834
C           31.20943378640730        5.35834733654370        2.08768964383427
C           31.23218290593081        6.71744276079831        2.36848395352861
C           31.87168879082570        7.59368535258801        1.50779568102275
C           32.49364773307541        7.10619916676061        0.35726153472081
C           33.16895394530643        8.07774192705335       -0.53897551437214
O           33.74893987405733        7.51078894470157       -1.60724869744498
O           33.20903748872653        9.26605884764839       -0.34592347450817
C           32.47268303028306        5.74138147741797        0.07654922634113
C           33.04320552688379        2.74216959822225        0.60389347173487
C           34.32031683960581        3.35285028583029        0.85762541723812
C           35.25978864675423        2.38546791881513        0.71616417535291
C           34.56559872187968        1.17344651945556        0.38670696787461
N           33.22294132086665        1.41756042439826        0.32845198716106
H           36.26135410595680       -0.07105696604135        0.21288196194013
H           36.29012515572951       -2.61377449146295       -0.40045294439805
H           34.39541826548603       -4.46137742370656       -0.86144792406904
H           32.67047029560027       -5.38419402759840        0.94424752708577
H           33.13939741867353       -9.83898200750786        1.13708213837213
H           31.68744004084018       -8.64379627774572       -1.65610146835463
H           30.75300037411959       -7.04590988130848       -3.30086753847781
H           30.78661698794588       -4.62399895253441       -2.83280465331215
H           29.08084705433321       -4.42909192909995       -0.78096309852685
H           27.21598187834622       -2.51943188302468       -0.50000950428155
H           27.28014005970536        2.70344200708671        0.16710900597883
H           29.18570849838015        4.55136115819305        0.57834554812795
H           30.72013878699144        4.67201337803394        2.76979182008559
H           30.75051464949323        7.09046167807734        3.26511867138533
H           31.89987904908991        8.65799545822983        1.71222845408432
H           34.16550926512863        8.20943093842791       -2.13759042686989
H           32.94554139507642        5.36734249391548       -0.82385982310582
H           34.47128727981553        4.38718582625176        1.12158453059300
H           36.32894465803452        2.46918270597496        0.83137985911512
C           18.01180254354541       -0.04214813267754       -0.18209912828497
C           19.23591630378198       -0.02864497061769       -0.20720614672219
C           20.57848678775824       -0.01053135281678       -0.22535836633414
C           21.80859456616381        0.02314253568614       -0.23042872791900
C           23.14632937331695        0.04849102197850       -0.22376944447254
C           24.37655022005719        0.07496400468028       -0.20874233107541
C           25.71905719225764        0.08532030000797       -0.18461498117709
C           26.94323081184967        0.08900095993536       -0.15743936169371

          :  Hamiltonian                  GFN1-xTB          :
         :: total energy            -253.160150823598 Eh    ::
         :: gradient norm              0.000854162024 Eh/a0 ::
         :: HOMO-LUMO gap              0.001613201170 eV    ::
         :: SCC energy              -256.886887567351 Eh    ::
         :: repulsion energy           3.842497967294 Eh    ::

    * Orbital Energies and Occupations

         #    Occupation            Energy/Eh            Energy/eV
      -------------------------------------------------------------
         1        2.0000           -0.8334768             -22.6801
       ...           ...                  ...                  ...
       214        2.0000           -0.4178103             -11.3692
       215        2.0000           -0.4146812             -11.2840
       216        2.0000           -0.4146810             -11.2840
       217        2.0000           -0.4145328             -11.2800
       218        2.0000           -0.4144997             -11.2791
       219        2.0000           -0.4144951             -11.2790
       220        2.0000           -0.4143890             -11.2761
       221        2.0000           -0.4114421             -11.1959
       222        2.0000           -0.4023167             -10.9476
       223        2.0000           -0.4023144             -10.9475
       224        2.0000           -0.3971806             -10.8078
       225        2.0000           -0.3878041             -10.5527
       226        1.0156           -0.3621802              -9.8554 (HOMO)
       227        0.9844           -0.3621210              -9.8538 (LUMO)
       228                         -0.3446685              -9.3789
       229                         -0.3353846              -9.1263
       230                         -0.3353827              -9.1262
       231                         -0.3345181              -9.1027
       232                         -0.3124303              -8.5017
       233                         -0.3118234              -8.4851
       234                         -0.3109462              -8.4613
       235                         -0.3108937              -8.4598
       236                         -0.3064984              -8.3402
       237                         -0.3040536              -8.2737
       ...                                ...                  ...
       462                          1.6021495              43.5967
      -------------------------------------------------------------
                  HL-Gap            0.0000593 Eh            0.0016 eV

Wiberg/Mayer (AO) data.
largest (>0.10) Wiberg bond orders for each atom

     #   Z sym  total        # sym  WBO       # sym  WBO       # sym  WBO
 ---------------------------------------------------------------------------
     1  29 Cu   2.180 --     7 N    0.504    43 N    0.504    28 N    0.501
                            21 N    0.500
     2   6 C    3.930 --     3 C    1.362    42 C    1.361    44 H    0.971
     3   6 C    3.916 --     2 C    1.362     7 N    1.229     4 C    1.169
     4   6 C    3.955 --     5 C    1.658     3 C    1.169    45 H    0.975
     5   6 C    3.958 --     4 C    1.658     6 C    1.170    46 H    0.973
     6   6 C    3.914 --     8 C    1.320     7 N    1.240     5 C    1.170
     7   7 N    3.244 --     6 C    1.240     3 C    1.229     1 Cu   0.504
     8   6 C    3.933 --    18 C    1.326     6 C    1.320     9 C    1.026
     9   6 C    3.988 --    10 C    1.409    17 C    1.388     8 C    1.026
                            15 C    0.103
    10   6 C    3.984 --     9 C    1.409    11 C    1.396    47 H    0.968
                            16 C    0.104
    11   6 C    3.988 --    10 C    1.396    15 C    1.391    12 C    1.005
                            17 C    0.100
    12   6 C    3.836 --    14 O    1.692    13 O    1.090    11 C    1.005
    13   8 O    2.098 --    12 C    1.090    48 H    0.838    14 O    0.129
    14   8 O    1.961 --    12 C    1.692    13 O    0.129
    15   6 C    3.987 --    16 C    1.448    11 C    1.391    49 H    0.971
                             9 C    0.103
    16   6 C    3.994 --    15 C    1.448    17 C    1.441    50 H    0.972
                            10 C    0.104
    17   6 C    3.987 --    16 C    1.441     9 C    1.388    51 H    0.973
                            11 C    0.100
    18   6 C    3.909 --     8 C    1.326    21 N    1.223    19 C    1.179
    19   6 C    3.954 --    20 C    1.643    18 C    1.179    52 H    0.973
    20   6 C    3.956 --    19 C    1.643    22 C    1.186    53 H    0.974
    21   7 N    3.247 --    22 C    1.257    18 C    1.223     1 Cu   0.500
    22   6 C    3.896 --    23 C    1.258    21 N    1.257    20 C    1.186
    23   6 C    3.940 --    24 C    1.259    22 C    1.258   125 C    1.190
    24   6 C    3.896 --    23 C    1.259    28 N    1.257    25 C    1.186
    25   6 C    3.956 --    26 C    1.643    24 C    1.186    54 H    0.974
    26   6 C    3.954 --    25 C    1.643    27 C    1.179    55 H    0.973
    27   6 C    3.909 --    29 C    1.327    28 N    1.222    26 C    1.179
    28   7 N    3.247 --    24 C    1.257    27 C    1.222     1 Cu   0.501
    29   6 C    3.933 --    27 C    1.327    39 C    1.319    30 C    1.026
    30   6 C    3.988 --    38 C    1.406    31 C    1.389    29 C    1.026
                            33 C    0.103
    31   6 C    3.987 --    32 C    1.440    30 C    1.389    56 H    0.973
                            34 C    0.100
    32   6 C    3.994 --    33 C    1.450    31 C    1.440    57 H    0.972
                            38 C    0.104
    33   6 C    3.986 --    32 C    1.450    34 C    1.388    58 H    0.969
                            30 C    0.103
    34   6 C    3.988 --    38 C    1.399    33 C    1.388    35 C    1.005
                            31 C    0.100
    35   6 C    3.836 --    37 O    1.692    36 O    1.089    34 C    1.005
    36   8 O    2.098 --    35 C    1.089    59 H    0.838    37 O    0.129
    37   8 O    1.961 --    35 C    1.692    36 O    0.129
    38   6 C    3.985 --    30 C    1.406    34 C    1.399    60 H    0.969
                            32 C    0.104
    39   6 C    3.914 --    29 C    1.319    43 N    1.240    40 C    1.171
    40   6 C    3.958 --    41 C    1.657    39 C    1.171    61 H    0.973
    41   6 C    3.955 --    40 C    1.657    42 C    1.170    62 H    0.975
    42   6 C    3.916 --     2 C    1.361    43 N    1.230    41 C    1.170
    43   7 N    3.243 --    39 C    1.240    42 C    1.230     1 Cu   0.504
    44   1 H    1.001 --     2 C    0.971
    45   1 H    0.997 --     4 C    0.975
    46   1 H    1.004 --     5 C    0.973
    47   1 H    1.007 --    10 C    0.968
    48   1 H    0.873 --    13 O    0.838
    49   1 H    1.005 --    15 C    0.971
    50   1 H    1.002 --    16 C    0.972
    51   1 H    1.005 --    17 C    0.973
    52   1 H    1.004 --    19 C    0.973
    53   1 H    1.002 --    20 C    0.974
    54   1 H    1.002 --    25 C    0.974
    55   1 H    1.004 --    26 C    0.973
    56   1 H    1.005 --    31 C    0.973
    57   1 H    1.002 --    32 C    0.972
    58   1 H    1.005 --    33 C    0.969
    59   1 H    0.873 --    36 O    0.838
    60   1 H    1.007 --    38 C    0.969
    61   1 H    1.004 --    40 C    0.973
    62   1 H    0.997 --    41 C    0.975
    63  29 Cu   2.180 --   105 N    0.504    69 N    0.504    83 N    0.501
                            90 N    0.500
    64   6 C    3.930 --    65 C    1.362   104 C    1.361   106 H    0.971
    65   6 C    3.916 --    64 C    1.362    69 N    1.229    66 C    1.169
    66   6 C    3.955 --    67 C    1.658    65 C    1.169   107 H    0.975
    67   6 C    3.958 --    66 C    1.658    68 C    1.170   108 H    0.973
    68   6 C    3.914 --    70 C    1.320    69 N    1.240    67 C    1.170
    69   7 N    3.244 --    68 C    1.240    65 C    1.229    63 Cu   0.504
    70   6 C    3.933 --    80 C    1.326    68 C    1.320    71 C    1.026
    71   6 C    3.988 --    72 C    1.409    79 C    1.388    70 C    1.026
                            77 C    0.103
    72   6 C    3.984 --    71 C    1.409    73 C    1.396   109 H    0.968
                            78 C    0.104
    73   6 C    3.988 --    72 C    1.396    77 C    1.391    74 C    1.005
                            79 C    0.100
    74   6 C    3.836 --    76 O    1.692    75 O    1.090    73 C    1.005
    75   8 O    2.098 --    74 C    1.090   110 H    0.838    76 O    0.129
    76   8 O    1.961 --    74 C    1.692    75 O    0.129
    77   6 C    3.987 --    78 C    1.448    73 C    1.391   111 H    0.971
                            71 C    0.103
    78   6 C    3.994 --    77 C    1.448    79 C    1.441   112 H    0.972
                            72 C    0.104
    79   6 C    3.987 --    78 C    1.441    71 C    1.388   113 H    0.973
                            73 C    0.100
    80   6 C    3.909 --    70 C    1.326    83 N    1.223    81 C    1.179
    81   6 C    3.954 --    82 C    1.643    80 C    1.179   114 H    0.973
    82   6 C    3.956 --    81 C    1.643    84 C    1.186   115 H    0.974
    83   7 N    3.247 --    84 C    1.257    80 C    1.223    63 Cu   0.501
    84   6 C    3.896 --    85 C    1.258    83 N    1.257    82 C    1.186
    85   6 C    3.940 --    86 C    1.258    84 C    1.258   132 C    1.190
    86   6 C    3.896 --    85 C    1.258    90 N    1.258    87 C    1.186
    87   6 C    3.956 --    88 C    1.643    86 C    1.186   116 H    0.974
    88   6 C    3.954 --    87 C    1.643    89 C    1.179   117 H    0.973
    89   6 C    3.909 --    91 C    1.327    90 N    1.222    88 C    1.179
    90   7 N    3.247 --    86 C    1.258    89 C    1.222    63 Cu   0.500
    91   6 C    3.933 --    89 C    1.327   101 C    1.319    92 C    1.026
    92   6 C    3.988 --   100 C    1.406    93 C    1.389    91 C    1.026
                            95 C    0.103
    93   6 C    3.987 --    94 C    1.440    92 C    1.389   118 H    0.973
                            96 C    0.100
    94   6 C    3.994 --    95 C    1.451    93 C    1.440   119 H    0.972
                           100 C    0.104
    95   6 C    3.986 --    94 C    1.451    96 C    1.388   120 H    0.969
                            92 C    0.103
    96   6 C    3.988 --   100 C    1.399    95 C    1.388    97 C    1.005
                            93 C    0.100
    97   6 C    3.836 --    99 O    1.692    98 O    1.089    96 C    1.005
    98   8 O    2.098 --    97 C    1.089   121 H    0.838    99 O    0.129
    99   8 O    1.961 --    97 C    1.692    98 O    0.129
   100   6 C    3.985 --    92 C    1.406    96 C    1.399   122 H    0.969
                            94 C    0.104
   101   6 C    3.914 --    91 C    1.319   105 N    1.240   102 C    1.171
   102   6 C    3.958 --   103 C    1.657   101 C    1.171   123 H    0.973
   103   6 C    3.955 --   102 C    1.657   104 C    1.170   124 H    0.975
   104   6 C    3.916 --    64 C    1.361   105 N    1.229   103 C    1.170
   105   7 N    3.244 --   101 C    1.240   104 C    1.229    63 Cu   0.504
   106   1 H    1.001 --    64 C    0.971
   107   1 H    0.997 --    66 C    0.975
   108   1 H    1.004 --    67 C    0.973
   109   1 H    1.007 --    72 C    0.968
   110   1 H    0.873 --    75 O    0.838
   111   1 H    1.005 --    77 C    0.971
   112   1 H    1.002 --    78 C    0.972
   113   1 H    1.005 --    79 C    0.973
   114   1 H    1.004 --    81 C    0.973
   115   1 H    1.002 --    82 C    0.974
   116   1 H    1.002 --    87 C    0.974
   117   1 H    1.004 --    88 C    0.973
   118   1 H    1.004 --    93 C    0.973
   119   1 H    1.002 --    94 C    0.972
   120   1 H    1.005 --    95 C    0.969
   121   1 H    0.873 --    98 O    0.838
   122   1 H    1.007 --   100 C    0.969
   123   1 H    1.004 --   102 C    0.973
   124   1 H    0.997 --   103 C    0.975
   125   6 C    3.878 --   126 C    2.441    23 C    1.190   128 C    0.187
   126   6 C    3.936 --   125 C    2.441   127 C    1.343
   127   6 C    3.894 --   128 C    2.338   126 C    1.343   130 C    0.183
   128   6 C    3.926 --   127 C    2.338   129 C    1.368   125 C    0.187
   129   6 C    3.926 --   130 C    2.338   128 C    1.368   132 C    0.187
   130   6 C    3.894 --   129 C    2.338   131 C    1.343   127 C    0.183
   131   6 C    3.936 --   132 C    2.441   130 C    1.343
   132   6 C    3.878 --   131 C    2.441    85 C    1.190   129 C    0.187
 ---------------------------------------------------------------------------

           -------------------------------------------------
          | TOTAL ENERGY             -253.160150823598 Eh   |
          | GRADIENT NORM               0.000854162024 Eh/α |
          | HOMO-LUMO GAP               0.001613201170 eV   |
           -------------------------------------------------

 * finished run on 2022/07/30 at 07:58:01.314
