   * xtb version 6.5.1 (b24c23e) compiled by 'conda@728c89f4b128' on 2022-07-12
          program call               : xtb Ni_Ph2OMe_C2_3.xyz --gfn 1 --opt -T 48

   ID    Z sym.   atoms
    1   28 Ni     1, 73, 149
    2    6 C      2-6, 8-11, 13-21, 23-27, 29-33, 36, 37, 39-43, 45, 74-78,
                  80-83, 85-93, 95-99, 101-105, 108, 109, 111-115, 117,
                  145-148, 150-154, 156-159, 161-169, 171-175, 177-181, 184,
                  185, 187-191, 193
    3    7 N      7, 12, 34, 35, 79, 84, 106, 107, 155, 160, 182, 183
    4    8 O      22, 28, 38, 44, 94, 100, 110, 116, 170, 176, 186, 192
    5    1 H      46-72, 118-144, 194-219
########################################################################
[WARNING] Please study the warnings concerning your input carefully
-1- prog_main_parseArguments: Unknown option '-T' provided
########################################################################

          :  Hamiltonian                  GFN1-xTB          :
 * total energy  :  -386.2002092 Eh     change       -0.7364008E-08 Eh
 * total energy  :  -386.7394579 Eh     change       -0.5392487E+00 Eh
 * total energy  :  -386.8903885 Eh     change       -0.1509306E+00 Eh
 * total energy  :  -386.9668663 Eh     change       -0.7647774E-01 Eh
 * total energy  :  -386.9971814 Eh     change       -0.3031513E-01 Eh
 * total energy  :  -387.0130338 Eh     change       -0.1585244E-01 Eh
 * total energy  :  -387.0204900 Eh     change       -0.7456142E-02 Eh
 * total energy  :  -387.0240794 Eh     change       -0.3589416E-02 Eh
 * total energy  :  -387.0256619 Eh     change       -0.1582454E-02 Eh
 * total energy  :  -387.0265825 Eh     change       -0.9206605E-03 Eh
 * total energy  :  -387.0325365 Eh     change       -0.1190707E-04 Eh
 * total energy  :  -387.0325501 Eh     change       -0.1353958E-04 Eh
 * total energy  :  -387.0325657 Eh     change       -0.1565694E-04 Eh
 * total energy  :  -387.0325814 Eh     change       -0.1572029E-04 Eh
 * total energy  :  -387.0325958 Eh     change       -0.1434384E-04 Eh
 * total energy  :  -387.0326082 Eh     change       -0.1242831E-04 Eh
 * total energy  :  -387.0326181 Eh     change       -0.9928592E-05 Eh
 * total energy  :  -387.0326261 Eh     change       -0.7968575E-05 Eh
 * total energy  :  -387.0326293 Eh     change       -0.3180372E-05 Eh
   *** GEOMETRY OPTIMIZATION CONVERGED AFTER 94 ITERATIONS ***

 final structure:
================
219
 xtb: 6.5.1 (b24c23e)
Ni          33.74695615747646        0.14911704928022       -0.07163341454901
C           30.36753202839735        0.39614365368801       -0.28325430390118
C           31.01802588356190        1.19303100771968        0.63554368794477
C           30.33958766217889        2.09905543008034        1.51198587488859
C           31.28257466767118        2.63305034910316        2.32250347214952
C           32.53865788222451        2.06599848711703        1.92889071413149
N           32.36675380682194        1.18820032586644        0.88756081109249
C           33.74369236476043        2.35437781320061        2.55212367102692
C           34.95356264814266        1.82123239948396        2.13373204679245
C           36.21302195698211        2.16945456603795        2.71777612378061
C           37.16869351302168        1.55069496931378        1.98470702672780
N           35.13619863761086        0.97556880314610        1.06293604339027
C           36.49148007642069        0.81763434696167        0.96201137204469
C           37.15892514008367        0.07562276697516       -0.01395004886012
C           36.49084073816478       -0.68496626066639       -0.97502822314347
C           37.16950939762384       -1.52272138489297       -1.91306994498252
C           36.21333302408841       -2.19155270190963       -2.59983544978624
C           34.95098229435344       -1.74446099917143       -2.09471844847015
C           33.72960944027243       -2.22052188298243       -2.54830766851796
C           33.71851636886738       -3.27043733423390       -3.60473758690154
C           34.12374084255998       -2.96860451502050       -4.91161652911917
O           34.50647764555099       -1.68307434970230       -5.13240867360578
C           34.95422937176186       -1.27746709443254       -6.40975347325785
C           34.11050697297463       -3.95285013970059       -5.89938398731628
C           33.69433478732658       -5.23544267067541       -5.57578969564679
C           33.28799246809216       -5.55738671467357       -4.28969682189562
C           33.29736851891745       -4.57216611357441       -3.30267588609630
O           32.92213507797135       -4.79066303048370       -2.01471740631408
C           32.48022094718407       -6.06869959586720       -1.60453802322103
C           32.51504692885529       -1.73895778739265       -2.08188889931373
C           31.24499107074609       -2.15113885125021       -2.60315951389022
C           30.30476804401866       -1.39584966608912       -1.98924434130517
C           31.00010722787467       -0.53063192422798       -1.08545887220577
N           32.35291341077045       -0.75261669463251       -1.14093530240537
N           35.13403574722834       -0.81345398465288       -1.09719045903999
C           33.74463025805579        3.30334266798436        3.70052357396441
C           33.97868367505992        2.84043864181610        5.00165670353938
O           34.18738948102201        1.50326555754357        5.12646179385775
C           34.44138936971147        0.93361555807239        6.39443510680506
C           33.97971311245432        3.72920742876910        6.07644773659038
C           33.75314488200214        5.07738400485575        5.84396677227372
C           33.52326345116106        5.55896592445365        4.56402512709945
C           33.51672499657967        4.66951780607137        3.49000290483025
O           33.30605061679151        5.04387340755622        2.20038013289749
C           33.07175882268834        6.39927666020581        1.87666928130379
H           29.29001119221155        0.48505301850137       -0.36105480844713
H           29.27591009458755        2.27796864114769        1.50123732134651
H           31.15463297728345        3.34787975927211        3.11908433958912
H           36.33768127165646        2.81639220258114        3.57077215257003
H           38.23899136490823        1.58145479347790        2.11038832988364
H           38.24108505070829       -1.59369335493758       -2.00843605553211
H           36.34011045446522       -2.92309364657942       -3.38088617851532
H           34.16895474671922       -1.39287661131902       -7.16671198853169
H           35.21233382982158       -0.22068554526709       -6.31940337758848
H           35.84308451569217       -1.83970232467094       -6.72104485121393
H           34.41900017289495       -3.72894052923780       -6.91180412151805
H           33.68568377965305       -6.00128674902008       -6.34362753567543
H           32.96852150830730       -6.56635027361369       -4.06561598025569
H           32.24043929856452       -5.98097068995342       -0.54324165953131
H           31.58157694672693       -6.37800329568309       -2.15216165213389
H           33.26276873852048       -6.82594911428797       -1.73541332847240
H           31.10737439927089       -2.91383405617310       -3.35239009670258
H           29.23423176833092       -1.40825472070296       -2.12092620295585
H           34.58446965227836       -0.13504320483784        6.22413032917113
H           33.59547893971362        1.07932035148934        7.07728193062740
H           35.34891788265639        1.35057309530962        6.84783012127440
H           34.15468993237118        3.38161176854905        7.08582611533986
H           33.75602807722988        5.76884187214479        6.67947044412982
H           33.35197670160561        6.61622746085243        4.41186507939767
H           33.92590126365569        7.03102603464086        2.14921189823263
H           32.93185707549306        6.43313862866547        0.79460729237097
H           32.16813969750027        6.77974747536395        2.36838711765329
Ni          55.49658619182715        0.07193960302138       -0.14271002716774
C           58.87176092932837        0.36257481723533       -0.39372623919075
C           58.22811160986009       -0.48369692920560       -1.27253573684072
C           58.91216465631162       -1.26816920955473       -2.25527302104822
C           57.96406144390061       -1.96669404954964       -2.92194462350574
C           56.69962542021897       -1.59013382197975       -2.36185706788750
N           56.87419166280011       -0.69669200779075       -1.33404594249813
C           55.47858974377517       -2.04233200646880       -2.83964111734290
C           54.26483256130136       -1.63294044310394       -2.30694835279041
C           52.99708813379762       -2.01518792435465       -2.84945851401371
C           52.04961944149844       -1.42760935835731       -2.08110456630569
N           54.09419435315883       -0.80813285370550       -1.21827609975037
C           52.73866337589504       -0.69235655291669       -1.06821137841935
C           52.08235684001810       -0.02141099318081       -0.03399306566816
C           52.76621158988011        0.63482352312274        0.99177222935110
C           52.10735013435971        1.25425432425166        2.09787330301285
C           53.07489680601442        1.79586367158101        2.87489675788711
C           54.32261156042031        1.52639758179887        2.22817042848669
C           55.54174960286422        1.99713958919647        2.69096724266023
C           55.56543052676272        2.81961321551667        3.93277997903308
C           55.04925295891891        4.12212637701476        3.92983465615107
O           54.54894714677602        4.55878584520064        2.74421538880336
C           53.98941473027454        5.85175496097728        2.63449793940794
C           55.07637422293165        4.89340096202613        5.09133238973474
C           55.61594999763904        4.35720785224272        6.25080489750700
C           56.13150152639773        3.07017179172810        6.27748412608563
C           56.10883608887445        2.30035348530566        5.11474279675259
O           56.58457696547607        1.02932978512710        5.04042950369196
C           57.14069472727162        0.40559030384282        6.17986974748487
C           56.73839039402137        1.76428569217027        2.02974836809576
C           57.99410516271418        2.31933503090133        2.44073103885195
C           58.92303816629833        1.88367704320991        1.55815826840289
C           58.23516056764909        1.05488150177401        0.61511278088838
N           56.89387686067931        1.00102570767021        0.89984957468429
N           54.12238565907350        0.79253001777857        1.08046275969312
C           55.46377119662264       -2.98381287070146       -3.99350887027092
C           55.05031350739436       -4.31103094306956       -3.81601292556016
O           54.69358556712273       -4.65713851671823       -2.55134251204312
C           54.22777719125264       -5.96119627260155       -2.26955240581077
C           55.03150063428404       -5.19442548419018       -4.89492864754798
C           55.41983838855494       -4.74563503508691       -6.14812741348118
C           55.82878085085346       -3.43591387004255       -6.34878376674057
C           55.85257762905437       -2.55362171971314       -5.26911151017632
O           56.22875611046261       -1.25095737279302       -5.36821788108745
C           56.64854615619392       -0.71882366070108       -6.60804538140822
H           59.94698373116856        0.46708820131924       -0.48290982115124
H           59.98181361024418       -1.27551914379042       -2.39442676561205
H           58.09316660688570       -2.66946308598958       -3.72896015477381
H           52.86188879739047       -2.64945946151154       -3.71028789741267
H           50.97746787129000       -1.48900470747158       -2.17250810744568
H           51.04022540683282        1.26344203945723        2.24900784280435
H           52.96534444040589        2.34060844598127        3.79836650995452
H           54.73208576256285        6.63052086964149        2.84659895068900
H           53.65253499525778        5.94986106159138        1.60084925751075
H           53.13141124194200        5.97653978199245        3.30618513565237
H           54.68383361991767        5.90143380012902        5.09902318664487
H           55.63564767264405        4.95652085584371        7.15447381056615
H           56.54541159334050        2.67781081870842        7.19673507245594
H           57.43848763725752       -0.59570334079338        5.86317136267761
H           58.02358267439341        0.94558510625301        6.54320578369615
H           56.40720260242665        0.32324529778481        6.99120208979110
H           58.12974869863289        2.96272591321644        3.29508153394385
H           59.98225055206984        2.08629695978528        1.53454192255939
H           53.98691432706133       -5.97402241655364       -1.20497292404967
H           54.99685591217545       -6.71607467632616       -2.47377258638851
H           53.32521133033215       -6.19826829080778       -2.84583952241245
H           54.71860834886559       -6.22203421875447       -4.76702831780872
H           55.40298638776918       -5.43195408048174       -6.98767300170273
H           56.12302447797350       -3.11220011724834       -7.33817891605540
H           55.84810581609806       -0.76336304599398       -7.35658670509048
H           56.90473623277619        0.32536828877735       -6.41920823296936
H           57.53274792742046       -1.24250652368860       -6.99151349932715
C           38.56976659818994        0.06708137072168       -0.00914499687039
C           39.78528678591390        0.05924999675212       -0.00959420126343
C           49.45598279209138       -0.03047445150232        0.00725740766873
C           50.67195146398346       -0.02924915780773       -0.01036134716926
Ni          44.61938931519759       -0.01068362016865        0.00272416143279
C           41.19582332089958        0.04190238883029       -0.00658973347732
C           41.86180834628591        0.09928770804061        1.21861423202624
C           41.17874127014493        0.14622658057877        2.47263835846626
C           42.13218547670360        0.18029048485599        3.43344284454378
C           43.39546985584725        0.16063576853972        2.76208971036576
N           43.21810418490664        0.10173679998355        1.39832705643517
C           44.61320518440289        0.18856801540053        3.42384075512111
C           45.83326300781884        0.15598877746225        2.76615966867415
C           47.09317933552203        0.22302771959170        3.44034109981465
C           48.05062387864136        0.16905427557031        2.48437532757471
N           46.01692155313263        0.07088016149374        1.40458630112955
C           47.37412278783331        0.07399645547105        1.22986648520140
C           48.04551516153692       -0.03148054565969        0.01012269382485
C           47.37690043297727       -0.14081334648857       -1.21109490209895
C           48.05742625376606       -0.26321300856723       -2.46109447526267
C           47.10337598583236       -0.32544147359743       -3.41969251572242
C           45.84162497724661       -0.22890564981826       -2.75255378464208
C           44.62470109899125       -0.23951633169253       -3.41686523473092
C           44.63103845647026       -0.32249719287026       -4.90415522938646
C           44.19109119213952       -1.48284696623300       -5.55413634025200
O           43.77900074223542       -2.49552731334294       -4.74666301530471
C           43.31282120346403       -3.70893687150256       -5.30068827037219
C           44.20199806843546       -1.55780597969304       -6.94671969919228
C           44.64949980209359       -0.47115995813066       -7.68286006077012
C           45.08792141419871        0.68835771887441       -7.06142922987458
C           45.08045255506271        0.76239107816788       -5.66891495680841
O           45.48343446429803        1.85489631099392       -4.96870830838993
C           45.97314594299760        2.99752496476711       -5.64068998475572
C           43.40464135658986       -0.16632749351567       -2.76262400964209
C           42.14491244581149       -0.14873330015125       -3.44068715479117
C           41.18799303962361       -0.07329399606696       -2.48556015383384
C           41.86584455785282       -0.03951801246099       -1.22822849215412
N           43.22221305159761       -0.08900456833689       -1.40046781888168
N           46.02061996801849       -0.12612623690904       -1.39150037292021
C           44.61103174647398        0.25615569119297        4.91211120299819
C           45.00720903520179       -0.85403381568099        5.66949234673814
O           45.37120578537555       -1.95522755301182        4.96153652618266
C           45.79866130038666       -3.12635335338036        5.62687128586748
C           45.00269811222508       -0.79458304821647        7.06280638156202
C           44.60570343054881        0.37561781592600        7.69200872817050
C           44.21105762778886        1.48730121859553        6.96301385468186
C           44.21157809355112        1.42682419890341        5.56970831665605
O           43.84837165774621        2.46293141253010        4.76858119475632
C           43.40813811949108        3.68249231084956        5.33025998048652
H           40.10680916105076        0.14439023983497        2.58734711586166
H           42.00375449893667        0.21467186528149        4.50294039899251
H           47.21662366739269        0.30142940331318        4.50813101905204
H           49.12171535154477        0.18588081532001        2.60354762900966
H           49.12854409144756       -0.29386404908056       -2.57619194267951
H           47.23102609529896       -0.42544738116156       -4.48510121979441
H           42.42497206298286       -3.55058354682780       -5.92500176747037
H           43.04730617771478       -4.34650673426044       -4.45539115456826
H           44.08999923632760       -4.20446858611338       -5.89519228946929
H           43.86726418093555       -2.45022249779612       -7.45842251414719
H           44.65685460788465       -0.52933160717472       -8.76579268110537
H           45.43028476991669        1.52130141625161       -7.66081553152199
H           46.23588789189491        3.71725840063084       -4.86320724150871
H           45.21061521956035        3.43683963684731       -6.29525588197711
H           46.86701230002927        2.76347744077182       -6.23159952503773
H           42.02129608084801       -0.18778597943072       -4.51059701172559
H           40.11722952167285       -0.03611844707866       -2.60582458899389
H           45.00766596736642       -3.53709515466613        6.26611578160137
H           46.03878793568877       -3.84912458617178        4.84491150737647
H           46.69395699307983       -2.94020289305691        6.23246537857077
H           45.30363547755350       -1.64706294356005        7.65693714861060
H           44.60358814367346        0.42226023325043        8.77553083230127
H           43.90793827596239        2.38754455428989        7.48068319217155
H           44.19420997274803        4.15523111888876        5.93169228332439
H           42.51432026645949        3.54005445028935        5.94981569361182
H           43.16095179589934        4.33260281896823        4.48895098508861

          :  Hamiltonian                  GFN1-xTB          :
         :: total energy            -387.032629281752 Eh    ::
         :: gradient norm              0.000331185777 Eh/a0 ::
         :: HOMO-LUMO gap              1.068723828920 eV    ::
         :: SCC energy              -392.256467531431 Eh    ::
         :: repulsion energy           5.423330868008 Eh    ::

    * Orbital Energies and Occupations

         #    Occupation            Energy/Eh            Energy/eV
      -------------------------------------------------------------
         1        2.0000           -0.8046895             -21.8967
       ...           ...                  ...                  ...
       333        2.0000           -0.3798576             -10.3365
       334        2.0000           -0.3797573             -10.3337
       335        2.0000           -0.3794792             -10.3262
       336        2.0000           -0.3791935             -10.3184
       337        2.0000           -0.3790382             -10.3142
       338        2.0000           -0.3784962             -10.2994
       339        2.0000           -0.3783337             -10.2950
       340        2.0000           -0.3781885             -10.2910
       341        2.0000           -0.3781816             -10.2908
       342        2.0000           -0.3780447             -10.2871
       343        2.0000           -0.3780211             -10.2865
       344        2.0000           -0.3727840             -10.1440
       345        2.0000           -0.3636035              -9.8942 (HOMO)
       346                         -0.3243286              -8.8254 (LUMO)
       347                         -0.3142129              -8.5502
       348                         -0.3121048              -8.4928
       349                         -0.3109857              -8.4624
       350                         -0.3108274              -8.4580
       351                         -0.3107059              -8.4547
       352                         -0.3106405              -8.4530
       353                         -0.3104422              -8.4476
       354                         -0.3044834              -8.2854
       355                         -0.2814967              -7.6599
       356                         -0.2746350              -7.4732
       ...                                ...                  ...
       731                          1.3612245              37.0408
      -------------------------------------------------------------
                  HL-Gap            0.0392749 Eh            1.0687 eV

Wiberg/Mayer (AO) data.
largest (>0.10) Wiberg bond orders for each atom

     #   Z sym  total        # sym  WBO       # sym  WBO       # sym  WBO
 ---------------------------------------------------------------------------
     1  28 Ni   3.015 --    34 N    0.665     7 N    0.665    35 N    0.663
                            12 N    0.663
     2   6 C    3.936 --     3 C    1.364    33 C    1.363    46 H    0.971
     3   6 C    3.925 --     2 C    1.364     7 N    1.216     4 C    1.174
     4   6 C    3.960 --     5 C    1.650     3 C    1.174    47 H    0.975
     5   6 C    3.963 --     4 C    1.650     6 C    1.177    48 H    0.974
     6   6 C    3.919 --     8 C    1.329     7 N    1.219     5 C    1.177
     7   7 N    3.404 --     6 C    1.219     3 C    1.216     1 Ni   0.665
     8   6 C    3.939 --     9 C    1.334     6 C    1.329    36 C    1.012
     9   6 C    3.915 --     8 C    1.334    12 N    1.205    10 C    1.183
    10   6 C    3.960 --    11 C    1.638     9 C    1.183    49 H    0.974
    11   6 C    3.962 --    10 C    1.638    13 C    1.189    50 H    0.971
    12   7 N    3.409 --    13 C    1.238     9 C    1.205     1 Ni   0.663
    13   6 C    3.912 --    14 C    1.272    12 N    1.238    11 C    1.189
    14   6 C    3.944 --    15 C    1.272    13 C    1.272   145 C    1.162
    15   6 C    3.912 --    14 C    1.272    35 N    1.238    16 C    1.188
    16   6 C    3.962 --    17 C    1.639    15 C    1.188    51 H    0.972
    17   6 C    3.960 --    16 C    1.639    18 C    1.183    52 H    0.974
    18   6 C    3.915 --    19 C    1.333    35 N    1.206    17 C    1.183
    19   6 C    3.940 --    18 C    1.333    30 C    1.329    20 C    1.014
    20   6 C    3.977 --    27 C    1.343    21 C    1.343    19 C    1.014
                            25 C    0.101
    21   6 C    3.903 --    24 C    1.362    20 C    1.343    22 O    1.031
    22   8 O    2.145 --    21 C    1.031    23 C    0.936
    23   6 C    3.908 --    54 H    0.983    55 H    0.980    53 H    0.980
                            22 O    0.936
    24   6 C    3.983 --    25 C    1.442    21 C    1.362    56 H    0.969
    25   6 C    3.993 --    26 C    1.442    24 C    1.442    57 H    0.974
                            20 C    0.101
    26   6 C    3.983 --    25 C    1.442    27 C    1.361    58 H    0.969
    27   6 C    3.903 --    26 C    1.361    20 C    1.343    28 O    1.031
    28   8 O    2.145 --    27 C    1.031    29 C    0.936
    29   6 C    3.908 --    59 H    0.983    60 H    0.980    61 H    0.980
                            28 O    0.936
    30   6 C    3.919 --    19 C    1.329    34 N    1.219    31 C    1.177
    31   6 C    3.963 --    32 C    1.650    30 C    1.177    62 H    0.974
    32   6 C    3.960 --    31 C    1.650    33 C    1.174    63 H    0.975
    33   6 C    3.925 --     2 C    1.363    34 N    1.216    32 C    1.174
    34   7 N    3.404 --    30 C    1.219    33 C    1.216     1 Ni   0.665
    35   7 N    3.409 --    15 C    1.238    18 C    1.206     1 Ni   0.663
    36   6 C    3.977 --    37 C    1.344    43 C    1.344     8 C    1.012
                            41 C    0.101
    37   6 C    3.904 --    40 C    1.361    36 C    1.344    38 O    1.032
    38   8 O    2.145 --    37 C    1.032    39 C    0.936
    39   6 C    3.908 --    64 H    0.983    66 H    0.980    65 H    0.980
                            38 O    0.936
    40   6 C    3.983 --    41 C    1.442    37 C    1.361    67 H    0.969
    41   6 C    3.993 --    40 C    1.442    42 C    1.442    68 H    0.974
                            36 C    0.101
    42   6 C    3.983 --    41 C    1.442    43 C    1.362    69 H    0.969
    43   6 C    3.904 --    42 C    1.362    36 C    1.344    44 O    1.031
    44   8 O    2.145 --    43 C    1.031    45 C    0.936
    45   6 C    3.908 --    71 H    0.983    72 H    0.980    70 H    0.980
                            44 O    0.936
    46   1 H    1.001 --     2 C    0.971
    47   1 H    0.998 --     4 C    0.975
    48   1 H    1.002 --     5 C    0.974
    49   1 H    1.002 --    10 C    0.974
    50   1 H    1.005 --    11 C    0.971
    51   1 H    1.004 --    16 C    0.972
    52   1 H    1.002 --    17 C    0.974
    53   1 H    1.009 --    23 C    0.980
    54   1 H    1.015 --    23 C    0.983
    55   1 H    1.009 --    23 C    0.980
    56   1 H    1.000 --    24 C    0.969
    57   1 H    1.003 --    25 C    0.974
    58   1 H    1.000 --    26 C    0.969
    59   1 H    1.015 --    29 C    0.983
    60   1 H    1.009 --    29 C    0.980
    61   1 H    1.009 --    29 C    0.980
    62   1 H    1.002 --    31 C    0.974
    63   1 H    0.998 --    32 C    0.975
    64   1 H    1.015 --    39 C    0.983
    65   1 H    1.009 --    39 C    0.980
    66   1 H    1.009 --    39 C    0.980
    67   1 H    1.000 --    40 C    0.969
    68   1 H    1.003 --    41 C    0.974
    69   1 H    1.000 --    42 C    0.969
    70   1 H    1.009 --    45 C    0.980
    71   1 H    1.015 --    45 C    0.983
    72   1 H    1.009 --    45 C    0.980
    73  28 Ni   3.014 --   106 N    0.664    79 N    0.664    84 N    0.663
                           107 N    0.663
    74   6 C    3.935 --   105 C    1.364    75 C    1.363   118 H    0.971
    75   6 C    3.925 --    74 C    1.363    79 N    1.217    76 C    1.174
    76   6 C    3.960 --    77 C    1.650    75 C    1.174   119 H    0.975
    77   6 C    3.963 --    76 C    1.650    78 C    1.177   120 H    0.974
    78   6 C    3.919 --    80 C    1.330    79 N    1.218    77 C    1.177
    79   7 N    3.403 --    78 C    1.218    75 C    1.217    73 Ni   0.664
    80   6 C    3.939 --    81 C    1.332    78 C    1.330   108 C    1.014
    81   6 C    3.915 --    80 C    1.332    84 N    1.206    82 C    1.184
    82   6 C    3.960 --    83 C    1.637    81 C    1.184   121 H    0.974
    83   6 C    3.962 --    82 C    1.637    85 C    1.190   122 H    0.970
    84   7 N    3.408 --    85 C    1.237    81 C    1.206    73 Ni   0.663
    85   6 C    3.911 --    86 C    1.271    84 N    1.237    83 C    1.190
    86   6 C    3.944 --    85 C    1.271    87 C    1.270   148 C    1.166
    87   6 C    3.911 --    86 C    1.270   107 N    1.239    88 C    1.189
    88   6 C    3.962 --    89 C    1.638    87 C    1.189   123 H    0.970
    89   6 C    3.960 --    88 C    1.638    90 C    1.183   124 H    0.974
    90   6 C    3.915 --    91 C    1.335   107 N    1.204    89 C    1.183
    91   6 C    3.939 --    90 C    1.335   102 C    1.328    92 C    1.012
    92   6 C    3.977 --    99 C    1.344    93 C    1.343    91 C    1.012
                            97 C    0.101
    93   6 C    3.904 --    96 C    1.362    92 C    1.343    94 O    1.032
    94   8 O    2.146 --    93 C    1.032    95 C    0.935
    95   6 C    3.907 --   126 H    0.983   127 H    0.980   125 H    0.980
                            94 O    0.935
    96   6 C    3.983 --    97 C    1.442    93 C    1.362   128 H    0.969
    97   6 C    3.993 --    98 C    1.442    96 C    1.442   129 H    0.974
                            92 C    0.101
    98   6 C    3.983 --    97 C    1.442    99 C    1.361   130 H    0.969
    99   6 C    3.904 --    98 C    1.361    92 C    1.344   100 O    1.031
   100   8 O    2.145 --    99 C    1.031   101 C    0.936
   101   6 C    3.908 --   131 H    0.983   132 H    0.980   133 H    0.980
                           100 O    0.936
   102   6 C    3.919 --    91 C    1.328   106 N    1.219   103 C    1.177
   103   6 C    3.963 --   104 C    1.650   102 C    1.177   134 H    0.974
   104   6 C    3.959 --   103 C    1.650   105 C    1.174   135 H    0.975
   105   6 C    3.925 --    74 C    1.364   106 N    1.215   104 C    1.174
   106   7 N    3.403 --   102 C    1.219   105 C    1.215    73 Ni   0.664
   107   7 N    3.408 --    87 C    1.239    90 C    1.204    73 Ni   0.663
   108   6 C    3.977 --   115 C    1.343   109 C    1.342    80 C    1.014
                           113 C    0.101
   109   6 C    3.904 --   112 C    1.362   108 C    1.342   110 O    1.032
   110   8 O    2.146 --   109 C    1.032   111 C    0.935
   111   6 C    3.907 --   136 H    0.983   138 H    0.980   137 H    0.980
                           110 O    0.935
   112   6 C    3.983 --   113 C    1.442   109 C    1.362   139 H    0.969
   113   6 C    3.993 --   112 C    1.442   114 C    1.442   140 H    0.974
                           108 C    0.101
   114   6 C    3.983 --   113 C    1.442   115 C    1.362   141 H    0.969
   115   6 C    3.903 --   114 C    1.362   108 C    1.343   116 O    1.031
   116   8 O    2.145 --   115 C    1.031   117 C    0.936
   117   6 C    3.908 --   143 H    0.983   144 H    0.980   142 H    0.980
                           116 O    0.936
   118   1 H    1.001 --    74 C    0.971
   119   1 H    0.998 --    76 C    0.975
   120   1 H    1.002 --    77 C    0.974
   121   1 H    1.002 --    82 C    0.974
   122   1 H    1.005 --    83 C    0.970
   123   1 H    1.006 --    88 C    0.970
   124   1 H    1.002 --    89 C    0.974
   125   1 H    1.009 --    95 C    0.980
   126   1 H    1.015 --    95 C    0.983
   127   1 H    1.009 --    95 C    0.980
   128   1 H    1.000 --    96 C    0.969
   129   1 H    1.003 --    97 C    0.974
   130   1 H    1.000 --    98 C    0.969
   131   1 H    1.016 --   101 C    0.983
   132   1 H    1.009 --   101 C    0.980
   133   1 H    1.009 --   101 C    0.980
   134   1 H    1.002 --   103 C    0.974
   135   1 H    0.998 --   104 C    0.975
   136   1 H    1.015 --   111 C    0.983
   137   1 H    1.009 --   111 C    0.980
   138   1 H    1.009 --   111 C    0.980
   139   1 H    1.000 --   112 C    0.969
   140   1 H    1.003 --   113 C    0.974
   141   1 H    1.000 --   114 C    0.969
   142   1 H    1.009 --   117 C    0.980
   143   1 H    1.016 --   117 C    0.983
   144   1 H    1.009 --   117 C    0.980
   145   6 C    3.934 --   146 C    2.591    14 C    1.162
   146   6 C    3.936 --   145 C    2.591   150 C    1.163
   147   6 C    3.936 --   148 C    2.589   162 C    1.167
   148   6 C    3.935 --   147 C    2.589    86 C    1.166
   149  28 Ni   2.997 --   183 N    0.661   160 N    0.661   155 N    0.661
                           182 N    0.660
   150   6 C    3.935 --   181 C    1.271   151 C    1.271   146 C    1.163
   151   6 C    3.913 --   150 C    1.271   155 N    1.239   152 C    1.190
   152   6 C    3.960 --   153 C    1.637   151 C    1.190   194 H    0.971
   153   6 C    3.961 --   152 C    1.637   154 C    1.184   195 H    0.974
   154   6 C    3.913 --   156 C    1.332   155 N    1.205   153 C    1.184
   155   7 N    3.402 --   151 C    1.239   154 C    1.205   149 Ni   0.661
   156   6 C    3.934 --   154 C    1.332   157 C    1.331   184 C    1.012
   157   6 C    3.913 --   156 C    1.331   160 N    1.205   158 C    1.185
   158   6 C    3.960 --   159 C    1.636   157 C    1.185   196 H    0.974
   159   6 C    3.960 --   158 C    1.636   161 C    1.190   197 H    0.969
   160   7 N    3.402 --   161 C    1.239   157 C    1.205   149 Ni   0.661
   161   6 C    3.912 --   162 C    1.269   160 N    1.239   159 C    1.190
   162   6 C    3.935 --   161 C    1.269   163 C    1.269   147 C    1.167
   163   6 C    3.912 --   162 C    1.269   183 N    1.239   164 C    1.190
   164   6 C    3.960 --   165 C    1.636   163 C    1.190   198 H    0.970
   165   6 C    3.961 --   164 C    1.636   166 C    1.185   199 H    0.974
   166   6 C    3.913 --   167 C    1.331   183 N    1.205   165 C    1.185
   167   6 C    3.934 --   178 C    1.332   166 C    1.331   168 C    1.013
   168   6 C    3.977 --   169 C    1.344   175 C    1.342   167 C    1.013
                           173 C    0.101
   169   6 C    3.903 --   172 C    1.361   168 C    1.344   170 O    1.031
   170   8 O    2.145 --   169 C    1.031   171 C    0.936
   171   6 C    3.908 --   201 H    0.983   200 H    0.980   202 H    0.980
                           170 O    0.936
   172   6 C    3.983 --   173 C    1.442   169 C    1.361   203 H    0.969
   173   6 C    3.993 --   172 C    1.442   174 C    1.442   204 H    0.974
                           168 C    0.101
   174   6 C    3.983 --   173 C    1.442   175 C    1.362   205 H    0.969
   175   6 C    3.904 --   174 C    1.362   168 C    1.342   176 O    1.032
   176   8 O    2.146 --   175 C    1.032   177 C    0.935
   177   6 C    3.907 --   206 H    0.983   208 H    0.980   207 H    0.980
                           176 O    0.935
   178   6 C    3.913 --   167 C    1.332   182 N    1.206   179 C    1.185
   179   6 C    3.961 --   180 C    1.637   178 C    1.185   209 H    0.974
   180   6 C    3.960 --   179 C    1.637   181 C    1.190   210 H    0.972
   181   6 C    3.913 --   150 C    1.271   182 N    1.239   180 C    1.190
   182   7 N    3.402 --   181 C    1.239   178 C    1.206   149 Ni   0.660
   183   7 N    3.402 --   163 C    1.239   166 C    1.205   149 Ni   0.661
   184   6 C    3.977 --   191 C    1.344   185 C    1.343   156 C    1.012
                           189 C    0.101
   185   6 C    3.904 --   188 C    1.361   184 C    1.343   186 O    1.032
   186   8 O    2.146 --   185 C    1.032   187 C    0.935
   187   6 C    3.907 --   212 H    0.983   213 H    0.980   211 H    0.980
                           186 O    0.935
   188   6 C    3.983 --   189 C    1.442   185 C    1.361   214 H    0.969
   189   6 C    3.993 --   188 C    1.442   190 C    1.442   215 H    0.974
                           184 C    0.101
   190   6 C    3.983 --   189 C    1.442   191 C    1.361   216 H    0.969
   191   6 C    3.904 --   190 C    1.361   184 C    1.344   192 O    1.031
   192   8 O    2.145 --   191 C    1.031   193 C    0.936
   193   6 C    3.908 --   219 H    0.983   218 H    0.980   217 H    0.980
                           192 O    0.936
   194   1 H    1.005 --   152 C    0.971
   195   1 H    1.002 --   153 C    0.974
   196   1 H    1.002 --   158 C    0.974
   197   1 H    1.005 --   159 C    0.969
   198   1 H    1.006 --   164 C    0.970
   199   1 H    1.002 --   165 C    0.974
   200   1 H    1.009 --   171 C    0.980
   201   1 H    1.015 --   171 C    0.983
   202   1 H    1.009 --   171 C    0.980
   203   1 H    1.000 --   172 C    0.969
   204   1 H    1.003 --   173 C    0.974
   205   1 H    1.000 --   174 C    0.969
   206   1 H    1.015 --   177 C    0.983
   207   1 H    1.009 --   177 C    0.980
   208   1 H    1.009 --   177 C    0.980
   209   1 H    1.002 --   179 C    0.974
   210   1 H    1.004 --   180 C    0.972
   211   1 H    1.009 --   187 C    0.980
   212   1 H    1.015 --   187 C    0.983
   213   1 H    1.009 --   187 C    0.980
   214   1 H    1.000 --   188 C    0.969
   215   1 H    1.003 --   189 C    0.974
   216   1 H    1.000 --   190 C    0.969
   217   1 H    1.009 --   193 C    0.980
   218   1 H    1.009 --   193 C    0.980
   219   1 H    1.015 --   193 C    0.983
 ---------------------------------------------------------------------------

           -------------------------------------------------
          | TOTAL ENERGY             -387.032629281752 Eh   |
          | GRADIENT NORM               0.000331185777 Eh/α |
          | HOMO-LUMO GAP               1.068723828920 eV   |
           -------------------------------------------------

 * finished run on 2022/07/30 at 09:26:50.571
