   * xtb version 6.5.1 (b24c23e) compiled by 'conda@728c89f4b128' on 2022-07-12
          program call               : xtb Fe_PhNO2_C8_2.xyz --gfn 1 --opt -T 48

   ID    Z sym.   atoms
    1   26 Fe     1, 61
    2    6 C      2-6, 8-12, 16-20, 22-27, 29-33, 37-42, 62-66, 68-72, 76-80,
                  82-87, 89-93, 97-102, 121-128
    3    7 N      7, 13, 21, 28, 34, 43, 67, 73, 81, 88, 94, 103
    4    8 O      14, 15, 35, 36, 74, 75, 95, 96
    5    1 H      44-60, 104-120
########################################################################
[WARNING] Please study the warnings concerning your input carefully
-1- prog_main_parseArguments: Unknown option '-T' provided
########################################################################

          :  Hamiltonian                  GFN1-xTB          :
 * total energy  :  -251.2132693 Eh     change        0.4957570E-08 Eh
 * total energy  :  -251.5784000 Eh     change       -0.3651307E+00 Eh
 * total energy  :  -251.6994801 Eh     change       -0.1210800E+00 Eh
 * total energy  :  -251.7331205 Eh     change       -0.3364048E-01 Eh
 * total energy  :  -251.7495668 Eh     change       -0.1644622E-01 Eh
 * total energy  :  -251.7574877 Eh     change       -0.7920960E-02 Eh
 * total energy  :  -251.7616888 Eh     change       -0.4201042E-02 Eh
 * total energy  :  -251.7630943 Eh     change       -0.1405554E-02 Eh
 * total energy  :  -251.7652462 Eh     change       -0.2151852E-02 Eh
 * total energy  :  -251.7662354 Eh     change       -0.9892219E-03 Eh
 * total energy  :  -251.7703631 Eh     change       -0.1056907E-04 Eh
 * total energy  :  -251.7703562 Eh     change        0.6846896E-05 Eh
 * total energy  :  -251.7703618 Eh     change       -0.5595552E-05 Eh
 * total energy  :  -251.7703242 Eh     change        0.3766136E-04 Eh
 * total energy  :  -251.7703634 Eh     change       -0.3918121E-04 Eh
 * total energy  :  -251.7703557 Eh     change        0.7608822E-05 Eh
 * total energy  :  -251.7703606 Eh     change       -0.4898305E-05 Eh
 * total energy  :  -251.7703684 Eh     change       -0.7765652E-05 Eh
 * total energy  :  -251.7703720 Eh     change       -0.3581366E-05 Eh
   *** GEOMETRY OPTIMIZATION CONVERGED AFTER 51 ITERATIONS ***

 final structure:
================
128
 xtb: 6.5.1 (b24c23e)
Fe          13.39807840396512       -0.02754718659018       -0.00310543697343
C           10.01337017955898       -0.04184782562145       -0.15259372476574
C           10.66621499325973       -1.25714233326175       -0.17302800862913
C            9.99434985500624       -2.52105604560190       -0.21239292183433
C           10.95442100414087       -3.46696937440430       -0.33887958619974
C           12.21149870053262       -2.77710840454024       -0.38962722965216
N           12.02375761772303       -1.42963971473301       -0.24497435966482
C           13.43523566488919       -3.39923061939550       -0.61402451957042
C           13.45174468364811       -4.85697699013939       -0.87121810318995
C           14.14236745184243       -5.71723196998456       -0.01235034226166
C           14.16249906468778       -7.07958899175825       -0.24946074864436
C           13.49068349036620       -7.58534762756617       -1.35865402755094
N           13.51323478525870       -9.01480471943940       -1.61547930318708
O           12.91187348323446       -9.41784640714758       -2.57779052576787
O           14.13230768123220       -9.70890888098947       -0.85058878058906
C           12.79851459250662       -6.74574524481949       -2.22667043718491
C           12.77956733961831       -5.38556545863055       -1.97727888101866
C           14.64257405405667       -2.71363425470774       -0.61146297760693
C           15.90992573840995       -3.31863977429651       -0.89617876041130
C           16.85096395040957       -2.36457267826656       -0.69765733702506
N           14.80821455732109       -1.38707304857806       -0.29391345357763
C           16.15571274741995       -1.17958272670470       -0.30350239102403
C           16.80596657447525       -0.00339817469346        0.09046420126018
C           16.11732875969336        1.16369128181229        0.44358491322029
C           16.76987703966187        2.35419109916234        0.89022050970212
C           15.80605203392293        3.29624223728499        1.02879660460374
C           14.56840436472762        2.67847578884856        0.65471076194756
N           14.77207922159704        1.35745533682183        0.33639457946322
C           13.35489065421458        3.34873879541327        0.57927896450675
C           13.33190984940065        4.80406084553094        0.84995042732955
C           12.57694844855035        5.31117917084921        1.91183472159827
C           12.55360252839896        6.66931684447471        2.17162509634715
C           13.28667054527256        7.52854251549349        1.35808431862779
N           13.26268617171551        8.95631836842806        1.62420687224747
O           12.59540612776532        9.33957612474315        2.55048268588423
O           13.91167467820198        9.66890845360983        0.90228842335911
C           14.04210281946020        7.04413038477519        0.29407458928997
C           14.06389443383325        5.68355892796546        0.04674871253959
C           12.15797156832327        2.71393808152913        0.26356717466448
C           10.90010226014151        3.39063644860402        0.12617693867698
C            9.96322812269903        2.43591761732785       -0.08107132461759
C           10.65038419714433        1.17958130580289       -0.08011304228165
N           11.99781445091108        1.36662564071854        0.08794779756740
H            8.93011247627425       -0.04722653928569       -0.19331925700160
H            8.92542178495028       -2.64788169553601       -0.14966932162025
H           10.83518802282711       -4.53704079352253       -0.38966050226965
H           14.65249587850067       -5.31149532321132        0.85345518749042
H           14.69026442704098       -7.75508482639194        0.41298853974063
H           12.28695934887228       -7.16434791442112       -3.08500280987727
H           12.25463362143114       -4.71948415058794       -2.65198465374929
H           16.05171712865686       -4.33944918503816       -1.21128964113855
H           17.92090590080110       -2.44203110496009       -0.80336647281342
H           17.82909894110038        2.44242954162354        1.07006455431267
H           15.91329073861882        4.31637074530164        1.35949745974152
H           12.01935295995887        4.63013711518476        2.54408096393195
H           11.97698124093619        7.07148893708570        2.99590386880464
H           14.60053443572837        7.73463195433293       -0.32643552993670
H           14.63906628083898        5.29437060751979       -0.78521905940311
H           10.76495157492018        4.45872033667569        0.17855389329188
H            8.90040903164009        2.55169343029144       -0.22119507881446
Fe          31.94184671979148        0.02857458200714       -0.01625243423341
C           35.32710200404528        0.09501814133967       -0.13199996642468
C           34.67432585058990        1.22835575001174        0.30702618504373
C           35.34656480247764        2.41578563580523        0.74129858109419
C           34.38645513585070        3.33907033186143        0.98233710067007
C           33.12881604201797        2.71710996161589        0.68178437405003
N           33.31631703915522        1.41263175385668        0.31412264635785
C           31.90482962141005        3.37739122371133        0.71006379987508
C           31.88799906913287        4.82546642367351        1.01691493172380
C           31.19769689503876        5.30150481584334        2.13564045030238
C           31.17684083301224        6.65361282937394        2.42546029606068
C           31.84757876760971        7.53808061587591        1.58564729841411
N           31.82430885355762        8.95976091179056        1.88229110548165
O           32.42501071060786        9.69393255513578        1.14045461847242
O           31.20520746483507        9.31699072160873        2.85142264196274
C           32.53923788684045        7.08465999396589        0.46604026840659
C           32.55886105365823        5.72998573840610        0.18839935865724
C           30.69741004838962        2.74054678821572        0.45651530379511
C           29.43012178375038        3.40810786610532        0.41689433784082
C           28.48954493321684        2.44939454970370        0.23943055740077
N           30.53191627348700        1.39141281495931        0.25609742916622
C           29.18490048964770        1.20305636734693        0.16204643823580
C           28.53490323090847       -0.03514537541363        0.08544654632684
C           29.22373491204910       -1.24937063065304       -0.02388290795072
C           28.57120047793992       -2.52050107789681       -0.05751243352103
C           29.53562905952352       -3.44600773750026       -0.27848967487809
C           30.77358573730486       -2.73312980311162       -0.39135300507920
N           30.56991551782269       -1.38944420854392       -0.18859071682784
C           31.98690136227025       -3.32607204663451       -0.71356348910291
C           32.01006921159954       -4.77641527692122       -1.00978472516511
C           32.76692881394396       -5.64499414335676       -0.21765833235688
C           32.79091957582357       -7.00114069336751       -0.48759801799500
C           32.05666405653784       -7.49202078074622       -1.56343735264846
N           32.08134023111246       -8.91503339029531       -1.85375121929226
O           32.75006397431950       -9.61798949079628       -1.14042849367604
O           31.43152800202635       -9.30436142903761       -2.78987387087431
C           31.29948534886577       -6.64365611800408       -2.36619827118313
C           31.27706154052698       -5.28995268881136       -2.08377579649535
C           33.18333394937197       -2.61860404742676       -0.77107711414111
C           34.44034090528992       -3.19289428414586       -1.15715227494440
C           35.37680007240903       -2.22900808508744       -0.99498904785906
C           34.69023811272157       -1.06554451084981       -0.52014064277316
N           33.34402256679840       -1.30471766683055       -0.42550872203863
H           36.41016846378231        0.11702400466643       -0.17212781995889
H           36.41585932301874        2.51131509585129        0.84186170938124
H           34.50605264233246        4.35046522625882        1.33534087827873
H           30.68836195183344        4.60096765794915        2.78702124666312
H           30.64933837231294        7.03186242809892        3.29283370814337
H           33.04982391468784        7.79433888591178       -0.17373844107707
H           33.08324212703350        5.36513141631224       -0.68702144589028
H           29.28816793099207        4.47263990359335        0.50684878385414
H           27.41985348330780        2.56103516690705        0.16689154408044
H           27.51153147547952       -2.66954708009148        0.07272874935937
H           29.42840533761408       -4.51567540980796       -0.35485158707208
H           33.32556565462596       -5.25116457443443        0.62334537119868
H           33.36899083355940       -7.68327533721484        0.12411680230097
H           30.74026930751700       -7.05059388541680       -3.20007581056886
H           30.70062426247543       -4.61694665351596       -2.70767379442918
H           34.57519248081037       -4.20236838057768       -1.51014879101921
H           36.43885280514141       -2.28236049977737       -1.17339122306282
C           18.20556089911630        0.00301531005298        0.13001676591159
C           19.43173656778597       -0.00477482790048        0.15754103700593
C           20.77053518816588       -0.01556410439567        0.17646753900508
C           22.00338757866172       -0.03087599923074        0.18263722192032
C           23.33738960546545       -0.04464560937543        0.17871790558765
C           24.57019670660030       -0.05810241841966        0.16552425352502
C           25.90903552510554       -0.05978527252998        0.14555671739131
C           27.13524894303368       -0.05582888208241        0.11924270932531

          :  Hamiltonian                  GFN1-xTB          :
         :: total energy            -251.770371989117 Eh    ::
         :: gradient norm              0.000306157531 Eh/a0 ::
         :: HOMO-LUMO gap              0.078064531481 eV    ::
         :: SCC energy              -255.394543220979 Eh    ::
         :: repulsion energy           3.738212554131 Eh    ::

    * Orbital Energies and Occupations

         #    Occupation            Energy/Eh            Energy/eV
      -------------------------------------------------------------
         1        2.0000           -0.9239759             -25.1427
       ...           ...                  ...                  ...
       211        2.0000           -0.4505841             -12.2610
       212        2.0000           -0.4426107             -12.0441
       213        2.0000           -0.4332609             -11.7896
       214        2.0000           -0.4208613             -11.4522
       215        2.0000           -0.4207120             -11.4482
       216        2.0000           -0.4194632             -11.4142
       217        1.9927           -0.4138758             -11.2621
       218        1.9925           -0.4138561             -11.2616
       219        1.9446           -0.4119308             -11.2092
       220        1.9434           -0.4119085             -11.2086
       221        1.9356           -0.4117824             -11.2052
       222        1.9352           -0.4117774             -11.2050
       223        1.6104           -0.4098979             -11.1539 (HOMO)
       224        0.3358           -0.4070291             -11.0758 (LUMO)
       225        0.3099           -0.4069380             -11.0733
       226                         -0.3637011              -9.8968
       227                         -0.3585749              -9.7573
       228                         -0.3584429              -9.7537
       229                         -0.3524293              -9.5901
       230                         -0.3507626              -9.5447
       231                         -0.3506464              -9.5416
       232                         -0.3437919              -9.3551
       233                         -0.3436529              -9.3513
       234                         -0.3272868              -8.9059
       ...                                ...                  ...
       454                          1.5778218              42.9347
      -------------------------------------------------------------
                  HL-Gap            0.0028688 Eh            0.0781 eV

Wiberg/Mayer (AO) data.
largest (>0.10) Wiberg bond orders for each atom

     #   Z sym  total        # sym  WBO       # sym  WBO       # sym  WBO
 ---------------------------------------------------------------------------
     1  26 Fe   3.122 --    43 N    0.671     7 N    0.666    21 N    0.662
                            28 N    0.658
     2   6 C    3.921 --    42 C    1.364     3 C    1.363    44 H    0.970
     3   6 C    3.921 --     2 C    1.363     7 N    1.208     4 C    1.172
     4   6 C    3.958 --     5 C    1.651     3 C    1.172    45 H    0.974
     5   6 C    3.961 --     4 C    1.651     6 C    1.173    46 H    0.973
     6   6 C    3.921 --     8 C    1.312     7 N    1.225     5 C    1.173
     7   7 N    3.379 --     6 C    1.225     3 C    1.208     1 Fe   0.666
     8   6 C    3.922 --    18 C    1.330     6 C    1.312     9 C    1.033
     9   6 C    3.985 --    17 C    1.384    10 C    1.384     8 C    1.033
    10   6 C    3.986 --    11 C    1.463     9 C    1.384    47 H    0.971
                            16 C    0.102
    11   6 C    3.987 --    10 C    1.463    12 C    1.387    48 H    0.964
                            17 C    0.102
    12   6 C    3.941 --    11 C    1.387    16 C    1.387    13 N    0.920
    13   7 N    3.866 --    14 O    1.455    15 O    1.455    12 C    0.920
    14   8 O    1.829 --    13 N    1.455    15 O    0.252
    15   8 O    1.829 --    13 N    1.455    14 O    0.252
    16   6 C    3.987 --    17 C    1.463    12 C    1.387    49 H    0.964
                            10 C    0.102
    17   6 C    3.986 --    16 C    1.463     9 C    1.384    50 H    0.971
                            11 C    0.102
    18   6 C    3.916 --     8 C    1.330    21 N    1.202    19 C    1.179
    19   6 C    3.955 --    20 C    1.638    18 C    1.179    51 H    0.973
    20   6 C    3.959 --    19 C    1.638    22 C    1.188    52 H    0.973
    21   7 N    3.381 --    22 C    1.244    18 C    1.202     1 Fe   0.662
    22   6 C    3.899 --    23 C    1.250    21 N    1.244    20 C    1.188
    23   6 C    3.922 --    24 C    1.250    22 C    1.250   121 C    1.206
    24   6 C    3.900 --    23 C    1.250    28 N    1.244    25 C    1.188
    25   6 C    3.959 --    26 C    1.638    24 C    1.188    53 H    0.973
    26   6 C    3.955 --    25 C    1.638    27 C    1.179    54 H    0.973
    27   6 C    3.916 --    29 C    1.330    28 N    1.202    26 C    1.179
    28   7 N    3.379 --    24 C    1.244    27 C    1.202     1 Fe   0.658
    29   6 C    3.922 --    27 C    1.330    39 C    1.312    30 C    1.033
    30   6 C    3.985 --    38 C    1.384    31 C    1.384    29 C    1.033
    31   6 C    3.986 --    32 C    1.463    30 C    1.384    55 H    0.971
                            37 C    0.102
    32   6 C    3.987 --    31 C    1.463    33 C    1.387    56 H    0.964
                            38 C    0.102
    33   6 C    3.941 --    37 C    1.388    32 C    1.387    34 N    0.920
    34   7 N    3.866 --    36 O    1.455    35 O    1.455    33 C    0.920
    35   8 O    1.829 --    34 N    1.455    36 O    0.252
    36   8 O    1.829 --    34 N    1.455    35 O    0.252
    37   6 C    3.987 --    38 C    1.463    33 C    1.388    57 H    0.964
                            31 C    0.102
    38   6 C    3.986 --    37 C    1.463    30 C    1.384    58 H    0.971
                            32 C    0.102
    39   6 C    3.921 --    29 C    1.312    43 N    1.225    40 C    1.173
    40   6 C    3.961 --    41 C    1.651    39 C    1.173    59 H    0.973
    41   6 C    3.958 --    40 C    1.651    42 C    1.172    60 H    0.974
    42   6 C    3.921 --     2 C    1.364    43 N    1.207    41 C    1.172
    43   7 N    3.381 --    39 C    1.225    42 C    1.207     1 Fe   0.671
    44   1 H    1.000 --     2 C    0.970
    45   1 H    0.997 --     4 C    0.974
    46   1 H    1.003 --     5 C    0.973
    47   1 H    1.003 --    10 C    0.971
    48   1 H    1.006 --    11 C    0.964
    49   1 H    1.006 --    16 C    0.964
    50   1 H    1.003 --    17 C    0.971
    51   1 H    1.003 --    19 C    0.973
    52   1 H    1.001 --    20 C    0.973
    53   1 H    1.001 --    25 C    0.973
    54   1 H    1.003 --    26 C    0.973
    55   1 H    1.003 --    31 C    0.971
    56   1 H    1.006 --    32 C    0.964
    57   1 H    1.006 --    37 C    0.964
    58   1 H    1.003 --    38 C    0.971
    59   1 H    1.003 --    40 C    0.973
    60   1 H    0.997 --    41 C    0.974
    61  26 Fe   3.103 --    67 N    0.667   103 N    0.667    88 N    0.659
                            81 N    0.659
    62   6 C    3.919 --   102 C    1.364    63 C    1.363   104 H    0.970
    63   6 C    3.921 --    62 C    1.363    67 N    1.207    64 C    1.172
    64   6 C    3.958 --    65 C    1.651    63 C    1.172   105 H    0.974
    65   6 C    3.961 --    64 C    1.651    66 C    1.173   106 H    0.973
    66   6 C    3.920 --    68 C    1.312    67 N    1.225    65 C    1.173
    67   7 N    3.379 --    66 C    1.225    63 C    1.207    61 Fe   0.667
    68   6 C    3.920 --    78 C    1.330    66 C    1.312    69 C    1.033
    69   6 C    3.985 --    77 C    1.384    70 C    1.384    68 C    1.033
    70   6 C    3.986 --    71 C    1.463    69 C    1.384   107 H    0.971
                            76 C    0.102
    71   6 C    3.987 --    70 C    1.463    72 C    1.387   108 H    0.964
                            77 C    0.102
    72   6 C    3.941 --    71 C    1.387    76 C    1.387    73 N    0.920
    73   7 N    3.866 --    75 O    1.455    74 O    1.455    72 C    0.920
    74   8 O    1.829 --    73 N    1.455    75 O    0.252
    75   8 O    1.829 --    73 N    1.455    74 O    0.252
    76   6 C    3.987 --    77 C    1.463    72 C    1.387   109 H    0.964
                            70 C    0.102
    77   6 C    3.986 --    76 C    1.463    69 C    1.384   110 H    0.971
                            71 C    0.102
    78   6 C    3.916 --    68 C    1.330    81 N    1.202    79 C    1.179
    79   6 C    3.955 --    80 C    1.638    78 C    1.179   111 H    0.973
    80   6 C    3.959 --    79 C    1.638    82 C    1.188   112 H    0.973
    81   7 N    3.379 --    82 C    1.243    78 C    1.202    61 Fe   0.659
    82   6 C    3.899 --    83 C    1.249    81 N    1.243    80 C    1.188
    83   6 C    3.920 --    84 C    1.250    82 C    1.249   128 C    1.206
    84   6 C    3.899 --    83 C    1.250    88 N    1.244    85 C    1.188
    85   6 C    3.959 --    86 C    1.638    84 C    1.188   113 H    0.973
    86   6 C    3.955 --    85 C    1.638    87 C    1.178   114 H    0.973
    87   6 C    3.916 --    89 C    1.330    88 N    1.201    86 C    1.178
    88   7 N    3.379 --    84 C    1.244    87 C    1.201    61 Fe   0.659
    89   6 C    3.920 --    87 C    1.330    99 C    1.312    90 C    1.033
    90   6 C    3.985 --    98 C    1.384    91 C    1.384    89 C    1.033
    91   6 C    3.986 --    92 C    1.463    90 C    1.384   115 H    0.971
                            97 C    0.102
    92   6 C    3.987 --    91 C    1.463    93 C    1.387   116 H    0.964
                            98 C    0.102
    93   6 C    3.941 --    97 C    1.388    92 C    1.387    94 N    0.920
    94   7 N    3.866 --    96 O    1.455    95 O    1.455    93 C    0.920
    95   8 O    1.829 --    94 N    1.455    96 O    0.252
    96   8 O    1.829 --    94 N    1.455    95 O    0.252
    97   6 C    3.987 --    98 C    1.463    93 C    1.388   117 H    0.964
                            91 C    0.102
    98   6 C    3.986 --    97 C    1.463    90 C    1.384   118 H    0.971
                            92 C    0.102
    99   6 C    3.920 --    89 C    1.312   103 N    1.225   100 C    1.173
   100   6 C    3.961 --   101 C    1.651    99 C    1.173   119 H    0.973
   101   6 C    3.958 --   100 C    1.651   102 C    1.172   120 H    0.974
   102   6 C    3.921 --    62 C    1.364   103 N    1.207   101 C    1.172
   103   7 N    3.379 --    99 C    1.225   102 C    1.207    61 Fe   0.667
   104   1 H    1.000 --    62 C    0.970
   105   1 H    0.997 --    64 C    0.974
   106   1 H    1.003 --    65 C    0.973
   107   1 H    1.003 --    70 C    0.971
   108   1 H    1.006 --    71 C    0.964
   109   1 H    1.006 --    76 C    0.964
   110   1 H    1.003 --    77 C    0.971
   111   1 H    1.003 --    79 C    0.973
   112   1 H    1.001 --    80 C    0.973
   113   1 H    1.001 --    85 C    0.973
   114   1 H    1.003 --    86 C    0.973
   115   1 H    1.003 --    91 C    0.971
   116   1 H    1.006 --    92 C    0.964
   117   1 H    1.006 --    97 C    0.964
   118   1 H    1.003 --    98 C    0.971
   119   1 H    1.003 --   100 C    0.973
   120   1 H    0.997 --   101 C    0.974
   121   6 C    3.862 --   122 C    2.410    23 C    1.206   124 C    0.182
   122   6 C    3.923 --   121 C    2.410   123 C    1.364
   123   6 C    3.878 --   124 C    2.303   122 C    1.364   126 C    0.177
   124   6 C    3.913 --   123 C    2.303   125 C    1.390   121 C    0.182
   125   6 C    3.913 --   126 C    2.303   124 C    1.390   128 C    0.182
   126   6 C    3.878 --   125 C    2.303   127 C    1.364   123 C    0.177
   127   6 C    3.923 --   128 C    2.410   126 C    1.364
   128   6 C    3.861 --   127 C    2.410    83 C    1.206   125 C    0.182
 ---------------------------------------------------------------------------

           -------------------------------------------------
          | TOTAL ENERGY             -251.770371989117 Eh   |
          | GRADIENT NORM               0.000306157531 Eh/α |
          | HOMO-LUMO GAP               0.078064531481 eV   |
           -------------------------------------------------

 * finished run on 2022/07/29 at 21:25:38.707
