   * xtb version 6.5.1 (b24c23e) compiled by 'conda@728c89f4b128' on 2022-07-12
          program call               : xtb Cu_Ph2Me_C8_2.xyz --gfn 1 --opt -T 48

   ID    Z sym.   atoms
    1   29 Cu     1, 69
    2    6 C      2-6, 8-11, 13-31, 34-41, 70-74, 76-79, 81-99, 102-109,
                  137-144
    3    7 N      7, 12, 32, 33, 75, 80, 100, 101
    4    1 H      42-68, 110-136
########################################################################
[WARNING] Please study the warnings concerning your input carefully
-1- prog_main_parseArguments: Unknown option '-T' provided
########################################################################

          :  Hamiltonian                  GFN1-xTB          :
 * total energy  :  -231.6578888 Eh     change        0.1833200E-09 Eh
 * total energy  :  -232.4169915 Eh     change       -0.7591027E+00 Eh
 * total energy  :  -232.5472770 Eh     change       -0.1302855E+00 Eh
 * total energy  :  -232.5977344 Eh     change       -0.5045744E-01 Eh
 * total energy  :  -232.6161974 Eh     change       -0.1846304E-01 Eh
 * total energy  :  -232.6259773 Eh     change       -0.9779842E-02 Eh
 * total energy  :  -232.6333410 Eh     change       -0.7363723E-02 Eh
 * total energy  :  -232.6395023 Eh     change       -0.6161320E-02 Eh
 * total energy  :  -232.6438968 Eh     change       -0.4394440E-02 Eh
 * total energy  :  -232.6469641 Eh     change       -0.3067309E-02 Eh
 * total energy  :  -232.6588493 Eh     change       -0.1580423E-04 Eh
 * total energy  :  -232.6588597 Eh     change       -0.1039987E-04 Eh
 * total energy  :  -232.6588657 Eh     change       -0.5958047E-05 Eh
 * total energy  :  -232.6588714 Eh     change       -0.5720392E-05 Eh
 * total energy  :  -232.6588789 Eh     change       -0.7537330E-05 Eh
 * total energy  :  -232.6588875 Eh     change       -0.8511304E-05 Eh
 * total energy  :  -232.6588873 Eh     change        0.1337380E-06 Eh
 * total energy  :  -232.6588952 Eh     change       -0.7877493E-05 Eh
 * total energy  :  -232.6588987 Eh     change       -0.3487174E-05 Eh
   *** GEOMETRY OPTIMIZATION CONVERGED AFTER 70 ITERATIONS ***

 final structure:
================
144
 xtb: 6.5.1 (b24c23e)
Cu          12.92376691463860        0.02153952539678       -0.03887540785497
C            9.53661767719977        0.19530688502641       -0.35352933530542
C           10.18812391761299        1.35861406986446        0.02866192155262
C            9.53356123637049        2.59849786491034        0.33426060758135
C           10.50264581623758        3.48244234196309        0.67901464894045
C           11.76015457150060        2.79319461576536        0.57594211429412
N           11.53681260426185        1.50328719762745        0.18818999045112
C           13.00952515478760        3.35507715781646        0.84949035884398
C           14.22612819043686        2.67388555155693        0.78193631013527
C           15.51366954686261        3.26916567443411        1.00317026781141
C           16.43963736454505        2.29211682249926        0.83052844255028
N           14.39004356279759        1.35014990790678        0.46828184551399
C           15.72637111136680        1.09567594462223        0.49770475316612
C           16.33801032823651       -0.14258790885954        0.23304121894211
C           15.65948513972892       -1.32371630834290       -0.11553216513723
C           16.30403146298410       -2.57298794036107       -0.38951145500831
C           15.32689619938488       -3.46195206390617       -0.70062728667722
C           14.07670269188075       -2.76142938278465       -0.61478908498184
C           12.82829455417718       -3.32068720634728       -0.89132688293878
C           12.78902791564753       -4.76198336455808       -1.24947088091721
C           12.36519358842887       -5.16192517895270       -2.51476743919922
C           12.33476378361879       -6.51089088645417       -2.85646730300259
C           11.86591805789129       -6.93172130824238       -4.22335351411685
C           12.72471384513722       -7.46021678632536       -1.91838642548347
C           13.14678980769862       -7.07628384704380       -0.64777481126521
C           13.57936432527721       -8.11737269600024        0.34934706651309
C           13.18021876256585       -5.72604817443135       -0.32046424307690
C           11.61519264491779       -2.62915499478469       -0.86019312637004
C           10.32572825436107       -3.20987561365144       -1.11884163153880
C            9.40720602357902       -2.22257445175265       -0.97447305644890
C           10.12507720243615       -1.03273338019836       -0.61641822837533
N           11.46137642691649       -1.30794533742144       -0.55271023465257
N           14.31343056083064       -1.45934422752103       -0.25988905624549
C           13.04910150338540        4.78774820404480        1.23861378399952
C           12.61658309894129        5.77157554909719        0.35022459552359
C           12.65782736150918        7.11449048894727        0.70872041358214
C           12.21595572455390        8.17637028971889       -0.26193220703004
C           13.13356564310935        7.47041706836911        1.96751601632388
C           13.56696224934170        6.50040392929442        2.86596250963243
C           14.05780689282662        6.89382039108849        4.23315497411039
C           13.52325289834912        5.16040812354394        2.49543308207178
H            8.45632994912288        0.24783375519011       -0.44262641379505
H            8.46718408664541        2.75636645446918        0.29430401779880
H           10.38300670864980        4.50856846652740        0.98764360632328
H           15.68416830003241        4.30582860889812        1.24460416145333
H           17.51210651074603        2.36696282857232        0.91385090756190
H           17.36895024719897       -2.73783566087814       -0.35041271365811
H           15.43863131418160       -4.49790863352988       -0.97706079301430
H           12.07443441547620       -4.41190320412533       -3.24236828866242
H           12.21888287509061       -7.93420971189562       -4.46532524330508
H           10.77402427519207       -6.93596046756597       -4.25708524571840
H           12.22404105305396       -6.23799783699442       -4.98476199592505
H           12.70138200129649       -8.51361783206930       -2.17825014847614
H           13.61056483806483       -7.70398888184600        1.35732294556984
H           12.89675201664028       -8.96810972873641        0.33805118646198
H           14.57742536897828       -8.48253210777274        0.09702598954882
H           13.49774353792658       -5.41396077702672        0.66849706889319
H           10.15200639066668       -4.24433560574955       -1.36818374672693
H            8.33631732967647       -2.28244496524330       -1.08983594838675
H           12.26210515095289        5.48306712336682       -0.63333438375174
H           11.73943850287261        9.00546224656827        0.26202087867260
H           11.51549621300243        7.77022863381914       -0.99172796812049
H           13.08091247478161        8.56931958329718       -0.80126655608607
H           13.16739711322898        8.51743628735035        2.25092172962845
H           13.22216844921581        6.91158789049888        4.93663518136283
H           14.50594321393157        7.88748883864349        4.21384675659267
H           14.79552135044273        6.18037623480554        4.60104763344304
H           13.84653117909846        4.39429064073205        3.19175273288219
Cu          31.48780558578547        0.02861638580128       -0.03372436034807
C           34.87520340679786        0.27929210100069       -0.28789763979326
C           34.22275204065691       -0.40886674254762       -1.30009456474420
C           34.87650161719493       -1.04547282082607       -2.40755340775270
C           33.90688765055516       -1.62135560385203       -3.16091753715450
C           32.64982488641164       -1.33191910600133       -2.52605639600140
N           32.87393683562667       -0.60199623036283       -1.39418661094333
C           31.40038045796126       -1.75226742055677       -2.98836307613475
C           30.18414889554112       -1.49947448518814       -2.35140238902394
C           28.89653851048250       -1.87996428655890       -2.85972648085738
C           27.97087664994529       -1.44128077284428       -1.96942099345556
N           30.02058711468762       -0.82814883931882       -1.16822381353132
C           28.68431541355923       -0.78571009191163       -0.91485922812206
C           28.07339119953875       -0.18366019046663        0.19945267828790
C           28.75262916630310        0.48088561163654        1.23580169251921
C           28.10828399330112        1.09397607150052        2.35835483988384
C           29.08577736908655        1.63935516493830        3.12573065362056
C           30.33595424623275        1.35904855745739        2.47805575676431
C           31.58483949495117        1.77784520634605        2.93920113711839
C           31.62416446816790        2.52324599685202        4.22365633291820
C           32.05163957200069        3.84864688039566        4.25615128729858
C           32.08192512389687        4.55239142635525        5.45665640653235
C           32.55544969248282        5.98076945403197        5.48096463076091
C           31.68788400965950        3.91700525002331        6.62900280440267
C           31.26184163634601        2.59110010345372        6.61330306899706
C           30.82466575910274        1.92452262455057        7.89006173410411
C           31.22892067486083        1.90071613301550        5.40761434038769
C           32.79804014720259        1.55270528935592        2.28478572335931
C           34.08805978820580        1.95981615630465        2.77165594617912
C           35.00627605114708        1.54521197461171        1.86374721976194
C           34.28763761825868        0.87248441984075        0.81955229200411
N           32.95128695024101        0.89003546991187        1.10108872908691
N           30.09884640863204        0.65517584410225        1.32658812583000
C           31.36058771151334       -2.52451114148979       -4.25629331102549
C           31.79026409617709       -1.94384256320095       -5.44896254204591
C           31.74936075722442       -2.66189797957270       -6.63906966070600
C           32.18830692194061       -2.02404089348330       -7.92959202562572
C           31.27679437359758       -3.97117522954638       -6.63017415887557
C           30.84619621803085       -4.56531435351728       -5.44801097731278
C           30.35890767305006       -5.98919796255552       -5.44491850902170
C           30.88954836476126       -3.83651374593743       -4.26404980363901
H           35.95557406453220        0.34909872373102       -0.36323124759058
H           35.94276097321572       -1.05064545347143       -2.57110294742702
H           34.02593741846246       -2.20171100617098       -4.06175861453265
H           28.72572117886388       -2.40259977943108       -3.78693339663004
H           26.89847046479784       -1.54340556351659       -2.01704475496803
H           27.04327588204428        1.10425009531885        2.52678330469185
H           28.97421062526812        2.19430554580199        4.04316553887102
H           32.34546246766545        4.33782755585039        3.33364685357026
H           32.20340488651186        6.49336276215519        6.37615942787742
H           33.64739918539996        6.01059087695497        5.47664241370078
H           32.20002625036756        6.52025227998732        4.60240425736467
H           31.71105389269960        4.45987851549422        7.56841877292448
H           30.78812967479745        0.84156115906670        7.77283424465688
H           31.50779960515206        2.16817528026751        8.70481912117658
H           29.82805117441056        2.27336511213033        8.16991548716327
H           30.90844152069798        0.86486875763272        5.38275313063505
H           34.26215368207347        2.48618243042422        3.69638446696474
H           36.07740249107769        1.67053053247750        1.88988202832783
H           32.14235614970067       -0.91801733951994       -5.44589777975346
H           32.66501390681385       -2.75709281680946       -8.58102793911446
H           32.88776516295912       -1.20899622105557       -7.74341127783889
H           31.32195106535423       -1.61657249438736       -8.45572473120108
H           31.24332091823846       -4.53477792176505       -7.55695919697421
H           31.19639605523007       -6.66771831957086       -5.26686809478335
H           29.91061321962139       -6.24836743869934       -6.40431447755908
H           29.62225683013165       -6.14580487435480       -4.65664428546859
H           30.56856378360792       -4.29300346878239       -3.33405760192000
C           17.74098428163438       -0.19780250333365        0.30378936960672
C           18.96389629362672       -0.23687490556175        0.34595773076717
C           20.30631658963652       -0.27041198439673        0.37531645035573
C           21.53655581643995       -0.28228158946892        0.38985622052056
C           22.87491036160102       -0.28974162381389        0.38442990874222
C           24.10505826513952       -0.28875226187757        0.35977016275063
C           25.44746675002913       -0.26598435651512        0.32135581512290
C           26.67041707891423       -0.23453809229123        0.27341522978830

          :  Hamiltonian                  GFN1-xTB          :
         :: total energy            -232.658898685730 Eh    ::
         :: gradient norm              0.000812850419 Eh/a0 ::
         :: HOMO-LUMO gap              0.000030476397 eV    ::
         :: SCC energy              -236.465877126282 Eh    ::
         :: repulsion energy           3.927805294028 Eh    ::

    * Orbital Energies and Occupations

         #    Occupation            Energy/Eh            Energy/eV
      -------------------------------------------------------------
         1        2.0000           -0.7613083             -20.7163
       ...           ...                  ...                  ...
       206        2.0000           -0.4091192             -11.1327
       207        2.0000           -0.4059936             -11.0476
       208        2.0000           -0.4059782             -11.0472
       209        2.0000           -0.4059273             -11.0458
       210        2.0000           -0.4056755             -11.0390
       211        2.0000           -0.4056654             -11.0387
       212        2.0000           -0.4054842             -11.0338
       213        2.0000           -0.4047151             -11.0129
       214        2.0000           -0.3927305             -10.6867
       215        2.0000           -0.3927248             -10.6866
       216        2.0000           -0.3847024             -10.4683
       217        2.0000           -0.3786537             -10.3037
       218        1.0003           -0.3531529              -9.6098 (HOMO)
       219        0.9997           -0.3531518              -9.6097 (LUMO)
       220                         -0.3341671              -9.0931
       221                         -0.3271834              -8.9031
       222                         -0.3244589              -8.8290
       223                         -0.3244551              -8.8289
       224                         -0.2979325              -8.1072
       225                         -0.2966372              -8.0719
       226                         -0.2855694              -7.7707
       227                         -0.2727767              -7.4226
       228                         -0.2567444              -6.9864
       229                         -0.2567231              -6.9858
       ...                                ...                  ...
       478                          1.6104695              43.8231
      -------------------------------------------------------------
                  HL-Gap            0.0000011 Eh            0.0000 eV

Wiberg/Mayer (AO) data.
largest (>0.10) Wiberg bond orders for each atom

     #   Z sym  total        # sym  WBO       # sym  WBO       # sym  WBO
 ---------------------------------------------------------------------------
     1  29 Cu   2.187 --    32 N    0.505     7 N    0.505    12 N    0.503
                            33 N    0.503
     2   6 C    3.929 --    31 C    1.361     3 C    1.361    42 H    0.971
     3   6 C    3.918 --     2 C    1.361     7 N    1.230     4 C    1.171
     4   6 C    3.955 --     5 C    1.655     3 C    1.171    43 H    0.976
     5   6 C    3.958 --     4 C    1.655     6 C    1.173    44 H    0.973
     6   6 C    3.913 --     8 C    1.319     7 N    1.239     5 C    1.173
     7   7 N    3.244 --     6 C    1.239     3 C    1.230     1 Cu   0.505
     8   6 C    3.935 --     9 C    1.328     6 C    1.319    34 C    1.025
     9   6 C    3.908 --     8 C    1.328    12 N    1.221    10 C    1.179
    10   6 C    3.955 --    11 C    1.643     9 C    1.179    45 H    0.973
    11   6 C    3.956 --    10 C    1.643    13 C    1.187    46 H    0.974
    12   7 N    3.248 --    13 C    1.257     9 C    1.221     1 Cu   0.503
    13   6 C    3.897 --    14 C    1.259    12 N    1.257    11 C    1.187
    14   6 C    3.939 --    15 C    1.259    13 C    1.259   137 C    1.188
    15   6 C    3.898 --    14 C    1.259    33 N    1.257    16 C    1.186
    16   6 C    3.957 --    17 C    1.643    15 C    1.186    47 H    0.974
    17   6 C    3.955 --    16 C    1.643    18 C    1.179    48 H    0.973
    18   6 C    3.908 --    19 C    1.329    33 N    1.220    17 C    1.179
    19   6 C    3.935 --    18 C    1.329    28 C    1.320    20 C    1.023
    20   6 C    3.988 --    21 C    1.403    27 C    1.393    19 C    1.023
                            24 C    0.103
    21   6 C    3.987 --    22 C    1.411    20 C    1.403    49 H    0.972
                            25 C    0.104
    22   6 C    3.988 --    24 C    1.422    21 C    1.411    23 C    1.020
                            27 C    0.103
    23   6 C    3.996 --    22 C    1.020    50 H    0.984    52 H    0.981
                            51 H    0.972
    24   6 C    3.989 --    22 C    1.422    25 C    1.410    53 H    0.972
                            20 C    0.103
    25   6 C    3.988 --    27 C    1.422    24 C    1.410    26 C    1.020
                            21 C    0.104
    26   6 C    3.996 --    25 C    1.020    54 H    0.985    55 H    0.980
                            56 H    0.972
    27   6 C    3.987 --    25 C    1.422    20 C    1.393    57 H    0.972
                            22 C    0.103
    28   6 C    3.913 --    19 C    1.320    32 N    1.239    29 C    1.173
    29   6 C    3.958 --    30 C    1.655    28 C    1.173    58 H    0.973
    30   6 C    3.955 --    29 C    1.655    31 C    1.171    59 H    0.976
    31   6 C    3.918 --     2 C    1.361    32 N    1.229    30 C    1.171
    32   7 N    3.244 --    28 C    1.239    31 C    1.229     1 Cu   0.505
    33   7 N    3.248 --    15 C    1.257    18 C    1.220     1 Cu   0.503
    34   6 C    3.988 --    41 C    1.398    35 C    1.396     8 C    1.025
                            38 C    0.103
    35   6 C    3.987 --    36 C    1.418    34 C    1.396    60 H    0.972
                            39 C    0.103
    36   6 C    3.988 --    35 C    1.418    38 C    1.414    37 C    1.020
                            41 C    0.104
    37   6 C    3.996 --    36 C    1.020    62 H    0.984    61 H    0.982
                            63 H    0.971
    38   6 C    3.988 --    39 C    1.417    36 C    1.414    64 H    0.972
                            34 C    0.103
    39   6 C    3.988 --    38 C    1.417    41 C    1.416    40 C    1.020
                            35 C    0.103
    40   6 C    3.996 --    39 C    1.020    66 H    0.983    67 H    0.983
                            65 H    0.971
    41   6 C    3.987 --    39 C    1.416    34 C    1.398    68 H    0.972
                            36 C    0.104
    42   1 H    1.002 --     2 C    0.971
    43   1 H    0.998 --     4 C    0.976
    44   1 H    1.005 --     5 C    0.973
    45   1 H    1.005 --    10 C    0.973
    46   1 H    1.002 --    11 C    0.974
    47   1 H    1.002 --    16 C    0.974
    48   1 H    1.005 --    17 C    0.973
    49   1 H    1.002 --    21 C    0.972
    50   1 H    1.004 --    23 C    0.984
    51   1 H    1.006 --    23 C    0.972
    52   1 H    1.005 --    23 C    0.981
    53   1 H    1.000 --    24 C    0.972
    54   1 H    1.004 --    26 C    0.985
    55   1 H    1.005 --    26 C    0.980
    56   1 H    1.006 --    26 C    0.972
    57   1 H    1.003 --    27 C    0.972
    58   1 H    1.005 --    29 C    0.973
    59   1 H    0.998 --    30 C    0.976
    60   1 H    1.003 --    35 C    0.972
    61   1 H    1.004 --    37 C    0.982
    62   1 H    1.004 --    37 C    0.984
    63   1 H    1.006 --    37 C    0.971
    64   1 H    1.000 --    38 C    0.972
    65   1 H    1.006 --    40 C    0.971
    66   1 H    1.004 --    40 C    0.983
    67   1 H    1.004 --    40 C    0.983
    68   1 H    1.003 --    41 C    0.972
    69  29 Cu   2.186 --    75 N    0.505   100 N    0.505   101 N    0.503
                            80 N    0.503
    70   6 C    3.929 --    99 C    1.361    71 C    1.361   110 H    0.971
    71   6 C    3.918 --    70 C    1.361    75 N    1.229    72 C    1.171
    72   6 C    3.955 --    73 C    1.655    71 C    1.171   111 H    0.976
    73   6 C    3.958 --    72 C    1.655    74 C    1.173   112 H    0.973
    74   6 C    3.913 --    76 C    1.319    75 N    1.239    73 C    1.173
    75   7 N    3.244 --    74 C    1.239    71 C    1.229    69 Cu   0.505
    76   6 C    3.935 --    77 C    1.328    74 C    1.319   102 C    1.025
    77   6 C    3.908 --    76 C    1.328    80 N    1.221    78 C    1.179
    78   6 C    3.955 --    79 C    1.643    77 C    1.179   113 H    0.973
    79   6 C    3.956 --    78 C    1.643    81 C    1.187   114 H    0.974
    80   7 N    3.248 --    81 C    1.257    77 C    1.221    69 Cu   0.503
    81   6 C    3.897 --    82 C    1.259    80 N    1.257    79 C    1.187
    82   6 C    3.939 --    83 C    1.259    81 C    1.259   144 C    1.188
    83   6 C    3.898 --    82 C    1.259   101 N    1.258    84 C    1.186
    84   6 C    3.957 --    85 C    1.643    83 C    1.186   115 H    0.974
    85   6 C    3.955 --    84 C    1.643    86 C    1.179   116 H    0.973
    86   6 C    3.908 --    87 C    1.329   101 N    1.220    85 C    1.179
    87   6 C    3.935 --    86 C    1.329    96 C    1.320    88 C    1.023
    88   6 C    3.988 --    89 C    1.403    95 C    1.393    87 C    1.023
                            92 C    0.103
    89   6 C    3.987 --    90 C    1.411    88 C    1.403   117 H    0.972
                            93 C    0.104
    90   6 C    3.988 --    92 C    1.422    89 C    1.411    91 C    1.020
                            95 C    0.103
    91   6 C    3.996 --    90 C    1.020   118 H    0.984   120 H    0.981
                           119 H    0.972
    92   6 C    3.989 --    90 C    1.422    93 C    1.410   121 H    0.972
                            88 C    0.103
    93   6 C    3.988 --    95 C    1.422    92 C    1.410    94 C    1.020
                            89 C    0.104
    94   6 C    3.996 --    93 C    1.020   122 H    0.985   123 H    0.980
                           124 H    0.972
    95   6 C    3.987 --    93 C    1.422    88 C    1.393   125 H    0.972
                            90 C    0.103
    96   6 C    3.913 --    87 C    1.320   100 N    1.239    97 C    1.173
    97   6 C    3.958 --    98 C    1.655    96 C    1.173   126 H    0.973
    98   6 C    3.955 --    97 C    1.655    99 C    1.171   127 H    0.976
    99   6 C    3.918 --    70 C    1.361   100 N    1.229    98 C    1.171
   100   7 N    3.244 --    96 C    1.239    99 C    1.229    69 Cu   0.505
   101   7 N    3.248 --    83 C    1.258    86 C    1.220    69 Cu   0.503
   102   6 C    3.988 --   109 C    1.398   103 C    1.396    76 C    1.025
                           106 C    0.103
   103   6 C    3.987 --   104 C    1.418   102 C    1.396   128 H    0.972
                           107 C    0.103
   104   6 C    3.988 --   103 C    1.418   106 C    1.414   105 C    1.020
                           109 C    0.104
   105   6 C    3.996 --   104 C    1.020   130 H    0.984   129 H    0.982
                           131 H    0.971
   106   6 C    3.988 --   107 C    1.417   104 C    1.414   132 H    0.972
                           102 C    0.103
   107   6 C    3.988 --   106 C    1.417   109 C    1.416   108 C    1.020
                           103 C    0.103
   108   6 C    3.996 --   107 C    1.020   134 H    0.983   135 H    0.983
                           133 H    0.971
   109   6 C    3.987 --   107 C    1.416   102 C    1.398   136 H    0.972
                           104 C    0.104
   110   1 H    1.002 --    70 C    0.971
   111   1 H    0.998 --    72 C    0.976
   112   1 H    1.005 --    73 C    0.973
   113   1 H    1.005 --    78 C    0.973
   114   1 H    1.002 --    79 C    0.974
   115   1 H    1.002 --    84 C    0.974
   116   1 H    1.005 --    85 C    0.973
   117   1 H    1.002 --    89 C    0.972
   118   1 H    1.004 --    91 C    0.984
   119   1 H    1.006 --    91 C    0.972
   120   1 H    1.005 --    91 C    0.981
   121   1 H    1.000 --    92 C    0.972
   122   1 H    1.004 --    94 C    0.985
   123   1 H    1.005 --    94 C    0.980
   124   1 H    1.006 --    94 C    0.972
   125   1 H    1.003 --    95 C    0.972
   126   1 H    1.005 --    97 C    0.973
   127   1 H    0.998 --    98 C    0.976
   128   1 H    1.003 --   103 C    0.972
   129   1 H    1.004 --   105 C    0.982
   130   1 H    1.004 --   105 C    0.984
   131   1 H    1.006 --   105 C    0.971
   132   1 H    1.000 --   106 C    0.972
   133   1 H    1.006 --   108 C    0.971
   134   1 H    1.004 --   108 C    0.983
   135   1 H    1.004 --   108 C    0.983
   136   1 H    1.003 --   109 C    0.972
   137   6 C    3.877 --   138 C    2.443    14 C    1.188   140 C    0.187
   138   6 C    3.936 --   137 C    2.443   139 C    1.341
   139   6 C    3.893 --   140 C    2.340   138 C    1.341   142 C    0.183
   140   6 C    3.926 --   139 C    2.340   141 C    1.366   137 C    0.187
   141   6 C    3.926 --   142 C    2.340   140 C    1.366   144 C    0.187
   142   6 C    3.893 --   141 C    2.340   143 C    1.341   139 C    0.183
   143   6 C    3.936 --   144 C    2.443   142 C    1.341
   144   6 C    3.877 --   143 C    2.443    82 C    1.188   141 C    0.187
 ---------------------------------------------------------------------------

           -------------------------------------------------
          | TOTAL ENERGY             -232.658898685730 Eh   |
          | GRADIENT NORM               0.000812850419 Eh/α |
          | HOMO-LUMO GAP               0.000030476397 eV   |
           -------------------------------------------------

 * finished run on 2022/07/30 at 07:34:39.348
