   * xtb version 6.5.1 (b24c23e) compiled by 'conda@728c89f4b128' on 2022-07-12
          program call               : xtb Co_Ph2OMe_C6_2.xyz --gfn 1 --opt -T 48

   ID    Z sym.   atoms
    1   27 Co     1, 73
    2    6 C      2-6, 8-11, 13-21, 23-27, 29-33, 36, 37, 39-43, 45, 74-78,
                  80-83, 85-93, 95-99, 101-105, 108, 109, 111-115, 117,
                  145-150
    3    7 N      7, 12, 34, 35, 79, 84, 106, 107
    4    8 O      22, 28, 38, 44, 94, 100, 110, 116
    5    1 H      46-72, 118-144
########################################################################
[WARNING] Please study the warnings concerning your input carefully
-1- prog_main_parseArguments: Unknown option '-T' provided
########################################################################

          :  Hamiltonian                  GFN1-xTB          :
 * total energy  :  -263.0924279 Eh     change        0.1156195E-09 Eh
 * total energy  :  -263.8224016 Eh     change       -0.7299737E+00 Eh
 * total energy  :  -263.9357935 Eh     change       -0.1133919E+00 Eh
 * total energy  :  -263.9952839 Eh     change       -0.5949043E-01 Eh
 * total energy  :  -264.0209570 Eh     change       -0.2567311E-01 Eh
 * total energy  :  -264.0342780 Eh     change       -0.1332093E-01 Eh
 * total energy  :  -264.0418158 Eh     change       -0.7537811E-02 Eh
 * total energy  :  -264.0463745 Eh     change       -0.4558699E-02 Eh
 * total energy  :  -264.0495303 Eh     change       -0.3155816E-02 Eh
 * total energy  :  -264.0518858 Eh     change       -0.2355545E-02 Eh
 * total energy  :  -264.0584071 Eh     change       -0.1648213E-04 Eh
 * total energy  :  -264.0584209 Eh     change       -0.1375219E-04 Eh
 * total energy  :  -264.0584329 Eh     change       -0.1204074E-04 Eh
 * total energy  :  -264.0584474 Eh     change       -0.1442872E-04 Eh
 * total energy  :  -264.0584625 Eh     change       -0.1513891E-04 Eh
 * total energy  :  -264.0584763 Eh     change       -0.1374688E-04 Eh
 * total energy  :  -264.0584888 Eh     change       -0.1254060E-04 Eh
 * total energy  :  -264.0584993 Eh     change       -0.1051215E-04 Eh
 * total energy  :  -264.0585018 Eh     change       -0.2465210E-05 Eh
   *** GEOMETRY OPTIMIZATION CONVERGED AFTER 68 ITERATIONS ***

 final structure:
================
150
 xtb: 6.5.1 (b24c23e)
Co          13.19908105555456       -0.01008100827551        0.08448830236819
C            9.84313237972821       -0.24707749156394        0.36639337554220
C           10.53212815352103        0.45951894362624        1.32850519945726
C            9.90361557107895        1.11655580671831        2.43439455460778
C           10.85507074169245        1.87663947029466        3.02516811671544
C           12.06655171248169        1.67447530974289        2.28670392337167
N           11.86945128631387        0.76421724388807        1.27947925245619
C           13.22614946698847        2.41103185381302        2.47911786218124
C           14.38316780317699        2.16167021344250        1.75967524147489
C           15.61595382394494        2.86042322220076        1.96378689870986
C           16.56758351971836        2.18445757828310        1.27645096415270
N           14.57174259871737        1.09670008457304        0.90706739023749
C           15.91248071742159        1.08143624475133        0.64765927555400
C           16.59227305531664        0.07039712960651       -0.03735568683045
C           15.91353772800299       -0.94857186975496       -0.70923339402669
C           16.57442097250171       -1.98196986748591       -1.44283940992417
C           15.61166450437933       -2.65466486272138       -2.11725971424853
C           14.36513957578019       -2.03133432542056       -1.79065278334347
C           13.15734609231128       -2.35546965936230       -2.38704263998439
C           13.14547636726843       -3.35855620844757       -3.48538089722487
C           13.75865325112755       -3.06878920115824       -4.71230286893103
O           14.32568702229920       -1.83867885969524       -4.81696657370451
C           14.99286936364294       -1.45470192932866       -6.00215897131783
C           13.75254013012762       -4.00787824081590       -5.74311602778214
C           13.13923368855239       -5.23505063604886       -5.54178605596062
C           12.52936032279357       -5.54556059864212       -4.33584894240321
C           12.53028283102231       -4.60520433229344       -3.30610284870055
O           11.96868364221007       -4.82215318961722       -2.08779620140724
C           11.32965698340378       -6.04956780363116       -1.80110510808363
C           11.96083199859479       -1.78635910119360       -1.97653543568062
C           10.68503374720363       -2.09551442104701       -2.55160383631605
C            9.74894487220930       -1.52042041295017       -1.76081112663980
C           10.45497751174834       -0.84384374901073       -0.71521230249525
N           11.81032702481006       -0.96948750866234       -0.88471520795728
N           14.55885304705509       -1.01985274808404       -0.87759631194243
C           13.23745864855561        3.48828255935014        3.50626073728342
C           13.22090385710547        3.16556741939241        4.86935422382182
O           13.18987229757948        1.83909374947594        5.16386198188036
C           13.19462403698111        1.40300773344473        6.50815868519956
C           13.24510761609223        4.17380089845943        5.83235047454873
C           13.28013689736374        5.49964870486079        5.42750780140277
C           13.29295760514248        5.84263123493864        4.08393698827046
C           13.27445573252054        4.83436747798592        3.12068789897000
O           13.28161187379253        5.06754583934484        1.78170549308108
C           13.31129159016232        6.39062684637410        1.28579578007490
H            8.76534299371087       -0.32002836561797        0.45396671198164
H            8.86168647350503        1.01340208226441        2.69372097787385
H           10.75834383814509        2.52874714156838        3.87790378604926
H           15.72879924772875        3.74264267151516        2.57247214365139
H           17.62247710704278        2.39394309530855        1.19918490507369
H           17.64005945744117       -2.14630521693358       -1.44234441369295
H           15.72191875424302       -3.49339955896865       -2.78528701330861
H           14.31020926263234       -1.43740071716982       -6.86040859810594
H           15.37075519468572       -0.44620132594888       -5.82434809314724
H           15.83542599812641       -2.12136371338521       -6.22240967982613
H           14.21902224009593       -3.79172302524639       -6.69488447968602
H           13.13681130781993       -5.96622015548139       -6.34271003606421
H           12.06094051106478       -6.51192841260883       -4.20573592603500
H           10.96498238561710       -5.96951124694086       -0.77535336359061
H           10.48033545525622       -6.22701191611542       -2.47205309405756
H           12.02838711520577       -6.89209507945957       -1.87025847930392
H           10.54057617491747       -2.69414782755643       -3.43640321276215
H            8.67478053893372       -1.54302329444584       -1.85670723360578
H           13.16544609795298        0.31236100365987        6.47340615058540
H           12.31609966486664        1.76933247185690        7.05309600468590
H           14.10450033803897        1.72281014140260        7.03033802845603
H           13.23771867155822        3.93542530123232        6.88750253202765
H           13.29820128319323        6.28379341111833        6.17644415653012
H           13.31909945726220        6.88541903795937        3.79734676145170
H           14.22090148453582        6.91698007720945        1.59982311393617
H           13.30309622328319        6.30727047583995        0.19746026210042
H           12.43236107538294        6.96117107958534        1.60969811808335
Co          29.15696499144249       -0.08351188949151       -0.00339147422264
C           32.51402979902868       -0.39221346261813        0.18524883043661
C           31.82501696614168       -1.24391267930306       -0.65108575972763
C           32.45417231664756       -2.24302859912429       -1.46078739132044
C           31.50141751758724       -2.72321825426274       -2.29361510254010
C           30.28881543150440       -2.02456704294214       -1.98480651496458
N           30.48657851192098       -1.15581296386290       -0.94163745793376
C           29.12735494227250       -2.11451311836722       -2.73780380717168
C           27.97005747982666       -1.43901587652772       -2.38753414181149
C           26.73650652467458       -1.54413652122422       -3.10651247613120
C           25.78595255726505       -0.95642049326005       -2.34108090514769
N           27.78297917177272       -0.74264723357455       -1.21419306917852
C           26.44244561675242       -0.48681684479331       -1.16222286927359
C           25.76344218279674        0.05217933454189       -0.06594219450560
C           26.44255396168035        0.57385294752772        1.03724925719434
C           25.78166158889904        1.15577355527497        2.16305659750713
C           26.74500136788816        1.72472655118580        2.92622695339729
C           27.99182405959386        1.48600469370455        2.26476469550665
C           29.20043345043633        2.02660505654455        2.67279193634312
C           29.21229020051543        2.97103703353170        3.82202050208346
C           28.60224862384597        4.22806463106785        3.70749719909698
O           28.04000299556240        4.50752714446698        2.50274337928868
C           27.37428009340895        5.73568656149170        2.28910364717974
C           28.60664563361640        5.11503549390483        4.78345256968030
C           29.21527217113956        4.74007499285773        5.97157461908848
C           29.82245848342383        3.50114686869637        6.10941981348350
C           29.82342655724710        2.61544272685055        5.03225602881451
O           30.38309449272220        1.37785137185380        5.07561820626538
C           31.01929332416207        0.91959549408903        6.25138292304695
C           30.39689058276462        1.70005215191803        2.05169324016583
C           31.67289965793883        2.22378058126379        2.44082597940433
C           32.60853475037459        1.52588222576024        1.75541088479452
C           31.90197861371407        0.58993102128620        0.93424380257552
N           30.54667784839088        0.73845395888921        1.08481360640429
N           27.79753673646470        0.72659258118215        1.13340427017167
C           29.11597438333459       -2.97854585087812       -3.94986697916436
C           29.13624562007192       -4.37365457229860       -3.82482117967016
O           29.16874559167487       -4.85451602462531       -2.55401047616050
C           29.16997999702193       -6.24742232930775       -2.31487977710194
C           29.11405092097202       -5.18307529943448       -4.96013240008090
C           29.07733692742990       -4.59349016039373       -6.21472087342326
C           29.06068987237682       -3.21478802561378       -6.36261414897264
C           29.07705213565423       -2.40516033138042       -5.22728806166084
O           29.06605377672950       -1.04663852136831       -5.26719718492889
C           29.03502243538901       -0.36727647805674       -6.50607453274893
H           33.59216639372523       -0.48708968504887        0.24219115213409
H           33.49718592156467       -2.51097983011250       -1.39893793211835
H           31.59790917900070       -3.47457613010005       -3.06036995067986
H           26.62256012551017       -2.02483968971475       -4.06436444316814
H           24.73095054561168       -0.85019553625070       -2.53688108130239
H           24.71568462777219        1.13544743986195        2.32387892779065
H           26.63498776256214        2.26722324166611        3.85114930349669
H           28.05660062503712        6.58742281192852        2.39814812431072
H           27.00143771806847        5.70413449899479        1.26368103877583
H           26.52838035674566        5.85840174828353        2.97631217441009
H           28.14233871162279        6.08877358306907        4.70316984912366
H           29.21617383819531        5.42886498829605        6.80922901770641
H           30.28718899814973        3.23412072702486        7.04906841736363
H           31.38658398884703       -0.08344636958472        6.02651450961373
H           31.86654815246731        1.55979628087986        6.52580146426950
H           30.31793795258658        0.86614791407337        7.09288992204879
H           31.81773472732839        3.01160782731588        3.16224683413338
H           33.68271133641601        1.61771054620726        1.79074007047626
H           29.19619480450424       -6.36915178534718       -1.23044007430050
H           30.05236501170326       -6.72984894124345       -2.75263673287060
H           28.26380167772506       -6.72304791358098       -2.70910382764268
H           29.12457988858571       -6.26141047702807       -4.87471270370925
H           29.06109675202953       -5.22303668381918       -7.09762589724421
H           29.03360326686596       -2.78247579962319       -7.35386830598555
H           28.12838279522778       -0.60875493471357       -7.07413979564884
H           29.03583116189743        0.69807062013809       -6.26833264512471
H           29.91700293424482       -0.60097673899154       -7.11472098775989
C           21.79228363243790        0.11158227640087       -0.09364655284714
C           20.56347535756091        0.10791460445479       -0.08899111291314
C           19.21930155938846        0.10155198001207       -0.07887719043325
C           17.99519095597437        0.08986748248500       -0.06467129300938
C           23.13644905929453        0.09736080041068       -0.09230480210003
C           24.36051724698537        0.08269506445204       -0.08159974665406

          :  Hamiltonian                  GFN1-xTB          :
         :: total energy            -264.058501771148 Eh    ::
         :: gradient norm              0.000586860079 Eh/a0 ::
         :: HOMO-LUMO gap              0.006370735316 eV    ::
         :: SCC energy              -267.786934633730 Eh    ::
         :: repulsion energy           3.858267334929 Eh    ::

    * Orbital Energies and Occupations

         #    Occupation            Energy/Eh            Energy/eV
      -------------------------------------------------------------
         1        2.0000           -0.8061208             -21.9357
       ...           ...                  ...                  ...
       224        2.0000           -0.4069792             -11.0745
       225        2.0000           -0.4032315             -10.9725
       226        2.0000           -0.3813487             -10.3770
       227        2.0000           -0.3813248             -10.3764
       228        2.0000           -0.3809326             -10.3657
       229        2.0000           -0.3806241             -10.3573
       230        2.0000           -0.3791148             -10.3162
       231        1.9998           -0.3771939             -10.2640
       232        1.9998           -0.3771804             -10.2636
       233        1.9998           -0.3771341             -10.2623
       234        1.9998           -0.3771191             -10.2619
       235        1.8972           -0.3712543             -10.1023
       236        1.1132           -0.3687002             -10.0328 (HOMO)
       237        0.9905           -0.3684661             -10.0265 (LUMO)
       238                         -0.3235256              -8.8036
       239                         -0.3130614              -8.5188
       240                         -0.3116874              -8.4814
       241                         -0.3116778              -8.4812
       242                         -0.2850669              -7.7571
       243                         -0.2796858              -7.6106
       244                         -0.2788247              -7.5872
       245                         -0.2786476              -7.5824
       246                         -0.2702046              -7.3526
       247                         -0.2561126              -6.9692
       ...                                ...                  ...
       502                          1.5884046              43.2227
      -------------------------------------------------------------
                  HL-Gap            0.0002341 Eh            0.0064 eV

Wiberg/Mayer (AO) data.
largest (>0.10) Wiberg bond orders for each atom

     #   Z sym  total        # sym  WBO       # sym  WBO       # sym  WBO
 ---------------------------------------------------------------------------
     1  27 Co   3.054 --     7 N    0.642    34 N    0.639    35 N    0.638
                            12 N    0.635
     2   6 C    3.929 --     3 C    1.366    33 C    1.363    46 H    0.970
     3   6 C    3.926 --     2 C    1.366     7 N    1.201     4 C    1.173
     4   6 C    3.960 --     5 C    1.650     3 C    1.173    47 H    0.976
     5   6 C    3.963 --     4 C    1.650     6 C    1.177    48 H    0.974
     6   6 C    3.918 --     8 C    1.324     7 N    1.211     5 C    1.177
     7   7 N    3.347 --     6 C    1.211     3 C    1.201     1 Co   0.642
     8   6 C    3.933 --     9 C    1.339     6 C    1.324    36 C    1.013
     9   6 C    3.915 --     8 C    1.339    12 N    1.189    10 C    1.181
    10   6 C    3.959 --    11 C    1.638     9 C    1.181    49 H    0.974
    11   6 C    3.962 --    10 C    1.638    13 C    1.190    50 H    0.974
    12   7 N    3.351 --    13 C    1.234     9 C    1.189     1 Co   0.635
    13   6 C    3.905 --    14 C    1.256    12 N    1.234    11 C    1.190
    14   6 C    3.935 --    15 C    1.262    13 C    1.256   148 C    1.190
    15   6 C    3.905 --    14 C    1.262    35 N    1.230    16 C    1.188
    16   6 C    3.962 --    17 C    1.640    15 C    1.188    51 H    0.974
    17   6 C    3.959 --    16 C    1.640    18 C    1.182    52 H    0.974
    18   6 C    3.916 --    19 C    1.336    35 N    1.192    17 C    1.182
    19   6 C    3.933 --    18 C    1.336    30 C    1.324    20 C    1.018
    20   6 C    3.976 --    27 C    1.341    21 C    1.341    19 C    1.018
                            25 C    0.100
    21   6 C    3.903 --    24 C    1.362    20 C    1.341    22 O    1.033
    22   8 O    2.146 --    21 C    1.033    23 C    0.935
    23   6 C    3.907 --    54 H    0.983    55 H    0.980    53 H    0.980
                            22 O    0.935
    24   6 C    3.983 --    25 C    1.442    21 C    1.362    56 H    0.969
    25   6 C    3.992 --    26 C    1.442    24 C    1.442    57 H    0.974
                            20 C    0.100
    26   6 C    3.983 --    25 C    1.442    27 C    1.362    58 H    0.969
    27   6 C    3.903 --    26 C    1.362    20 C    1.341    28 O    1.032
    28   8 O    2.146 --    27 C    1.032    29 C    0.935
    29   6 C    3.907 --    59 H    0.983    60 H    0.980    61 H    0.980
                            28 O    0.935
    30   6 C    3.919 --    19 C    1.324    34 N    1.209    31 C    1.177
    31   6 C    3.963 --    32 C    1.650    30 C    1.177    62 H    0.974
    32   6 C    3.960 --    31 C    1.650    33 C    1.174    63 H    0.976
    33   6 C    3.926 --     2 C    1.363    34 N    1.204    32 C    1.174
    34   7 N    3.348 --    30 C    1.209    33 C    1.204     1 Co   0.639
    35   7 N    3.349 --    15 C    1.230    18 C    1.192     1 Co   0.638
    36   6 C    3.977 --    43 C    1.344    37 C    1.343     8 C    1.013
                            41 C    0.101
    37   6 C    3.903 --    40 C    1.362    36 C    1.343    38 O    1.031
    38   8 O    2.146 --    37 C    1.031    39 C    0.935
    39   6 C    3.907 --    64 H    0.983    65 H    0.980    66 H    0.980
                            38 O    0.935
    40   6 C    3.983 --    41 C    1.442    37 C    1.362    67 H    0.969
    41   6 C    3.993 --    42 C    1.442    40 C    1.442    68 H    0.974
                            36 C    0.101
    42   6 C    3.983 --    41 C    1.442    43 C    1.361    69 H    0.969
    43   6 C    3.903 --    42 C    1.361    36 C    1.344    44 O    1.031
    44   8 O    2.145 --    43 C    1.031    45 C    0.935
    45   6 C    3.907 --    71 H    0.983    70 H    0.980    72 H    0.980
                            44 O    0.935
    46   1 H    1.001 --     2 C    0.970
    47   1 H    0.998 --     4 C    0.976
    48   1 H    1.002 --     5 C    0.974
    49   1 H    1.002 --    10 C    0.974
    50   1 H    1.002 --    11 C    0.974
    51   1 H    1.002 --    16 C    0.974
    52   1 H    1.002 --    17 C    0.974
    53   1 H    1.009 --    23 C    0.980
    54   1 H    1.015 --    23 C    0.983
    55   1 H    1.009 --    23 C    0.980
    56   1 H    1.000 --    24 C    0.969
    57   1 H    1.003 --    25 C    0.974
    58   1 H    1.000 --    26 C    0.969
    59   1 H    1.015 --    29 C    0.983
    60   1 H    1.009 --    29 C    0.980
    61   1 H    1.009 --    29 C    0.980
    62   1 H    1.002 --    31 C    0.974
    63   1 H    0.998 --    32 C    0.976
    64   1 H    1.015 --    39 C    0.983
    65   1 H    1.009 --    39 C    0.980
    66   1 H    1.009 --    39 C    0.980
    67   1 H    1.000 --    40 C    0.969
    68   1 H    1.003 --    41 C    0.974
    69   1 H    1.000 --    42 C    0.969
    70   1 H    1.009 --    45 C    0.980
    71   1 H    1.015 --    45 C    0.983
    72   1 H    1.009 --    45 C    0.980
    73  27 Co   3.053 --    79 N    0.642   106 N    0.639   107 N    0.638
                            84 N    0.635
    74   6 C    3.929 --    75 C    1.366   105 C    1.363   118 H    0.970
    75   6 C    3.926 --    74 C    1.366    79 N    1.202    76 C    1.173
    76   6 C    3.960 --    77 C    1.650    75 C    1.173   119 H    0.976
    77   6 C    3.963 --    76 C    1.650    78 C    1.177   120 H    0.974
    78   6 C    3.918 --    80 C    1.324    79 N    1.211    77 C    1.177
    79   7 N    3.347 --    78 C    1.211    75 C    1.202    73 Co   0.642
    80   6 C    3.933 --    81 C    1.339    78 C    1.324   108 C    1.013
    81   6 C    3.915 --    80 C    1.339    84 N    1.189    82 C    1.181
    82   6 C    3.959 --    83 C    1.638    81 C    1.181   121 H    0.974
    83   6 C    3.962 --    82 C    1.638    85 C    1.190   122 H    0.974
    84   7 N    3.351 --    85 C    1.234    81 C    1.189    73 Co   0.635
    85   6 C    3.905 --    86 C    1.256    84 N    1.234    83 C    1.190
    86   6 C    3.935 --    87 C    1.262    85 C    1.256   150 C    1.190
    87   6 C    3.905 --    86 C    1.262   107 N    1.230    88 C    1.188
    88   6 C    3.962 --    89 C    1.640    87 C    1.188   123 H    0.974
    89   6 C    3.959 --    88 C    1.640    90 C    1.182   124 H    0.974
    90   6 C    3.916 --    91 C    1.336   107 N    1.192    89 C    1.182
    91   6 C    3.933 --    90 C    1.336   102 C    1.324    92 C    1.017
    92   6 C    3.976 --    99 C    1.342    93 C    1.340    91 C    1.017
                            97 C    0.100
    93   6 C    3.903 --    96 C    1.362    92 C    1.340    94 O    1.033
    94   8 O    2.146 --    93 C    1.033    95 C    0.935
    95   6 C    3.907 --   126 H    0.983   127 H    0.980   125 H    0.980
                            94 O    0.935
    96   6 C    3.983 --    97 C    1.442    93 C    1.362   128 H    0.969
    97   6 C    3.992 --    98 C    1.442    96 C    1.442   129 H    0.974
                            92 C    0.100
    98   6 C    3.983 --    97 C    1.442    99 C    1.362   130 H    0.969
    99   6 C    3.903 --    98 C    1.362    92 C    1.342   100 O    1.032
   100   8 O    2.146 --    99 C    1.032   101 C    0.935
   101   6 C    3.907 --   131 H    0.983   132 H    0.980   133 H    0.980
                           100 O    0.935
   102   6 C    3.919 --    91 C    1.324   106 N    1.209   103 C    1.177
   103   6 C    3.963 --   104 C    1.650   102 C    1.177   134 H    0.974
   104   6 C    3.960 --   103 C    1.650   105 C    1.174   135 H    0.976
   105   6 C    3.926 --    74 C    1.363   106 N    1.204   104 C    1.174
   106   7 N    3.348 --   102 C    1.209   105 C    1.204    73 Co   0.639
   107   7 N    3.349 --    87 C    1.230    90 C    1.192    73 Co   0.638
   108   6 C    3.977 --   115 C    1.343   109 C    1.343    80 C    1.013
                           113 C    0.101
   109   6 C    3.903 --   112 C    1.362   108 C    1.343   110 O    1.031
   110   8 O    2.146 --   109 C    1.031   111 C    0.935
   111   6 C    3.907 --   136 H    0.983   137 H    0.980   138 H    0.980
                           110 O    0.935
   112   6 C    3.983 --   113 C    1.442   109 C    1.362   139 H    0.969
   113   6 C    3.993 --   114 C    1.442   112 C    1.442   140 H    0.974
                           108 C    0.101
   114   6 C    3.983 --   113 C    1.442   115 C    1.362   141 H    0.969
   115   6 C    3.903 --   114 C    1.362   108 C    1.343   116 O    1.031
   116   8 O    2.145 --   115 C    1.031   117 C    0.935
   117   6 C    3.907 --   143 H    0.983   142 H    0.980   144 H    0.980
                           116 O    0.935
   118   1 H    1.001 --    74 C    0.970
   119   1 H    0.998 --    76 C    0.976
   120   1 H    1.002 --    77 C    0.974
   121   1 H    1.002 --    82 C    0.974
   122   1 H    1.002 --    83 C    0.974
   123   1 H    1.002 --    88 C    0.974
   124   1 H    1.002 --    89 C    0.974
   125   1 H    1.009 --    95 C    0.980
   126   1 H    1.015 --    95 C    0.983
   127   1 H    1.009 --    95 C    0.980
   128   1 H    1.000 --    96 C    0.969
   129   1 H    1.003 --    97 C    0.974
   130   1 H    1.000 --    98 C    0.969
   131   1 H    1.015 --   101 C    0.983
   132   1 H    1.009 --   101 C    0.980
   133   1 H    1.009 --   101 C    0.980
   134   1 H    1.002 --   103 C    0.974
   135   1 H    0.998 --   104 C    0.976
   136   1 H    1.015 --   111 C    0.983
   137   1 H    1.009 --   111 C    0.980
   138   1 H    1.009 --   111 C    0.980
   139   1 H    1.000 --   112 C    0.969
   140   1 H    1.003 --   113 C    0.974
   141   1 H    1.000 --   114 C    0.969
   142   1 H    1.009 --   117 C    0.980
   143   1 H    1.015 --   117 C    0.983
   144   1 H    1.009 --   117 C    0.980
   145   6 C    3.922 --   146 C    2.363   149 C    1.337   148 C    0.189
   146   6 C    3.922 --   145 C    2.363   147 C    1.337   150 C    0.189
   147   6 C    3.931 --   148 C    2.445   146 C    1.337
   148   6 C    3.885 --   147 C    2.445    14 C    1.190   145 C    0.189
   149   6 C    3.931 --   150 C    2.445   145 C    1.337
   150   6 C    3.885 --   149 C    2.445    86 C    1.190   146 C    0.189
 ---------------------------------------------------------------------------

           -------------------------------------------------
          | TOTAL ENERGY             -264.058501771148 Eh   |
          | GRADIENT NORM               0.000586860079 Eh/α |
          | HOMO-LUMO GAP               0.006370735316 eV   |
           -------------------------------------------------

 * finished run on 2022/07/30 at 04:09:59.065
