   * xtb version 6.5.1 (b24c23e) compiled by 'conda@728c89f4b128' on 2022-07-12
          program call               : xtb Fe_PhCHO_C4_3.xyz --gfn 1 --opt -T 48

   ID    Z sym.   atoms
    1   26 Fe     1, 61, 129
    2    6 C      2-6, 8-13, 15-19, 21-26, 28-33, 35-40, 62-66, 68-73, 75-79,
                  81-86, 88-93, 95-100, 121-128, 130-134, 136-141, 143-147,
                  149-154, 156-161, 163-168
    3    7 N      7, 20, 27, 41, 67, 80, 87, 101, 135, 148, 155, 169
    4    8 O      14, 34, 74, 94, 142, 162
    5    1 H      42-60, 102-120, 170-187
########################################################################
[WARNING] Please study the warnings concerning your input carefully
-1- prog_main_parseArguments: Unknown option '-T' provided
########################################################################

          :  Hamiltonian                  GFN1-xTB          :
 * total energy  :  -336.4324211 Eh     change        0.3562616E-07 Eh
 * total energy  :  -337.4361310 Eh     change       -0.1003710E+01 Eh
 * total energy  :  -337.6424104 Eh     change       -0.2062795E+00 Eh
 * total energy  :  -337.7554046 Eh     change       -0.1129942E+00 Eh
 * total energy  :  -337.8175178 Eh     change       -0.6211322E-01 Eh
 * total energy  :  -337.8476846 Eh     change       -0.3016675E-01 Eh
 * total energy  :  -337.8657918 Eh     change       -0.1810719E-01 Eh
 * total energy  :  -337.8736103 Eh     change       -0.7818552E-02 Eh
 * total energy  :  -337.8820837 Eh     change       -0.8473409E-02 Eh
 * total energy  :  -337.8873037 Eh     change       -0.5219949E-02 Eh
 * total energy  :  -337.9046223 Eh     change       -0.1059917E-04 Eh
 * total energy  :  -337.9046121 Eh     change        0.1022486E-04 Eh
 * total energy  :  -337.9046276 Eh     change       -0.1546983E-04 Eh
 * total energy  :  -337.9046312 Eh     change       -0.3618460E-05 Eh
 * total energy  :  -337.9046400 Eh     change       -0.8865039E-05 Eh
 * total energy  :  -337.9046455 Eh     change       -0.5432903E-05 Eh
 * total energy  :  -337.9046564 Eh     change       -0.1094745E-04 Eh
 * total energy  :  -337.9046619 Eh     change       -0.5517781E-05 Eh
 * total energy  :  -337.9046657 Eh     change       -0.3713180E-05 Eh
   *** GEOMETRY OPTIMIZATION CONVERGED AFTER 76 ITERATIONS ***

 final structure:
================
187
 xtb: 6.5.1 (b24c23e)
Fe          32.06377153210951        0.02433377871295       -0.08004825873174
C           28.67644262974561        0.07124178704281       -0.25167805362051
C           29.32996334482390        1.27961601664416       -0.12878552538055
C           28.65097917207289        2.53750381800825       -0.04503815837465
C           29.60291397700099        3.47881321416156        0.15357002954454
C           30.86414342858628        2.79528931187121        0.17160301658873
N           30.68358272587924        1.45021471045617       -0.00172183379479
C           32.08490789174578        3.42648720390777        0.38598508892123
C           32.09617492057757        4.89244967972897        0.60351124395217
C           32.51124122333173        5.41895124975769        1.82994295837298
C           32.52407522522810        6.78559208773571        2.03264711328374
C           32.12822314410350        7.65595076369697        1.01174210894441
C           32.15816924709748        9.11085875423453        1.25069599922599
O           32.51210899549928        9.61101080705036        2.28735920228015
C           31.71547659648979        7.13013835387796       -0.21474643485521
C           31.69739288491068        5.76116191178688       -0.41545364388221
C           33.29663546777846        2.75149760040071        0.38806767445587
C           34.56699150046287        3.40000153325254        0.52837002014931
C           35.51254104370574        2.44170032489987        0.38234004550104
N           33.46915756271245        1.40541092249563        0.16739575091211
C           34.81784976749437        1.21273307925361        0.15668945425972
C           35.47506019168291       -0.00558028560526       -0.05623582739274
C           34.79845756029631       -1.21891161061958       -0.23182458407456
C           35.47295714126867       -2.46491399851803       -0.42267506723537
C           34.51367771883752       -3.41859965617141       -0.48727204164584
C           33.25534790138944       -2.74934767738979       -0.33692305979925
N           33.44760205009066       -1.39532973610320       -0.19977479710234
C           32.02959997127200       -3.39906591013331       -0.35716955216504
C           32.01830524496422       -4.87641408962312       -0.46419684252670
C           31.45136503984476       -5.50027467617978       -1.57869247962638
C           31.44711466023743       -6.88002281450836       -1.68202724741676
C           32.00509203793486       -7.66313621584070       -0.66885305451088
C           32.01215025299538       -9.13543132281183       -0.75430650205658
O           32.47703440758684       -9.85214272869694        0.09433946016636
C           32.57008685410198       -7.03861703180357        0.44793088752596
C           32.57995454416565       -5.66065083938470        0.54765674184190
C           30.81370522211204       -2.72549623291262       -0.30313331052147
C           29.53624878700576       -3.37812085261986       -0.32807937487155
C           28.59870402980397       -2.40200650444412       -0.32285291560603
C           29.30385927509594       -1.15692917705560       -0.27201779663764
N           30.65746622244814       -1.36753511392798       -0.24168154365379
H           27.59396896632242        0.08632563646916       -0.31120713841121
H           27.58213919290041        2.66164522052376       -0.11569211501757
H           29.47429374200161        4.54068933121549        0.28629389371516
H           32.81017604867198        4.74540931829157        2.62507079767324
H           32.84015828344192        7.20317334546688        2.98255338885818
H           31.82174730004127        9.72196650586302        0.38613929886127
H           31.41039276953289        7.79876402569116       -1.01314168005367
H           31.38873564322934        5.35563873064282       -1.37234566489398
H           34.70691566536281        4.45491091612763        0.69871746117462
H           36.58521406158665        2.54270060992407        0.41831656193327
H           36.54248820050402       -2.57900574791729       -0.49482151453072
H           34.63595195124697       -4.47895114714496       -0.63600700182887
H           31.02918328799385       -4.89418389393131       -2.37229258135142
H           31.01042764992676       -7.35655595402946       -2.55367501470728
H           31.54531833543097       -9.54072625020872       -1.67725815138772
H           32.99879464758312       -7.65512912396603        1.23070368756280
H           33.01027138971120       -5.17877237863827        1.41823799939668
H           29.38850189651635       -4.44567110398914       -0.34288064533911
H           27.52465447204226       -2.49637931062618       -0.34103553942775
Fe          58.89003552926661       -0.03872160405246       -0.10154768667620
C           62.27461375183348       -0.06154659063452       -0.30545343100410
C           61.62743823500141       -1.27740497177097       -0.22917252142950
C           62.30965541033090       -2.53568304828989       -0.19103006814816
C           61.35411743207730       -3.49325997049403       -0.14432368849361
C           60.08891411180014       -2.81758073375813       -0.17635946277862
N           60.27022606952711       -1.46136715192394       -0.19463902476918
C           58.86098194104302       -3.46926496561315       -0.22112049836605
C           58.84231144321002       -4.94988495728080       -0.25165566697387
C           58.24030134288233       -5.66594789481829        0.78736779214401
C           58.22091194155709       -7.04704217363163        0.76234116551716
C           58.79692000115502       -7.74328116262994       -0.30543219694042
C           58.75799640989957       -9.21731277202010       -0.31155956368149
O           58.24618899808918       -9.87625961866452        0.55685840923724
C           59.39532674566300       -7.02842921727055       -1.34573588820153
C           59.41995297038461       -5.64527550291135       -1.31718332496454
C           57.64871744351087       -2.79478859519934       -0.25489843494550
C           56.37941424371559       -3.44359568190277       -0.40140336372232
C           55.43803917912896       -2.47027744173077       -0.37231615020217
N           57.48167624228446       -1.43390561344997       -0.16270311157867
C           56.13436218436058       -1.23270188063854       -0.20644370788499
C           55.48084551391879       -0.00639040400617       -0.03388458628069
C           56.16215649381631        1.20207490878102        0.15618897029756
C           55.49397400836858        2.44809378545736        0.36818190686557
C           56.45757411908748        3.39647539150482        0.44457084499251
C           57.71279930166167        2.72468015415947        0.27841083062162
N           57.51336576264066        1.37406263958621        0.11617871688403
C           58.93199570161798        3.38043197983618        0.18943046161216
C           58.94998107381147        4.85627467609883        0.32331449669722
C           59.32028437947955        5.65727634506231       -0.75996226372379
C           59.33226992893859        7.03561847671804       -0.63924768353524
C           58.97927595039585        7.63883270943939        0.57014327753705
C           58.98619638886525        9.10541306165499        0.72534941794934
O           58.69771465317253        9.67079268193216        1.74861682775708
C           58.61114440346327        6.83637345144966        1.65503818750000
C           58.59339464273891        5.46021835794075        1.53227923559059
C           60.13496091416644        2.71951434550652       -0.03695667932985
C           61.40442745439842        3.38043866683227       -0.13811283829391
C           62.33789290215444        2.41302128029533       -0.29438032626235
C           61.64027542840820        1.16273742108172       -0.27067965685484
N           60.29232522608824        1.36333909038865       -0.12622251670965
H           63.35660481200841       -0.06823773169843       -0.37422679983008
H           63.38187559393027       -2.65050879992714       -0.19196134646320
H           61.48188554386314       -4.56216428134471       -0.09036362528698
H           57.80162775560068       -5.12806309807539        1.62017822343133
H           57.76104378145321       -7.61070502960806        1.56697458411210
H           59.24417872953713       -9.68273144686881       -1.19527338641014
H           59.84015962938860       -7.56099114205739       -2.18006484320758
H           59.87333699565278       -5.09252880202125       -2.13224897110028
H           56.23827148756948       -4.50522853921947       -0.52201648076476
H           54.36712053383336       -2.56643433039110       -0.44998659741714
H           54.42480893601417        2.56658654050976        0.43904973772576
H           56.33842242536712        4.45868131865600        0.58220222246620
H           59.58324920274391        5.19138765027531       -1.70294240399501
H           59.61560499910944        7.65116509177877       -1.48684700511487
H           59.28610046697950        9.65915250973928       -0.18979092040056
H           58.34094912032843        7.31394280774470        2.59075523491552
H           58.31668607010749        4.83955796447468        2.37696793140345
H           61.55133507174795        4.44679517215066       -0.08311796431229
H           63.40604676331082        2.51554521087296       -0.40106128131648
C           38.09944389883248       -0.02020961543085       -0.07407698051335
C           36.87514950322181       -0.01410699998317       -0.06960694033544
C           39.44462299352929       -0.02502302325700       -0.07077817614502
C           40.66911966349005       -0.02872650359138       -0.06382860095873
C           51.51054886591676        0.01623278706551       -0.02888094012627
C           50.28623196013499        0.01354174742696       -0.02560718908762
C           52.85616323989286        0.01389672111326       -0.03187447759732
C           54.08025391348821        0.00681665612539       -0.03155725142141
Fe          45.47728555344364       -0.01841114738671       -0.00999139709863
C           42.06775357141458       -0.02706807396121       -0.04889209920223
C           42.73549901913793        1.19651297773450        0.10031638176506
C           42.06280692432431        2.45302683498840        0.19958758320245
C           43.01155329002195        3.37882294587292        0.48403511493791
C           44.25815988058789        2.67886893749169        0.56616828676563
N           44.07767783430346        1.34830209571724        0.27895155294541
C           45.45830926730043        3.26250739946150        0.95579006639209
C           45.44868438564421        4.68066636468513        1.37833470922272
C           46.21539764156530        5.62817796058141        0.69310082961242
C           46.20258880140660        6.95215452567239        1.08741263375804
C           45.42791324066938        7.35807122547067        2.17888776373919
C           45.43465405067538        8.77762016416497        2.58091027415558
O           46.07978895898283        9.62640116724238        2.02168629483371
C           44.66362048146171        6.41197769099179        2.86563259758293
C           44.67180889980688        5.08713777036707        2.46680518589264
C           46.66763778690524        2.57697519951841        0.95992605474726
C           47.91067921086473        3.13823030261590        1.39701912389418
C           48.87182520172614        2.22573004490640        1.11167255533730
N           46.86315995544159        1.30927706988720        0.46937758056716
C           48.20974608269404        1.10786296212364        0.51730535333118
C           48.88707190921460        0.00381684958486       -0.01817162183191
C           48.22108459052326       -1.11350382664292       -0.54025955755727
C           48.89540464198158       -2.23200319713034       -1.11952022250494
C           47.94620427161986       -3.16469884012389       -1.37850456686270
C           46.69758833814394       -2.61247095709798       -0.94618940417539
N           46.87776622186309       -1.33370300253903       -0.47978923644752
C           45.49532312494273       -3.31069786761719       -0.93730760412049
C           45.50489848403676       -4.73469807302187       -1.33997558249427
C           46.27314464124051       -5.66356762478511       -0.63255733014859
C           46.28564017083592       -6.99462778646670       -1.01006666624560
C           45.53479220875045       -7.42158582092254       -2.10770709850888
C           45.53639058957006       -8.83319977911274       -2.53657122314185
O           44.90885258536711       -9.24539800176728       -3.47772799243030
C           44.76712082780871       -6.49187234285289       -2.81663560212188
C           44.74931975976670       -5.16417302943694       -2.43532958546540
C           44.28490919857075       -2.73033643330068       -0.57652524497113
C           43.04017031939295       -3.43579712486850       -0.51342938504292
C           42.07963165087596       -2.51015345621179       -0.27131680991536
C           42.74355483813655       -1.24883345415469       -0.17416118682036
N           44.09047175293183       -1.39605675878397       -0.31592499453311
H           41.00191774964535        2.59377694239589        0.06991120764000
H           42.88734312305332        4.44042817799750        0.62210212844195
H           46.80637111575890        5.31859066882186       -0.16139361175938
H           46.79001176369229        7.69466466302743        0.55806496528698
H           44.78936454969205        9.00728294281389        3.45521435617937
H           44.06236322305808        6.71786914506505        3.71556221806179
H           44.08753095769223        4.35231701035301        3.00906807491766
H           48.02448296930894        4.10325612009404        1.86305486249947
H           49.93423469582778        2.29036884234653        1.28262765803500
H           49.95745450862019       -2.28444422560760       -1.29678201449317
H           48.07126457060411       -4.13724673606861       -1.82571348872605
H           46.84801625091754       -5.33649983179705        0.22646853044375
H           46.88076159042308       -7.71012249028913       -0.45207961553681
H           46.17473684501626       -9.49779688823969       -1.91650678508608
H           44.18951172684620       -6.83228507724759       -3.66932423435173
H           44.16407378893825       -4.44312092946087       -2.99463263490235
H           42.92483642976494       -4.50023053664238       -0.63644363261366
H           41.01632124742702       -2.65418415888492       -0.16756839940611

          :  Hamiltonian                  GFN1-xTB          :
         :: total energy            -337.904665661855 Eh    ::
         :: gradient norm              0.000836610954 Eh/a0 ::
         :: HOMO-LUMO gap              0.050750093933 eV    ::
         :: SCC energy              -343.173126538251 Eh    ::
         :: repulsion energy           5.439068386425 Eh    ::

    * Orbital Energies and Occupations

         #    Occupation            Energy/Eh            Energy/eV
      -------------------------------------------------------------
         1        2.0000           -0.7954371             -21.6449
       ...           ...                  ...                  ...
       296        2.0000           -0.4107717             -11.1777
       297        2.0000           -0.4105290             -11.1711
       298        1.9997           -0.4056544             -11.0384
       299        1.9931           -0.4025209             -10.9532
       300        1.9921           -0.4023953             -10.9497
       301        1.9908           -0.4022452             -10.9456
       302        1.9672           -0.4010287             -10.9125
       303        1.9600           -0.4008348             -10.9073
       304        1.9548           -0.4007177             -10.9041
       305        1.9530           -0.4006784             -10.9030
       306        1.9504           -0.4006273             -10.9016
       307        1.9483           -0.4005868             -10.9005
       308        1.2422           -0.3976079             -10.8195 (HOMO)
       309        0.3742           -0.3957428             -10.7687 (LUMO)
       310        0.3399           -0.3956315             -10.7657
       311        0.3342           -0.3956121             -10.7652
       312                         -0.3586365              -9.7590
       313                         -0.3478547              -9.4656
       314                         -0.3471996              -9.4478
       315                         -0.3445217              -9.3749
       316                         -0.3443550              -9.3704
       317                         -0.3384615              -9.2100
       318                         -0.3318918              -9.0312
       319                         -0.3295084              -8.9664
       ...                                ...                  ...
       651                          1.4959488              40.7068
      -------------------------------------------------------------
                  HL-Gap            0.0018650 Eh            0.0508 eV

Wiberg/Mayer (AO) data.
largest (>0.10) Wiberg bond orders for each atom

     #   Z sym  total        # sym  WBO       # sym  WBO       # sym  WBO
 ---------------------------------------------------------------------------
     1  26 Fe   3.084 --    41 N    0.662     7 N    0.661    20 N    0.655
                            27 N    0.654
     2   6 C    3.917 --     3 C    1.363    40 C    1.363    42 H    0.970
     3   6 C    3.924 --     2 C    1.363     7 N    1.210     4 C    1.172
     4   6 C    3.959 --     5 C    1.651     3 C    1.172    43 H    0.975
     5   6 C    3.962 --     4 C    1.651     6 C    1.174    44 H    0.972
     6   6 C    3.920 --     8 C    1.311     7 N    1.228     5 C    1.174
     7   7 N    3.377 --     6 C    1.228     3 C    1.210     1 Fe   0.661
     8   6 C    3.919 --    17 C    1.336     6 C    1.311     9 C    1.027
     9   6 C    3.986 --    16 C    1.385    10 C    1.382     8 C    1.027
    10   6 C    3.987 --    11 C    1.470     9 C    1.382    45 H    0.972
                            15 C    0.100
    11   6 C    3.988 --    10 C    1.470    12 C    1.371    46 H    0.968
                            16 C    0.101
    12   6 C    3.984 --    15 C    1.379    11 C    1.371    13 C    1.048
    13   6 C    3.864 --    14 O    1.809    12 C    1.048    47 H    0.942
    14   8 O    2.005 --    13 C    1.809
    15   6 C    3.993 --    16 C    1.464    12 C    1.379    48 H    0.971
                            10 C    0.100
    16   6 C    3.987 --    15 C    1.464     9 C    1.385    49 H    0.972
                            11 C    0.101
    17   6 C    3.917 --     8 C    1.336    20 N    1.200    18 C    1.177
    18   6 C    3.956 --    19 C    1.640    17 C    1.177    50 H    0.973
    19   6 C    3.960 --    18 C    1.640    21 C    1.187    51 H    0.973
    20   7 N    3.376 --    21 C    1.250    17 C    1.200     1 Fe   0.655
    21   6 C    3.903 --    20 N    1.250    22 C    1.248    19 C    1.187
    22   6 C    3.916 --    23 C    1.249    21 C    1.248   122 C    1.207
    23   6 C    3.903 --    22 C    1.249    27 N    1.248    24 C    1.187
    24   6 C    3.960 --    25 C    1.640    23 C    1.187    52 H    0.973
    25   6 C    3.956 --    24 C    1.640    26 C    1.178    53 H    0.973
    26   6 C    3.917 --    28 C    1.334    27 N    1.201    25 C    1.178
    27   7 N    3.376 --    23 C    1.248    26 C    1.201     1 Fe   0.654
    28   6 C    3.919 --    26 C    1.334    37 C    1.311    29 C    1.030
    29   6 C    3.986 --    30 C    1.384    36 C    1.381    28 C    1.030
    30   6 C    3.987 --    31 C    1.464    29 C    1.384    54 H    0.972
                            35 C    0.101
    31   6 C    3.993 --    30 C    1.464    32 C    1.379    55 H    0.971
                            36 C    0.100
    32   6 C    3.984 --    31 C    1.379    35 C    1.371    33 C    1.048
    33   6 C    3.864 --    34 O    1.810    32 C    1.048    56 H    0.942
    34   8 O    2.005 --    33 C    1.810
    35   6 C    3.988 --    36 C    1.470    32 C    1.371    57 H    0.968
                            30 C    0.101
    36   6 C    3.987 --    35 C    1.470    29 C    1.381    58 H    0.972
                            31 C    0.100
    37   6 C    3.920 --    28 C    1.311    41 N    1.227    38 C    1.174
    38   6 C    3.961 --    39 C    1.650    37 C    1.174    59 H    0.972
    39   6 C    3.959 --    38 C    1.650    40 C    1.172    60 H    0.975
    40   6 C    3.924 --     2 C    1.363    41 N    1.210    39 C    1.172
    41   7 N    3.378 --    37 C    1.227    40 C    1.210     1 Fe   0.662
    42   1 H    1.000 --     2 C    0.970
    43   1 H    0.997 --     4 C    0.975
    44   1 H    1.004 --     5 C    0.972
    45   1 H    1.003 --    10 C    0.972
    46   1 H    1.005 --    11 C    0.968
    47   1 H    1.010 --    13 C    0.942
    48   1 H    1.000 --    15 C    0.971
    49   1 H    1.003 --    16 C    0.972
    50   1 H    1.004 --    18 C    0.973
    51   1 H    1.002 --    19 C    0.973
    52   1 H    1.002 --    24 C    0.973
    53   1 H    1.003 --    25 C    0.973
    54   1 H    1.003 --    30 C    0.972
    55   1 H    1.000 --    31 C    0.971
    56   1 H    1.010 --    33 C    0.942
    57   1 H    1.005 --    35 C    0.968
    58   1 H    1.003 --    36 C    0.972
    59   1 H    1.004 --    38 C    0.972
    60   1 H    0.997 --    39 C    0.975
    61  26 Fe   3.089 --    67 N    0.663   101 N    0.663    87 N    0.656
                            80 N    0.656
    62   6 C    3.918 --   100 C    1.364    63 C    1.362   102 H    0.970
    63   6 C    3.923 --    62 C    1.362    67 N    1.210    64 C    1.172
    64   6 C    3.959 --    65 C    1.650    63 C    1.172   103 H    0.975
    65   6 C    3.961 --    64 C    1.650    66 C    1.174   104 H    0.973
    66   6 C    3.920 --    68 C    1.312    67 N    1.226    65 C    1.174
    67   7 N    3.378 --    66 C    1.226    63 C    1.210    61 Fe   0.663
    68   6 C    3.920 --    77 C    1.332    66 C    1.312    69 C    1.030
    69   6 C    3.986 --    76 C    1.384    70 C    1.381    68 C    1.030
    70   6 C    3.987 --    71 C    1.471    69 C    1.381   105 H    0.972
                            75 C    0.100
    71   6 C    3.988 --    70 C    1.471    72 C    1.370   106 H    0.968
                            76 C    0.101
    72   6 C    3.984 --    75 C    1.379    71 C    1.370    73 C    1.048
    73   6 C    3.864 --    74 O    1.809    72 C    1.048   107 H    0.942
    74   8 O    2.005 --    73 C    1.809
    75   6 C    3.993 --    76 C    1.465    72 C    1.379   108 H    0.971
                            70 C    0.100
    76   6 C    3.987 --    75 C    1.465    69 C    1.384   109 H    0.972
                            71 C    0.101
    77   6 C    3.917 --    68 C    1.332    80 N    1.202    78 C    1.178
    78   6 C    3.956 --    79 C    1.639    77 C    1.178   110 H    0.973
    79   6 C    3.960 --    78 C    1.639    81 C    1.187   111 H    0.973
    80   7 N    3.377 --    81 C    1.246    77 C    1.202    61 Fe   0.656
    81   6 C    3.903 --    82 C    1.250    80 N    1.246    79 C    1.187
    82   6 C    3.917 --    81 C    1.250    83 C    1.250   128 C    1.204
    83   6 C    3.903 --    82 C    1.250    87 N    1.248    84 C    1.186
    84   6 C    3.960 --    85 C    1.641    83 C    1.186   112 H    0.973
    85   6 C    3.956 --    84 C    1.641    86 C    1.177   113 H    0.972
    86   6 C    3.917 --    88 C    1.336    87 N    1.200    85 C    1.177
    87   7 N    3.377 --    83 C    1.248    86 C    1.200    61 Fe   0.656
    88   6 C    3.920 --    86 C    1.336    97 C    1.311    89 C    1.027
    89   6 C    3.986 --    90 C    1.385    96 C    1.383    88 C    1.027
    90   6 C    3.987 --    91 C    1.464    89 C    1.385   114 H    0.972
                            95 C    0.101
    91   6 C    3.993 --    90 C    1.464    92 C    1.379   115 H    0.971
                            96 C    0.100
    92   6 C    3.984 --    91 C    1.379    95 C    1.371    93 C    1.048
    93   6 C    3.864 --    94 O    1.810    92 C    1.048   116 H    0.942
    94   8 O    2.005 --    93 C    1.810
    95   6 C    3.988 --    96 C    1.469    92 C    1.371   117 H    0.968
                            90 C    0.101
    96   6 C    3.987 --    95 C    1.469    89 C    1.383   118 H    0.972
                            91 C    0.100
    97   6 C    3.919 --    88 C    1.311   101 N    1.227    98 C    1.174
    98   6 C    3.961 --    99 C    1.651    97 C    1.174   119 H    0.972
    99   6 C    3.959 --    98 C    1.651   100 C    1.172   120 H    0.975
   100   6 C    3.923 --    62 C    1.364   101 N    1.209    99 C    1.172
   101   7 N    3.378 --    97 C    1.227   100 C    1.209    61 Fe   0.663
   102   1 H    1.000 --    62 C    0.970
   103   1 H    0.997 --    64 C    0.975
   104   1 H    1.004 --    65 C    0.973
   105   1 H    1.003 --    70 C    0.972
   106   1 H    1.005 --    71 C    0.968
   107   1 H    1.010 --    73 C    0.942
   108   1 H    1.000 --    75 C    0.971
   109   1 H    1.004 --    76 C    0.972
   110   1 H    1.003 --    78 C    0.973
   111   1 H    1.002 --    79 C    0.973
   112   1 H    1.002 --    84 C    0.973
   113   1 H    1.004 --    85 C    0.972
   114   1 H    1.003 --    90 C    0.972
   115   1 H    1.000 --    91 C    0.971
   116   1 H    1.010 --    93 C    0.942
   117   1 H    1.005 --    95 C    0.968
   118   1 H    1.003 --    96 C    0.972
   119   1 H    1.004 --    98 C    0.972
   120   1 H    0.997 --    99 C    0.975
   121   6 C    3.923 --   122 C    2.441   123 C    1.332
   122   6 C    3.910 --   121 C    2.441    22 C    1.207   124 C    0.195
   123   6 C    3.917 --   124 C    2.438   121 C    1.332
   124   6 C    3.913 --   123 C    2.438   130 C    1.213   122 C    0.195
   125   6 C    3.917 --   126 C    2.441   127 C    1.329
   126   6 C    3.913 --   125 C    2.441   150 C    1.210   128 C    0.195
   127   6 C    3.923 --   128 C    2.444   125 C    1.329
   128   6 C    3.909 --   127 C    2.444    82 C    1.204   126 C    0.195
   129  26 Fe   3.058 --   135 N    0.647   155 N    0.647   148 N    0.647
                           169 N    0.647
   130   6 C    3.901 --   131 C    1.244   168 C    1.244   124 C    1.213
   131   6 C    3.904 --   135 N    1.248   130 C    1.244   132 C    1.192
   132   6 C    3.959 --   133 C    1.633   131 C    1.192   170 H    0.973
   133   6 C    3.958 --   132 C    1.633   134 C    1.183   171 H    0.973
   134   6 C    3.914 --   136 C    1.319   135 N    1.205   133 C    1.183
   135   7 N    3.365 --   131 C    1.248   134 C    1.205   129 Fe   0.647
   136   6 C    3.911 --   145 C    1.320   134 C    1.319   137 C    1.035
   137   6 C    3.986 --   144 C    1.382   138 C    1.379   136 C    1.035
   138   6 C    3.986 --   139 C    1.470   137 C    1.379   172 H    0.971
                           143 C    0.100
   139   6 C    3.988 --   138 C    1.470   140 C    1.371   173 H    0.967
                           144 C    0.101
   140   6 C    3.983 --   143 C    1.380   139 C    1.371   141 C    1.046
   141   6 C    3.864 --   142 O    1.812   140 C    1.046   174 H    0.942
   142   8 O    2.006 --   141 C    1.812
   143   6 C    3.993 --   144 C    1.465   140 C    1.380   175 H    0.971
                           138 C    0.100
   144   6 C    3.986 --   143 C    1.465   137 C    1.382   176 H    0.972
                           139 C    0.101
   145   6 C    3.914 --   136 C    1.320   148 N    1.205   146 C    1.183
   146   6 C    3.958 --   147 C    1.633   145 C    1.183   177 H    0.973
   147   6 C    3.959 --   146 C    1.633   149 C    1.191   178 H    0.973
   148   7 N    3.365 --   149 C    1.248   145 C    1.205   129 Fe   0.647
   149   6 C    3.904 --   148 N    1.248   150 C    1.245   147 C    1.191
   150   6 C    3.901 --   151 C    1.245   149 C    1.245   126 C    1.210
   151   6 C    3.904 --   155 N    1.247   150 C    1.245   152 C    1.191
   152   6 C    3.959 --   153 C    1.633   151 C    1.191   179 H    0.973
   153   6 C    3.958 --   152 C    1.633   154 C    1.183   180 H    0.973
   154   6 C    3.914 --   156 C    1.319   155 N    1.206   153 C    1.183
   155   7 N    3.365 --   151 C    1.247   154 C    1.206   129 Fe   0.647
   156   6 C    3.911 --   165 C    1.321   154 C    1.319   157 C    1.034
   157   6 C    3.986 --   158 C    1.382   164 C    1.379   156 C    1.034
   158   6 C    3.986 --   159 C    1.464   157 C    1.382   181 H    0.972
                           163 C    0.101
   159   6 C    3.993 --   158 C    1.464   160 C    1.380   182 H    0.971
                           164 C    0.100
   160   6 C    3.983 --   159 C    1.380   163 C    1.371   161 C    1.047
   161   6 C    3.864 --   162 O    1.811   160 C    1.047   183 H    0.942
   162   8 O    2.006 --   161 C    1.811
   163   6 C    3.988 --   164 C    1.470   160 C    1.371   184 H    0.967
                           158 C    0.101
   164   6 C    3.986 --   163 C    1.470   157 C    1.379   185 H    0.972
                           159 C    0.100
   165   6 C    3.915 --   156 C    1.321   169 N    1.205   166 C    1.183
   166   6 C    3.958 --   167 C    1.633   165 C    1.183   186 H    0.973
   167   6 C    3.959 --   166 C    1.633   168 C    1.191   187 H    0.973
   168   6 C    3.904 --   169 N    1.249   130 C    1.244   167 C    1.191
   169   7 N    3.365 --   168 C    1.249   165 C    1.205   129 Fe   0.647
   170   1 H    1.001 --   132 C    0.973
   171   1 H    1.003 --   133 C    0.973
   172   1 H    1.004 --   138 C    0.971
   173   1 H    1.004 --   139 C    0.967
   174   1 H    1.010 --   141 C    0.942
   175   1 H    1.000 --   143 C    0.971
   176   1 H    1.004 --   144 C    0.972
   177   1 H    1.003 --   146 C    0.973
   178   1 H    1.001 --   147 C    0.973
   179   1 H    1.001 --   152 C    0.973
   180   1 H    1.003 --   153 C    0.973
   181   1 H    1.004 --   158 C    0.972
   182   1 H    1.000 --   159 C    0.971
   183   1 H    1.010 --   161 C    0.942
   184   1 H    1.004 --   163 C    0.967
   185   1 H    1.004 --   164 C    0.972
   186   1 H    1.003 --   166 C    0.973
   187   1 H    1.001 --   167 C    0.973
 ---------------------------------------------------------------------------

           -------------------------------------------------
          | TOTAL ENERGY             -337.904665661855 Eh   |
          | GRADIENT NORM               0.000836610954 Eh/α |
          | HOMO-LUMO GAP               0.050750093933 eV   |
           -------------------------------------------------

 * finished run on 2022/07/29 at 16:17:53.058
