   * xtb version 6.5.1 (b24c23e) compiled by 'conda@728c89f4b128' on 2022-07-12
          program call               : xtb Zn_Ph3Me_C4_3.xyz --gfn 1 --opt -T 48

   ID    Z sym.   atoms
    1   30 Zn     1, 75, 157
    2    6 C      2-6, 8-20, 22-27, 29-42, 76-80, 82-94, 96-101, 103-116,
                  149-156, 158-162, 164-176, 178-183, 185-198
    3    7 N      7, 21, 28, 43, 81, 95, 102, 117, 163, 177, 184, 199
    4    1 H      44-74, 118-148, 200-229

          :  Hamiltonian                  GFN1-xTB          :
 * total energy  :  -347.2634601 Eh     change       -0.1574335E-08 Eh
 * total energy  :  -347.7660877 Eh     change       -0.5026277E+00 Eh
 * total energy  :  -347.9339395 Eh     change       -0.1678518E+00 Eh
 * total energy  :  -348.0277106 Eh     change       -0.9377111E-01 Eh
 * total energy  :  -348.0844914 Eh     change       -0.5678074E-01 Eh
 * total energy  :  -348.1117667 Eh     change       -0.2727536E-01 Eh
 * total energy  :  -348.1278882 Eh     change       -0.1612148E-01 Eh
 * total energy  :  -348.1381466 Eh     change       -0.1025836E-01 Eh
 * total energy  :  -348.1431876 Eh     change       -0.5040995E-02 Eh
 * total energy  :  -348.1504371 Eh     change       -0.7249516E-02 Eh
 * total energy  :  -348.1868229 Eh     change       -0.1073169E-04 Eh
 * total energy  :  -348.1868329 Eh     change       -0.9988796E-05 Eh
 * total energy  :  -348.1868412 Eh     change       -0.8331786E-05 Eh
 * total energy  :  -348.1868487 Eh     change       -0.7552721E-05 Eh
 * total energy  :  -348.1868562 Eh     change       -0.7411620E-05 Eh
 * total energy  :  -348.1868652 Eh     change       -0.9008243E-05 Eh
 * total energy  :  -348.1868752 Eh     change       -0.1003982E-04 Eh
 * total energy  :  -348.1868869 Eh     change       -0.1165819E-04 Eh
 * total energy  :  -348.1868914 Eh     change       -0.4519152E-05 Eh
   *** GEOMETRY OPTIMIZATION CONVERGED AFTER 68 ITERATIONS ***

 final structure:
================
229
 xtb: 6.5.1 (b24c23e)
Zn          32.94538013427992        0.01523869281937       -0.01322885923685
C           29.52705872438844        0.07678663073745       -0.02241802403133
C           30.16709224227892        1.21147528992477        0.46313702493641
C           29.50815066952724        2.39069111880311        0.95394700088394
C           30.47841583405181        3.26097613072933        1.33110472655194
C           31.74224940095004        2.62288497880798        1.07513623801646
N           31.51851390082147        1.38374387664352        0.54989485434991
C           32.99642548352939        3.18510394794597        1.32672861984526
C           33.02267547988538        4.56160453596047        1.90373157716717
C           33.04033619723496        5.67305487141893        1.05632095702157
C           33.02862359362187        5.47810731633873       -0.43661083884253
C           33.06849561664001        6.95024405415291        1.60373082625021
C           33.07876957081489        7.13648102220745        2.98244681588084
C           33.13153985267799        8.52452200675519        3.56187654088589
C           33.06151578797996        6.02360395207555        3.81661710298130
C           33.03327644773309        4.73737429001406        3.29011621472101
C           33.01368727600660        3.53665284023439        4.19830667201007
C           34.22998921682405        2.57584580563524        1.08676424119331
C           35.50965714850946        3.17182517060336        1.35431697217980
C           36.45466262876670        2.26932724224932        0.98605190509579
N           34.42076298805446        1.32583472204723        0.56228215228498
C           35.76266835834912        1.11499228025074        0.48944396298964
C           36.38762248743112       -0.04657743395780       -0.00502073697064
C           35.72546922292607       -1.18610061798963       -0.50184011925944
C           36.37868595832162       -2.36491629927496       -0.99359082195663
C           35.40404103383700       -3.23354678023885       -1.36627495897791
C           34.14495496581246       -2.59184501656526       -1.10649908370965
N           34.37745805297741       -1.34906924828800       -0.58168618020307
C           32.89092793383099       -3.15508890022163       -1.35263584081457
C           32.86647945168328       -4.53335309598330       -1.92559746682103
C           32.89103460780722       -4.71531912500073       -3.31168964679925
C           32.93839221385202       -3.51869072566429       -4.22424459354680
C           32.86950006245920       -6.00305811773706       -3.83245429815612
C           32.82406040054755       -7.11306608330633       -2.99341920130084
C           32.79514959201460       -8.49868046871675       -3.58044031801186
C           32.79858899609010       -6.92084833704923       -1.61703042129426
C           32.81963023915941       -5.64041975270711       -1.07463012458117
C           32.79175875415782       -5.43909561923410        0.41724436042150
C           31.65701743498931       -2.54661705257008       -1.10792192291667
C           30.37253335121638       -3.13893687067329       -1.37093337142020
C           29.43199857204009       -2.23447252906551       -0.99900839181187
C           30.12993140740989       -1.07959741847335       -0.50447604200711
N           31.47489564202851       -1.29999866475144       -0.58409224208409
H           28.44158951809300        0.09544843408396       -0.02557685957078
H           28.43843969634549        2.52388930214270        0.99936018596561
H           30.36059027381333        4.24903776018307        1.74738240700338
H           32.12329956165486        4.94983364042745       -0.74211821870997
H           33.88576938251332        4.87743211264675       -0.74688467711792
H           33.06620058962243        6.43560112104365       -0.95534307239006
H           33.08204697945859        7.81296926086736        0.94557090697683
H           32.68904577300150        8.54757800587857        4.55798916158005
H           34.17006429910369        8.85402961147776        3.64327160314164
H           32.60145753602232        9.23193761707279        2.92349480096426
H           33.06947426527849        6.15928689459421        4.89325124005340
H           33.87707773735900        2.89840379516613        4.00073363362605
H           33.03442768409719        3.83882677265895        5.24498146698292
H           32.11384145012337        2.94388873989055        4.02256470206250
H           35.65705672460069        4.15590860242041        1.77005774679251
H           37.52717558674873        2.36864025272145        1.04087256570716
H           37.44735743155211       -2.50217565493913       -1.04200844608031
H           35.51841358325637       -4.22288827671010       -1.78001824179798
H           32.06294772130724       -2.88628922261904       -4.06401030335955
H           32.96112124899767       -3.82595676432754       -5.26940565746293
H           33.82598825050646       -2.91814557064892       -4.01625762097496
H           32.88917391403400       -6.14527818074538       -4.90813157108965
H           33.61754713064600       -8.63153364068202       -4.28533466437335
H           32.87728999208036       -9.25572879114484       -2.80066269432822
H           31.86010813060767       -8.65885607501171       -4.12123558764115
H           32.76292792154599       -7.77953059943035       -0.95448390593056
H           31.90133211055050       -4.87715269212131        0.70614799217007
H           33.66494210500713       -4.86847380208867        0.73920809226589
H           32.78590621722983       -6.39513642524904        0.93994460141902
H           30.22186702764685       -4.12200365884778       -1.78840205253759
H           28.35847743523372       -2.32928410336634       -1.05019288984045
Zn          59.94432718860974       -0.02903246831687       -0.05605811705411
C           63.36240309426801       -0.06564966407773       -0.09481254977683
C           62.72392355948967       -1.21325762077617       -0.55122913281496
C           63.38461029696561       -2.39741327229840       -1.02758478162265
C           62.41559690034334       -3.27922196843073       -1.38041529491987
C           61.15075913765062       -2.64289358880297       -1.12506818178612
N           61.37270092528731       -1.39432439528961       -0.62173953881175
C           59.89738878039547       -3.21298073447687       -1.36259371491193
C           59.87303808121951       -4.59770881927992       -1.91967401428821
C           59.88689467200025       -4.79551944043874       -3.30317193816724
C           59.93033998118612       -3.60944501290156       -4.22960452134754
C           59.86047237638464       -6.08967056023900       -3.80954694135286
C           59.82111377089335       -7.18919882733370       -2.95813489810781
C           59.77072755742806       -8.58502581343050       -3.51877753715354
C           59.80684450836177       -6.98106808580799       -1.58287553251469
C           59.83258313447297       -5.69531456345123       -1.05533464079462
C           59.81757096587592       -5.47694301518842        0.43431899193445
C           58.66290279089418       -2.60512721813618       -1.12376258399765
C           57.38394749011025       -3.20567089364600       -1.38447766485424
C           56.43773807118016       -2.30557056572706       -1.01342330381351
N           58.47053764753366       -1.35389373089251       -0.60284981359169
C           57.12833191369369       -1.14819376862586       -0.52192700292070
C           56.50217763329876        0.00934192336619       -0.01977872062039
C           57.16293290113619        1.15318901752099        0.46879712035800
C           56.50807870785118        2.32591742168652        0.97273469325815
C           57.48137184125353        3.20476537868269        1.32436658827550
C           58.74121657820295        2.57569598685973        1.03867987449016
N           58.51059870700431        1.32898468593835        0.52254320141216
C           59.99412418408545        3.15458203800144        1.25188793460430
C           60.01571471869539        4.53823670968282        1.81175468514969
C           59.98285466381206        5.63907556359892        0.95014413005353
C           59.92821517632088        5.42424471682814       -0.53909147989332
C           60.00197442280146        6.92288065683428        1.48042154966705
C           60.05281784020310        7.12737445390588        2.85657496453037
C           60.07962349800414        8.52761724257909        3.40787939268147
C           60.08566316770246        6.02611656058498        3.70402202973645
C           60.06728846005313        4.73223459011284        3.19423996320345
C           60.10280853662296        3.54349235576727        4.11759288903244
C           61.22884898183266        2.55658244943248        0.98644466104717
C           62.51240550518609        3.16557304906448        1.21338002375063
C           63.45421741469884        2.26396481443312        0.83775210089539
C           62.75797451689914        1.09455018720476        0.37603260501071
N           61.41276608522312        1.30407872535392        0.47743667718238
H           64.44791262683121       -0.07650515760248       -0.10708611889765
H           64.45455372602430       -2.52596136387098       -1.08028132519289
H           62.53487466858034       -4.27427352681357       -1.77926389376363
H           60.84131435900262       -3.03155068353634       -4.06159175199735
H           59.07925486146083       -2.95171664974419       -4.04308904751252
H           59.90557393512675       -3.92716546303934       -5.27158052289656
H           59.87131189997667       -6.24283695126972       -4.88381909656395
H           60.21401956087422       -9.29922738032609       -2.82445789618338
H           58.73267770231925       -8.87878576611178       -3.69171502226650
H           60.30121474793575       -8.64107595914372       -4.46971408687603
H           59.77594791795423       -7.83285064942587       -0.91120247845815
H           58.94797134586122       -4.88238137861246        0.72096575870255
H           59.78269299780637       -6.42662661517368        0.96740185866509
H           60.71104812697563       -4.93258298225393        0.74627267056067
H           57.23783200643019       -4.19027557913582       -1.79945602511375
H           55.36530852521221       -2.40821084529827       -1.06359017702202
H           55.43931689835911        2.45223255281250        1.04361855289780
H           57.36562143465613        4.19271367828974        1.74102634508037
H           60.80220640819213        4.86113677268938       -0.87231536358897
H           59.90212239672455        6.37561537439974       -1.06966119607715
H           59.03948434987931        4.84947256450558       -0.80667500359251
H           59.97602959071099        7.77781115152491        0.81250084038937
H           59.25555663933690        9.11450783234112        2.99882728656476
H           59.99910766497378        8.52185978923445        4.49479634395352
H           61.01334414926617        9.02243282789583        3.13261816418313
H           60.12502492651065        6.17493401014998        4.77820891884429
H           60.99472392309178        2.94333194752472        3.92684165189739
H           59.23130130423577        2.90763128863966        3.95064207516105
H           60.11115513412787        3.85950781736136        5.16034496881246
H           62.66159935958120        4.15743494329049        1.61006138838419
H           64.52755786058570        2.36983379969591        0.86583796657862
C           39.01733748109901       -0.07920339640776        0.00360908869910
C           37.79603508080247       -0.06820330161216       -0.00164261555267
C           40.36922621133383       -0.08627000159976        0.00722251469228
C           41.59061716793688       -0.08837235446289        0.00480245043456
C           52.52067842612814        0.02752073858295        0.00793256747590
C           51.29934532246682        0.02273810378465        0.01424460048227
C           53.87252917504497        0.02593732037527        0.00356184434339
C           55.09377114908256        0.02267850412797       -0.00660275437343
Zn          46.44577564164268       -0.04104391997952        0.01094588854854
C           42.99878680787160       -0.07993859975504        0.00813743890828
C           43.63935953733734        0.11202970261219        1.24800589398723
C           42.96406226716869        0.28760110349284        2.50106694047934
C           43.92234394198860        0.42458464197135        3.45338749565131
C           45.19244030270688        0.33561054920129        2.78882623184279
N           44.98407586403024        0.14695135928887        1.44926220101613
C           46.43599219263434        0.42684354827051        3.41768908943716
C           46.43383624737652        0.61595685870342        4.89856554545774
C           46.44167651307701        1.90438544571092        5.43931976742814
C           46.45050162831740        3.10105153192941        4.52569370906501
C           46.43995120932667        2.06693378257970        6.82010033989729
C           46.42970443381626        0.96531741814500        7.66878127803912
C           46.44711076356131        1.14857707694318        9.16252719331009
C           46.42268946889509       -0.31326770883933        7.11969777666543
C           46.42411954349563       -0.49851029255317        5.74247674876052
C           46.41511481225333       -1.88458620206508        5.15459759786065
C           47.68216031444489        0.35573658678505        2.79118542635015
C           48.94876266536841        0.45915628189078        3.46022240387734
C           49.91181632777504        0.34747396627209        2.50942586071174
N           47.89723830859452        0.18192202252685        1.45065330176825
C           49.24310799074056        0.17284444819292        1.25286915530969
C           49.89125460287936        0.00830524534165        0.01319148191993
C           49.25059246506807       -0.17330472005883       -1.22818554067795
C           49.92559778802689       -0.32771991618895       -2.48409102026800
C           48.96732503968501       -0.46911844485242       -3.43579377041011
C           47.69756220043570       -0.40419738061813       -2.76793999744522
N           47.90596601822738       -0.22273185261696       -1.42741026254968
C           46.45422183332796       -0.51231362239341       -3.39459969289064
C           46.45748960378848       -0.70188720293064       -4.87540767133382
C           46.40695987785472        0.41152636080622       -5.71921216126576
C           46.34900418846380        1.79642629907728       -5.13133932556551
C           46.40959366479649        0.22646198936163       -7.09650196674569
C           46.46060598802399       -1.05095212287328       -7.64573659537156
C           46.48147280578506       -1.23439338076267       -9.13940459888735
C           46.51173951820709       -2.15157661366213       -6.79712137766630
C           46.51032547145029       -1.98921308361571       -5.41635704066086
C           46.56368374752993       -3.18511973565021       -4.50324215871821
C           45.20833589532947       -0.45353367423858       -2.76638036179592
C           43.94195192624064       -0.57290250512750       -3.43313278797695
C           42.97888800132130       -0.45506684472215       -2.48308478144528
C           43.64734535687843       -0.26227603286336       -1.22901051504346
N           44.99312843865413       -0.26849349012370       -1.42729652422312
H           41.89309124051171        0.30142491069850        2.62752195720679
H           43.78936588901520        0.57430340218187        4.51305724952544
H           47.33692540583242        3.08421369303325        3.88859874418949
H           46.44878085452176        4.02847446281257        5.09763522927557
H           45.57296070512959        3.08803522661115        3.87635883081385
H           46.44509027305698        3.06791749996188        7.23912643484104
H           47.46949991840307        1.05759334844317        9.53675631941562
H           45.83948974373330        0.38718472852465        9.65278936587006
H           46.06958916438182        2.13314483661625        9.43902902272973
H           46.41458072424067       -1.17834030158929        7.77484856256409
H           45.53004861351952       -2.02563641609118        4.53115748768836
H           47.29404637580502       -2.03433306332459        4.52455973149764
H           46.41410842838511       -2.64086717382273        5.93901698709858
H           49.07618840946146        0.59877614551234        4.52193034741869
H           50.98210682107815        0.37811387569256        2.63867575254872
H           50.99636961908655       -0.32493169385314       -2.61288971371318
H           49.10011755335958       -0.60486382985299       -4.49736060843732
H           45.45322987161629        1.90971928380763       -4.51756037412129
H           46.33273793048078        2.55258714739560       -5.91569592735253
H           47.21590649503774        1.97316066538906       -4.49178338423815
H           46.36959444188436        1.09085045247409       -7.75137311774225
H           46.11194139159497       -2.22202823071531       -9.41590556484116
H           47.50379773450030       -1.13628381854946       -9.51206568184037
H           45.86891091476105       -0.47793349050267       -9.63102301980139
H           46.55146910044012       -3.15170439484545       -7.21634886528259
H           46.58460602143392       -4.11206682294148       -5.07559341025810
H           45.69248793888187       -3.19870202193178       -3.84548703274102
H           47.45534510605845       -3.14175940747191       -3.87474523311560
H           43.81479333963272       -0.72751639368892       -4.49279566660253
H           41.90873810024910       -0.49301408821106       -2.61151359440547

          :  Hamiltonian                  GFN1-xTB          :
         :: total energy            -348.186891389726 Eh    ::
         :: gradient norm              0.000618839571 Eh/a0 ::
         :: HOMO-LUMO gap              1.082036422785 eV    ::
         :: SCC energy              -353.847519001832 Eh    ::
         :: repulsion energy           5.868146900130 Eh    ::

    * Orbital Energies and Occupations

         #    Occupation            Energy/Eh            Energy/eV
      -------------------------------------------------------------
         1        2.0000           -0.7573876             -20.6096
       ...           ...                  ...                  ...
       311        2.0000           -0.4172880             -11.3550
       312        2.0000           -0.4172462             -11.3538
       313        2.0000           -0.4169041             -11.3445
       314        2.0000           -0.4168474             -11.3430
       315        2.0000           -0.4155051             -11.3065
       316        2.0000           -0.4151467             -11.2967
       317        2.0000           -0.4111492             -11.1879
       318        2.0000           -0.3908591             -10.6358
       319        2.0000           -0.3901438             -10.6164
       320        2.0000           -0.3901106             -10.6154
       321        2.0000           -0.3817148             -10.3870
       322        2.0000           -0.3782216             -10.2919
       323        2.0000           -0.3730129             -10.1502 (HOMO)
       324                         -0.3332488              -9.0682 (LUMO)
       325                         -0.3266143              -8.8876
       326                         -0.3230659              -8.7911
       327                         -0.3213949              -8.7456
       328                         -0.3208945              -8.7320
       329                         -0.3208618              -8.7311
       330                         -0.2943646              -8.0101
       331                         -0.2877906              -7.8312
       332                         -0.2867881              -7.8039
       333                         -0.2530511              -6.8859
       334                         -0.2529720              -6.8837
       ...                                ...                  ...
       732                          1.5224648              41.4284
      -------------------------------------------------------------
                  HL-Gap            0.0397641 Eh            1.0820 eV

Wiberg/Mayer (AO) data.
largest (>0.10) Wiberg bond orders for each atom

     #   Z sym  total        # sym  WBO       # sym  WBO       # sym  WBO
 ---------------------------------------------------------------------------
     1  30 Zn   2.002 --    43 N    0.461     7 N    0.460    21 N    0.458
                            28 N    0.457
     2   6 C    3.929 --     3 C    1.357    42 C    1.357    44 H    0.972
     3   6 C    3.923 --     2 C    1.357     7 N    1.235     4 C    1.170
     4   6 C    3.960 --     5 C    1.660     3 C    1.170    45 H    0.976
     5   6 C    3.964 --     4 C    1.660     6 C    1.171    46 H    0.975
     6   6 C    3.919 --     8 C    1.321     7 N    1.240     5 C    1.171
     7   7 N    3.295 --     6 C    1.240     3 C    1.235     1 Zn   0.460
     8   6 C    3.935 --    18 C    1.329     6 C    1.321     9 C    1.003
     9   6 C    3.987 --    16 C    1.382    10 C    1.381     8 C    1.003
                            13 C    0.104
    10   6 C    3.984 --    12 C    1.421     9 C    1.381    11 C    1.020
                            15 C    0.103
    11   6 C    3.995 --    10 C    1.020    49 H    0.986    48 H    0.974
                            47 H    0.974
    12   6 C    3.993 --    10 C    1.421    13 C    1.413    50 H    0.970
                            16 C    0.103
    13   6 C    3.988 --    15 C    1.415    12 C    1.413    14 C    1.020
                             9 C    0.104
    14   6 C    3.996 --    13 C    1.020    51 H    0.984    53 H    0.982
                            52 H    0.972
    15   6 C    3.993 --    16 C    1.420    13 C    1.415    54 H    0.970
                            10 C    0.103
    16   6 C    3.984 --    15 C    1.420     9 C    1.382    17 C    1.020
                            12 C    0.103
    17   6 C    3.995 --    16 C    1.020    56 H    0.986    55 H    0.974
                            57 H    0.974
    18   6 C    3.914 --     8 C    1.329    21 N    1.223    19 C    1.177
    19   6 C    3.962 --    20 C    1.648    18 C    1.177    58 H    0.975
    20   6 C    3.962 --    19 C    1.648    22 C    1.185    59 H    0.974
    21   7 N    3.299 --    22 C    1.261    18 C    1.223     1 Zn   0.458
    22   6 C    3.906 --    21 N    1.261    23 C    1.260    20 C    1.185
    23   6 C    3.939 --    24 C    1.260    22 C    1.260   150 C    1.178
    24   6 C    3.906 --    28 N    1.261    23 C    1.260    25 C    1.184
    25   6 C    3.963 --    26 C    1.648    24 C    1.184    60 H    0.974
    26   6 C    3.962 --    25 C    1.648    27 C    1.177    61 H    0.975
    27   6 C    3.914 --    29 C    1.329    28 N    1.224    26 C    1.177
    28   7 N    3.298 --    24 C    1.261    27 C    1.224     1 Zn   0.457
    29   6 C    3.935 --    27 C    1.329    39 C    1.321    30 C    1.003
    30   6 C    3.987 --    37 C    1.385    31 C    1.378    29 C    1.003
                            34 C    0.104
    31   6 C    3.984 --    33 C    1.425    30 C    1.378    32 C    1.020
                            36 C    0.102
    32   6 C    3.995 --    31 C    1.020    63 H    0.986    62 H    0.974
                            64 H    0.974
    33   6 C    3.993 --    31 C    1.425    34 C    1.409    65 H    0.971
                            37 C    0.104
    34   6 C    3.988 --    36 C    1.419    33 C    1.409    35 C    1.020
                            30 C    0.104
    35   6 C    3.996 --    34 C    1.020    67 H    0.986    66 H    0.978
                            68 H    0.974
    36   6 C    3.993 --    34 C    1.419    37 C    1.416    69 H    0.970
                            31 C    0.102
    37   6 C    3.984 --    36 C    1.416    30 C    1.385    38 C    1.020
                            33 C    0.104
    38   6 C    3.995 --    37 C    1.020    72 H    0.986    71 H    0.974
                            70 H    0.974
    39   6 C    3.918 --    29 C    1.321    43 N    1.240    40 C    1.171
    40   6 C    3.964 --    41 C    1.659    39 C    1.171    73 H    0.975
    41   6 C    3.960 --    40 C    1.659    42 C    1.171    74 H    0.976
    42   6 C    3.923 --     2 C    1.357    43 N    1.234    41 C    1.171
    43   7 N    3.296 --    39 C    1.240    42 C    1.234     1 Zn   0.461
    44   1 H    1.002 --     2 C    0.972
    45   1 H    0.998 --     4 C    0.976
    46   1 H    1.002 --     5 C    0.975
    47   1 H    1.008 --    11 C    0.974
    48   1 H    1.008 --    11 C    0.974
    49   1 H    1.004 --    11 C    0.986
    50   1 H    1.000 --    12 C    0.970
    51   1 H    1.004 --    14 C    0.984
    52   1 H    1.006 --    14 C    0.972
    53   1 H    1.005 --    14 C    0.982
    54   1 H    1.000 --    15 C    0.970
    55   1 H    1.008 --    17 C    0.974
    56   1 H    1.004 --    17 C    0.986
    57   1 H    1.008 --    17 C    0.974
    58   1 H    1.002 --    19 C    0.975
    59   1 H    1.002 --    20 C    0.974
    60   1 H    1.002 --    25 C    0.974
    61   1 H    1.002 --    26 C    0.975
    62   1 H    1.008 --    32 C    0.974
    63   1 H    1.004 --    32 C    0.986
    64   1 H    1.008 --    32 C    0.974
    65   1 H    0.999 --    33 C    0.971
    66   1 H    1.005 --    35 C    0.978
    67   1 H    1.004 --    35 C    0.986
    68   1 H    1.006 --    35 C    0.974
    69   1 H    1.000 --    36 C    0.970
    70   1 H    1.008 --    38 C    0.974
    71   1 H    1.008 --    38 C    0.974
    72   1 H    1.004 --    38 C    0.986
    73   1 H    1.002 --    40 C    0.975
    74   1 H    0.998 --    41 C    0.976
    75  30 Zn   2.002 --   117 N    0.461    81 N    0.461    95 N    0.458
                           102 N    0.457
    76   6 C    3.929 --    77 C    1.357   116 C    1.357   118 H    0.972
    77   6 C    3.923 --    76 C    1.357    81 N    1.235    78 C    1.170
    78   6 C    3.961 --    79 C    1.659    77 C    1.170   119 H    0.976
    79   6 C    3.964 --    78 C    1.659    80 C    1.171   120 H    0.975
    80   6 C    3.919 --    82 C    1.321    81 N    1.240    79 C    1.171
    81   7 N    3.295 --    80 C    1.240    77 C    1.235    75 Zn   0.461
    82   6 C    3.935 --    92 C    1.329    80 C    1.321    83 C    1.003
    83   6 C    3.987 --    90 C    1.382    84 C    1.381    82 C    1.003
                            87 C    0.104
    84   6 C    3.984 --    86 C    1.421    83 C    1.381    85 C    1.020
                            89 C    0.103
    85   6 C    3.995 --    84 C    1.020   123 H    0.986   122 H    0.974
                           121 H    0.974
    86   6 C    3.993 --    84 C    1.421    87 C    1.414   124 H    0.970
                            90 C    0.103
    87   6 C    3.988 --    89 C    1.414    86 C    1.414    88 C    1.020
                            83 C    0.104
    88   6 C    3.996 --    87 C    1.020   125 H    0.983   127 H    0.983
                           126 H    0.971
    89   6 C    3.993 --    90 C    1.420    87 C    1.414   128 H    0.970
                            84 C    0.103
    90   6 C    3.984 --    89 C    1.420    83 C    1.382    91 C    1.020
                            86 C    0.103
    91   6 C    3.995 --    90 C    1.020   130 H    0.986   131 H    0.974
                           129 H    0.974
    92   6 C    3.914 --    82 C    1.329    95 N    1.223    93 C    1.177
    93   6 C    3.962 --    94 C    1.648    92 C    1.177   132 H    0.975
    94   6 C    3.963 --    93 C    1.648    96 C    1.185   133 H    0.974
    95   7 N    3.299 --    96 C    1.261    92 C    1.223    75 Zn   0.458
    96   6 C    3.906 --    95 N    1.261    97 C    1.260    94 C    1.185
    97   6 C    3.940 --    98 C    1.260    96 C    1.260   156 C    1.178
    98   6 C    3.906 --   102 N    1.261    97 C    1.260    99 C    1.184
    99   6 C    3.963 --   100 C    1.648    98 C    1.184   134 H    0.974
   100   6 C    3.962 --    99 C    1.648   101 C    1.177   135 H    0.975
   101   6 C    3.914 --   103 C    1.329   102 N    1.224   100 C    1.177
   102   7 N    3.298 --    98 C    1.261   101 C    1.224    75 Zn   0.457
   103   6 C    3.935 --   101 C    1.329   113 C    1.321   104 C    1.003
   104   6 C    3.987 --   111 C    1.385   105 C    1.378   103 C    1.003
                           108 C    0.104
   105   6 C    3.984 --   107 C    1.425   104 C    1.378   106 C    1.020
                           110 C    0.102
   106   6 C    3.995 --   105 C    1.020   137 H    0.986   136 H    0.974
                           138 H    0.974
   107   6 C    3.993 --   105 C    1.425   108 C    1.409   139 H    0.971
                           111 C    0.103
   108   6 C    3.988 --   110 C    1.419   107 C    1.409   109 C    1.020
                           104 C    0.104
   109   6 C    3.996 --   108 C    1.020   141 H    0.986   140 H    0.978
                           142 H    0.974
   110   6 C    3.993 --   108 C    1.419   111 C    1.416   143 H    0.970
                           105 C    0.102
   111   6 C    3.984 --   110 C    1.416   104 C    1.385   112 C    1.020
                           107 C    0.103
   112   6 C    3.995 --   111 C    1.020   146 H    0.986   145 H    0.974
                           144 H    0.974
   113   6 C    3.918 --   103 C    1.321   117 N    1.240   114 C    1.171
   114   6 C    3.964 --   115 C    1.659   113 C    1.171   147 H    0.975
   115   6 C    3.960 --   114 C    1.659   116 C    1.171   148 H    0.976
   116   6 C    3.923 --    76 C    1.357   117 N    1.235   115 C    1.171
   117   7 N    3.296 --   113 C    1.240   116 C    1.235    75 Zn   0.461
   118   1 H    1.002 --    76 C    0.972
   119   1 H    0.998 --    78 C    0.976
   120   1 H    1.002 --    79 C    0.975
   121   1 H    1.008 --    85 C    0.974
   122   1 H    1.008 --    85 C    0.974
   123   1 H    1.004 --    85 C    0.986
   124   1 H    1.000 --    86 C    0.970
   125   1 H    1.004 --    88 C    0.983
   126   1 H    1.006 --    88 C    0.971
   127   1 H    1.005 --    88 C    0.983
   128   1 H    1.000 --    89 C    0.970
   129   1 H    1.008 --    91 C    0.974
   130   1 H    1.004 --    91 C    0.986
   131   1 H    1.008 --    91 C    0.974
   132   1 H    1.002 --    93 C    0.975
   133   1 H    1.002 --    94 C    0.974
   134   1 H    1.002 --    99 C    0.974
   135   1 H    1.002 --   100 C    0.975
   136   1 H    1.008 --   106 C    0.974
   137   1 H    1.004 --   106 C    0.986
   138   1 H    1.008 --   106 C    0.974
   139   1 H    0.999 --   107 C    0.971
   140   1 H    1.005 --   109 C    0.978
   141   1 H    1.004 --   109 C    0.986
   142   1 H    1.006 --   109 C    0.974
   143   1 H    1.000 --   110 C    0.970
   144   1 H    1.008 --   112 C    0.974
   145   1 H    1.008 --   112 C    0.974
   146   1 H    1.004 --   112 C    0.986
   147   1 H    1.002 --   114 C    0.975
   148   1 H    0.998 --   115 C    0.976
   149   6 C    3.932 --   150 C    2.486   151 C    1.297
   150   6 C    3.919 --   149 C    2.486    23 C    1.178   152 C    0.197
   151   6 C    3.930 --   152 C    2.485   149 C    1.297
   152   6 C    3.920 --   151 C    2.485   158 C    1.179   150 C    0.197
   153   6 C    3.930 --   154 C    2.485   155 C    1.297
   154   6 C    3.920 --   153 C    2.485   179 C    1.179   156 C    0.196
   155   6 C    3.932 --   156 C    2.486   153 C    1.297
   156   6 C    3.919 --   155 C    2.486    97 C    1.178   154 C    0.196
   157  30 Zn   1.999 --   177 N    0.458   199 N    0.458   184 N    0.457
                           163 N    0.457
   158   6 C    3.929 --   198 C    1.258   159 C    1.258   152 C    1.179
   159   6 C    3.906 --   163 N    1.261   158 C    1.258   160 C    1.186
   160   6 C    3.961 --   161 C    1.646   159 C    1.186   200 H    0.974
   161   6 C    3.962 --   160 C    1.646   162 C    1.179   201 H    0.975
   162   6 C    3.912 --   164 C    1.326   163 N    1.223   161 C    1.179
   163   7 N    3.293 --   159 C    1.261   162 C    1.223   157 Zn   0.457
   164   6 C    3.931 --   162 C    1.326   174 C    1.325   165 C    1.003
   165   6 C    3.987 --   166 C    1.383   172 C    1.380   164 C    1.003
                           169 C    0.104
   166   6 C    3.984 --   168 C    1.419   165 C    1.383   167 C    1.020
                           171 C    0.103
   167   6 C    3.995 --   166 C    1.020   203 H    0.986   204 H    0.974
                           202 H    0.974
   168   6 C    3.993 --   166 C    1.419   169 C    1.416   205 H    0.970
                           172 C    0.102
   169   6 C    3.988 --   168 C    1.416   171 C    1.412   170 C    1.020
                           165 C    0.104
   170   6 C    3.996 --   169 C    1.020   208 H    0.984   207 H    0.981
                           206 H    0.972
   171   6 C    3.993 --   172 C    1.422   169 C    1.412   209 H    0.971
                           166 C    0.103
   172   6 C    3.984 --   171 C    1.422   165 C    1.380   173 C    1.020
                           168 C    0.102
   173   6 C    3.995 --   172 C    1.020   212 H    0.986   211 H    0.974
                           210 H    0.974
   174   6 C    3.912 --   164 C    1.325   177 N    1.223   175 C    1.179
   175   6 C    3.962 --   176 C    1.646   174 C    1.179   213 H    0.975
   176   6 C    3.961 --   175 C    1.646   178 C    1.186   214 H    0.974
   177   7 N    3.294 --   178 C    1.261   174 C    1.223   157 Zn   0.458
   178   6 C    3.907 --   177 N    1.261   179 C    1.258   176 C    1.186
   179   6 C    3.929 --   178 C    1.258   180 C    1.258   154 C    1.179
   180   6 C    3.906 --   184 N    1.261   179 C    1.258   181 C    1.186
   181   6 C    3.961 --   182 C    1.646   180 C    1.186   215 H    0.974
   182   6 C    3.962 --   181 C    1.646   183 C    1.179   216 H    0.975
   183   6 C    3.912 --   185 C    1.325   184 N    1.223   182 C    1.179
   184   7 N    3.293 --   180 C    1.261   183 C    1.223   157 Zn   0.457
   185   6 C    3.931 --   195 C    1.325   183 C    1.325   186 C    1.003
   186   6 C    3.987 --   193 C    1.383   187 C    1.380   185 C    1.003
                           190 C    0.104
   187   6 C    3.984 --   189 C    1.422   186 C    1.380   188 C    1.020
                           192 C    0.103
   188   6 C    3.995 --   187 C    1.020   218 H    0.986   219 H    0.974
                           217 H    0.974
   189   6 C    3.993 --   187 C    1.422   190 C    1.412   220 H    0.970
                           193 C    0.103
   190   6 C    3.988 --   192 C    1.416   189 C    1.412   191 C    1.020
                           186 C    0.104
   191   6 C    3.996 --   190 C    1.020   221 H    0.984   223 H    0.982
                           222 H    0.972
   192   6 C    3.993 --   193 C    1.419   190 C    1.416   224 H    0.970
                           187 C    0.103
   193   6 C    3.984 --   192 C    1.419   186 C    1.383   194 C    1.020
                           189 C    0.103
   194   6 C    3.995 --   193 C    1.020   225 H    0.986   226 H    0.974
                           227 H    0.974
   195   6 C    3.912 --   185 C    1.325   199 N    1.223   196 C    1.179
   196   6 C    3.962 --   197 C    1.646   195 C    1.179   228 H    0.975
   197   6 C    3.961 --   196 C    1.646   198 C    1.186   229 H    0.974
   198   6 C    3.906 --   199 N    1.261   158 C    1.258   197 C    1.186
   199   7 N    3.294 --   198 C    1.261   195 C    1.223   157 Zn   0.458
   200   1 H    1.002 --   160 C    0.974
   201   1 H    1.002 --   161 C    0.975
   202   1 H    1.008 --   167 C    0.974
   203   1 H    1.004 --   167 C    0.986
   204   1 H    1.008 --   167 C    0.974
   205   1 H    1.000 --   168 C    0.970
   206   1 H    1.006 --   170 C    0.972
   207   1 H    1.005 --   170 C    0.981
   208   1 H    1.004 --   170 C    0.984
   209   1 H    1.000 --   171 C    0.971
   210   1 H    1.008 --   173 C    0.974
   211   1 H    1.008 --   173 C    0.974
   212   1 H    1.004 --   173 C    0.986
   213   1 H    1.002 --   175 C    0.975
   214   1 H    1.002 --   176 C    0.974
   215   1 H    1.002 --   181 C    0.974
   216   1 H    1.002 --   182 C    0.975
   217   1 H    1.008 --   188 C    0.974
   218   1 H    1.004 --   188 C    0.986
   219   1 H    1.008 --   188 C    0.974
   220   1 H    1.000 --   189 C    0.970
   221   1 H    1.004 --   191 C    0.984
   222   1 H    1.006 --   191 C    0.972
   223   1 H    1.005 --   191 C    0.982
   224   1 H    1.000 --   192 C    0.970
   225   1 H    1.004 --   194 C    0.986
   226   1 H    1.008 --   194 C    0.974
   227   1 H    1.008 --   194 C    0.974
   228   1 H    1.002 --   196 C    0.975
   229   1 H    1.002 --   197 C    0.974
 ---------------------------------------------------------------------------

           -------------------------------------------------
          | TOTAL ENERGY             -348.186891389726 Eh   |
          | GRADIENT NORM               0.000618839571 Eh/α |
          | HOMO-LUMO GAP               1.082036422785 eV   |
           -------------------------------------------------

 * finished run on 2022/07/30 at 10:18:06.042
