   * xtb version 6.5.1 (b24c23e) compiled by 'conda@728c89f4b128' on 2022-07-12
          program call               : xtb Co_p-CP_C8_2.xyz --gfn 1 --opt -T 48

   ID    Z sym.   atoms
    1   27 Co     1, 63
    2    6 C      2-6, 8-11, 13-24, 27-32, 35-39, 42, 43, 64-68, 70-73,
                  75-86, 89-94, 97-101, 104, 105, 125-132
    3    7 N      7, 12, 33, 34, 69, 74, 95, 96
    4    8 O      25, 26, 40, 41, 87, 88, 102, 103
    5    1 H      44-62, 106-124
########################################################################
[WARNING] Please study the warnings concerning your input carefully
-1- prog_main_parseArguments: Unknown option '-T' provided
########################################################################

          :  Hamiltonian                  GFN1-xTB          :
 * total energy  :  -250.7665323 Eh     change        0.2387424E-09 Eh
 * total energy  :  -251.0169520 Eh     change       -0.2504197E+00 Eh
 * total energy  :  -251.0984264 Eh     change       -0.8147435E-01 Eh
 * total energy  :  -251.1320646 Eh     change       -0.3363826E-01 Eh
 * total energy  :  -251.1464335 Eh     change       -0.1436888E-01 Eh
 * total energy  :  -251.1532715 Eh     change       -0.6837987E-02 Eh
 * total energy  :  -251.1566405 Eh     change       -0.3368991E-02 Eh
 * total energy  :  -251.1568263 Eh     change       -0.1857780E-03 Eh
 * total energy  :  -251.1591184 Eh     change       -0.2292100E-02 Eh
 * total energy  :  -251.1597447 Eh     change       -0.6263414E-03 Eh
 * total energy  :  -251.1623842 Eh     change       -0.4027493E-04 Eh
 * total energy  :  -251.1624068 Eh     change       -0.2260657E-04 Eh
 * total energy  :  -251.1624205 Eh     change       -0.1366745E-04 Eh
 * total energy  :  -251.1624335 Eh     change       -0.1305112E-04 Eh
 * total energy  :  -251.1624508 Eh     change       -0.1720600E-04 Eh
 * total energy  :  -251.1624579 Eh     change       -0.7113752E-05 Eh
 * total energy  :  -251.1624653 Eh     change       -0.7397140E-05 Eh
 * total energy  :  -251.1624713 Eh     change       -0.6060949E-05 Eh
 * total energy  :  -251.1624761 Eh     change       -0.4773666E-05 Eh
   *** GEOMETRY OPTIMIZATION CONVERGED AFTER 37 ITERATIONS ***

 final structure:
================
132
 xtb: 6.5.1 (b24c23e)
Co          15.18868809204437       -0.10181389052181        0.00894050641941
C           11.81436158218993       -0.18393256739437        0.04803411697202
C           12.49086245025763       -0.45993917835710        1.21646737545146
C           11.84182357766626       -0.77915744466146        2.45170177759327
C           12.80096118291479       -0.77412226473357        3.40630210074365
C           14.03797991669467       -0.46369968467520        2.75070815790709
N           13.84259669420100       -0.31176898094244        1.40183029911278
C           15.22513344620567       -0.19190617366344        3.41759064478186
C           16.39957565770004        0.10298064425015        2.74261602380781
C           17.65446952504848        0.34027753379178        3.39105130508582
C           18.59871059409634        0.35948407912952        2.42060544798011
N           16.57152094847083        0.02578979358837        1.37855342220589
C           17.91964691726310        0.13463087678042        1.18406126087726
C           18.58350585062681       -0.06756738112286       -0.02880645737929
C           17.89074220613116       -0.24625259165032       -1.22870831724980
C           18.53676311695985       -0.46762770873977       -2.48331007184627
C           17.57260945663650       -0.40280277536256       -3.43283222831963
C           16.34097029663514       -0.13671448570639       -2.75291960340322
C           15.14100153923020        0.13289193957556       -3.39461994572893
C           15.12370093626437        0.22436023765523       -4.87167478720443
C           14.32850928301288       -0.64335932853142       -5.62533125838318
C           14.31954180360427       -0.56007111526018       -7.00536812800591
C           15.10091118188177        0.39553325170590       -7.65778606908188
C           15.05540408455660        0.44670653683817       -9.13895680982520
O           15.84212243716003        1.39591091405391       -9.66780173685427
O           14.38473028523467       -0.28277542482133       -9.82407814013250
C           15.89455468747308        1.26581484915332       -6.90987496778385
C           15.90651562141121        1.17701177954862       -5.52890951477686
C           13.95522680594212        0.30203158817443       -2.69274735051693
C           12.69358756515617        0.60364172418661       -3.30390714850909
C           11.75466164774018        0.49749353771586       -2.33484110270429
C           12.44563115572554        0.15026154129742       -1.13045445744711
N           13.79979155767200        0.09368750426246       -1.34581820245137
N           16.54163438972246       -0.09926122314032       -1.39234764173589
C           15.24259899087812       -0.23030978918295        4.89890751594121
C           15.02567155109262       -1.43237852997924        5.57647440547349
C           15.05027936609909       -1.46712240896692        6.95870937429423
C           15.28911920055835       -0.30073708139061        7.68772896263682
C           15.30729739824688       -0.38961020642226        9.16762335843454
O           15.55656262530548        0.78136574378687        9.77286377793567
O           15.11953475131701       -1.40373671728345        9.79014778594347
C           15.50339523655176        0.90246272347717        7.01477426914146
C           15.48152457621669        0.93466188359136        5.63123559702266
H           10.73137292626637       -0.21782333897606        0.06029698535296
H           10.78365070123099       -0.95814610494802        2.55678724735521
H           12.69087321546907       -0.94357290228248        4.46499647719854
H           17.78845716907714        0.44954134775557        4.45474849288877
H           19.66355455648877        0.49635636578812        2.51794407138401
H           19.59403868287155       -0.63962539611917       -2.60472376421378
H           17.67419994327298       -0.52535271250446       -4.49879004069695
H           13.73169943391021       -1.39506254278486       -5.12137236802726
H           13.70959728070472       -1.23436832875735       -7.59653210839968
H           15.75578478645417        1.36358822444481      -10.63441681976296
H           16.50032826335505        2.01087083949116       -7.41198810711817
H           16.51455478042008        1.86051224937879       -4.94701006014255
H           12.55843225290600        0.85805108684432       -4.34260457673834
H           10.68759830871549        0.63423113115127       -2.40890120397468
H           14.85416907820358       -2.34159835221318        5.01169740132463
H           14.88782642107768       -2.39756779998902        7.49163470467763
H           15.55164688203556        0.63828796503880       10.73323751482256
H           15.68641556083614        1.81067446313953        7.57675352603449
H           15.63722168806365        1.87138612638071        5.10811259008948
Co          33.71587556488260       -0.09916851778388       -0.02207640651699
C           37.09007227440744       -0.17713837427452       -0.07003097402886
C           36.41378362642037       -0.31645763745993       -1.26262442857033
C           37.06281379840685       -0.49197000154609       -2.52629924998603
C           36.10371609342899       -0.37725291168323       -3.47405131643400
C           34.86679625681749       -0.14348910315207       -2.78721168843807
N           35.06214132837929       -0.14741657314940       -1.42983751883759
C           33.68000800035775        0.20446603952622       -3.41845663246777
C           32.50590533338050        0.42117416242992       -2.71393072949039
C           31.25131017333739        0.73273387469554       -3.33072313916648
C           30.30687565288272        0.64000894727219       -2.36471317913872
N           32.33366504482671        0.18715041792780       -1.36787454192619
C           30.98559078413461        0.27342037696178       -1.16237868693819
C           30.32114926878959       -0.06753310088459        0.01876630859273
C           31.01334087175941       -0.38342899471980        1.19043030026366
C           30.36686632922183       -0.74733394180002        2.41104172542869
C           31.33072655048128       -0.79229250993991        3.36206569289652
C           32.56271813893468       -0.45053550638739        2.71748618192981
C           33.76291785601475       -0.25786061314389        3.38603059123480
C           33.78043002653612       -0.33765833341995        4.86374452784426
C           34.57550504932797       -1.28697856974300        5.51178038109209
C           34.58483894964415       -1.36387233521504        6.89218553741851
C           33.80385081069993       -0.48999100599117        7.65096076525220
C           33.84905378379470       -0.61117148219452        9.12806485986732
O           33.06172716736997        0.26975061385450        9.76340330737305
O           34.51979852880695       -1.41512701201067        9.72396838456343
C           33.01048309322360        0.46133791489643        7.00895569220606
C           32.99824768134471        0.53295881094998        5.62698172100551
C           34.94896799917475       -0.01002450562119        2.70839354239714
C           36.21074212917597        0.21810630902210        3.35037732748853
C           37.14972230980961        0.22413014819308        2.37560634994454
C           36.45870119457194        0.01882954142866        1.13910908645240
N           35.10449305100485       -0.06141287647143        1.34640570007599
N           32.36244140170256       -0.25664363803012        1.37032835351201
C           33.66259093288214        0.33660362363737       -4.89433117596893
C           33.87889274578389       -0.77971002533321       -5.70563502978159
C           33.85437179017310       -0.65525574368018       -7.08269538170401
C           33.61619491782056        0.58735216638151       -7.67275443444926
C           33.59796191315590        0.66926014857967       -9.15304527764965
O           33.35023479200025        1.90237011733551       -9.61960208468947
O           33.78478129538847       -0.26674521843561       -9.88807884338779
C           33.40248561985570        1.70529596799562       -6.86591818116171
C           33.42428614833184        1.57817450445336       -5.48785113228387
H           38.17306000194392       -0.20961566485611       -0.08592047274894
H           38.12093866176362       -0.65803009327764       -2.65122947913219
H           36.21382369057273       -0.42431182539385       -4.54518233242293
H           31.11755375291403        0.96443099444067       -4.37463950384338
H           29.24212794726935        0.78781141384524       -2.44565756859938
H           29.30947648677256       -0.93168123172043        2.51164035008939
H           31.22877292204745       -1.03628197134841        4.40689728766074
H           35.17188297402420       -1.97560296799387        4.92411866660897
H           35.19475398458185       -2.10219297483643        7.40117330005813
H           33.14760681264557        0.12510729077357       10.71972957530239
H           32.40513872246835        1.14357820148712        7.59402111827718
H           32.39046974197436        1.27952739420162        5.12825040373069
H           36.34598606794905        0.35070752612395        4.41150931473854
H           38.21686378150601        0.35069683784156        2.46500020604183
H           34.04980376320980       -1.74795932725582       -5.24918123455752
H           34.01634031292419       -1.51833453691466       -7.71908600931602
H           33.35510834332933        1.87063236351973      -10.59006809820914
H           33.21986547496068        2.67219538460377       -7.31970475961486
H           33.26905758481035        2.44861824460759       -4.86048631932768
C           19.98596137837984       -0.08203516465056       -0.04067211568530
C           21.21106694974817       -0.09181486646388       -0.03934723907740
C           22.55266348079924       -0.10159088847088       -0.03529172540525
C           23.78402734882130       -0.10644935145046       -0.01821470193933
C           25.12070849014886       -0.10555025667702       -0.00431221801236
C           26.35215906298075       -0.10280418782069        0.01296206817999
C           27.69369636009766       -0.09358071074186        0.02084947427163
C           28.91883950166588       -0.08468483588390        0.02697020068446

          :  Hamiltonian                  GFN1-xTB          :
         :: total energy            -251.162476098466 Eh    ::
         :: gradient norm              0.000724729080 Eh/a0 ::
         :: HOMO-LUMO gap              0.005956550588 eV    ::
         :: SCC energy              -254.930893560304 Eh    ::
         :: repulsion energy           3.883010319501 Eh    ::

    * Orbital Energies and Occupations

         #    Occupation            Energy/Eh            Energy/eV
      -------------------------------------------------------------
         1        2.0000           -0.8337619             -22.6878
       ...           ...                  ...                  ...
       212        2.0000           -0.4279721             -11.6457
       213        2.0000           -0.4196579             -11.4195
       214        2.0000           -0.4068222             -11.0702
       215        2.0000           -0.4068053             -11.0697
       216        2.0000           -0.4058966             -11.0450
       217        2.0000           -0.4057942             -11.0422
       218        2.0000           -0.4042163             -10.9993
       219        1.9998           -0.4023547             -10.9486
       220        1.9998           -0.4023476             -10.9484
       221        1.9998           -0.4022402             -10.9455
       222        1.9998           -0.4022353             -10.9454
       223        1.8808           -0.3962593             -10.7828
       224        1.1174           -0.3938629             -10.7176 (HOMO)
       225        1.0028           -0.3936440             -10.7116 (LUMO)
       226                         -0.3488379              -9.4924
       227                         -0.3395896              -9.2407
       228                         -0.3395613              -9.2399
       229                         -0.3390266              -9.2254
       230                         -0.3174995              -8.6396
       231                         -0.3159560              -8.5976
       232                         -0.3111855              -8.4678
       233                         -0.3100287              -8.4363
       234                         -0.3097997              -8.4301
       235                         -0.3073596              -8.3637
       ...                                ...                  ...
       462                          1.5932333              43.3541
      -------------------------------------------------------------
                  HL-Gap            0.0002189 Eh            0.0060 eV

Wiberg/Mayer (AO) data.
largest (>0.10) Wiberg bond orders for each atom

     #   Z sym  total        # sym  WBO       # sym  WBO       # sym  WBO
 ---------------------------------------------------------------------------
     1  27 Co   3.040 --    33 N    0.640     7 N    0.638    12 N    0.635
                            34 N    0.633
     2   6 C    3.930 --     3 C    1.366    32 C    1.365    44 H    0.970
     3   6 C    3.923 --     2 C    1.366     7 N    1.201     4 C    1.173
     4   6 C    3.960 --     5 C    1.651     3 C    1.173    45 H    0.975
     5   6 C    3.963 --     4 C    1.651     6 C    1.175    46 H    0.972
     6   6 C    3.919 --     8 C    1.319     7 N    1.213     5 C    1.175
     7   7 N    3.348 --     6 C    1.213     3 C    1.201     1 Co   0.638
     8   6 C    3.932 --     9 C    1.334     6 C    1.319    35 C    1.025
     9   6 C    3.915 --     8 C    1.334    12 N    1.192    10 C    1.180
    10   6 C    3.958 --    11 C    1.639     9 C    1.180    47 H    0.972
    11   6 C    3.962 --    10 C    1.639    13 C    1.189    48 H    0.973
    12   7 N    3.348 --    13 C    1.232     9 C    1.192     1 Co   0.635
    13   6 C    3.901 --    14 C    1.258    12 N    1.232    11 C    1.189
    14   6 C    3.935 --    15 C    1.259    13 C    1.258   125 C    1.194
    15   6 C    3.902 --    14 C    1.259    34 N    1.229    16 C    1.190
    16   6 C    3.961 --    17 C    1.636    15 C    1.190    49 H    0.973
    17   6 C    3.958 --    16 C    1.636    18 C    1.182    50 H    0.973
    18   6 C    3.916 --    19 C    1.328    34 N    1.196    17 C    1.182
    19   6 C    3.933 --    18 C    1.328    29 C    1.319    20 C    1.033
    20   6 C    3.986 --    28 C    1.386    21 C    1.384    19 C    1.033
    21   6 C    3.987 --    22 C    1.464    20 C    1.384    51 H    0.972
                            27 C    0.103
    22   6 C    3.990 --    21 C    1.464    23 C    1.385    52 H    0.968
                            28 C    0.103
    23   6 C    3.982 --    27 C    1.389    22 C    1.385    24 C    1.009
    24   6 C    3.836 --    26 O    1.690    25 O    1.088    23 C    1.009
    25   8 O    2.097 --    24 C    1.088    53 H    0.838    26 O    0.129
    26   8 O    1.958 --    24 C    1.690    25 O    0.129
    27   6 C    3.991 --    28 C    1.462    23 C    1.389    54 H    0.970
                            21 C    0.103
    28   6 C    3.987 --    27 C    1.462    20 C    1.386    55 H    0.972
                            22 C    0.103
    29   6 C    3.920 --    19 C    1.319    33 N    1.212    30 C    1.175
    30   6 C    3.963 --    31 C    1.650    29 C    1.175    56 H    0.973
    31   6 C    3.960 --    30 C    1.650    32 C    1.174    57 H    0.975
    32   6 C    3.923 --     2 C    1.365    33 N    1.201    31 C    1.174
    33   7 N    3.346 --    29 C    1.212    32 C    1.201     1 Co   0.640
    34   7 N    3.349 --    15 C    1.229    18 C    1.196     1 Co   0.633
    35   6 C    3.986 --    43 C    1.388    36 C    1.387     8 C    1.025
    36   6 C    3.987 --    37 C    1.463    35 C    1.387    58 H    0.972
                            42 C    0.103
    37   6 C    3.990 --    36 C    1.463    38 C    1.386    59 H    0.968
                            43 C    0.103
    38   6 C    3.984 --    42 C    1.389    37 C    1.386    39 C    1.009
    39   6 C    3.836 --    41 O    1.690    40 O    1.088    38 C    1.009
    40   8 O    2.097 --    39 C    1.088    60 H    0.838    41 O    0.129
    41   8 O    1.958 --    39 C    1.690    40 O    0.129
    42   6 C    3.991 --    43 C    1.461    38 C    1.389    61 H    0.970
                            36 C    0.103
    43   6 C    3.988 --    42 C    1.461    35 C    1.388    62 H    0.972
                            37 C    0.103
    44   1 H    1.000 --     2 C    0.970
    45   1 H    0.997 --     4 C    0.975
    46   1 H    1.004 --     5 C    0.972
    47   1 H    1.004 --    10 C    0.972
    48   1 H    1.001 --    11 C    0.973
    49   1 H    1.001 --    16 C    0.973
    50   1 H    1.003 --    17 C    0.973
    51   1 H    1.004 --    21 C    0.972
    52   1 H    1.005 --    22 C    0.968
    53   1 H    0.873 --    25 O    0.838
    54   1 H    1.005 --    27 C    0.970
    55   1 H    1.004 --    28 C    0.972
    56   1 H    1.003 --    30 C    0.973
    57   1 H    0.997 --    31 C    0.975
    58   1 H    1.003 --    36 C    0.972
    59   1 H    1.005 --    37 C    0.968
    60   1 H    0.873 --    40 O    0.838
    61   1 H    1.005 --    42 C    0.970
    62   1 H    1.003 --    43 C    0.972
    63  27 Co   3.041 --    95 N    0.640    69 N    0.637    74 N    0.635
                            96 N    0.632
    64   6 C    3.930 --    65 C    1.366    94 C    1.365   106 H    0.970
    65   6 C    3.923 --    64 C    1.366    69 N    1.201    66 C    1.173
    66   6 C    3.960 --    67 C    1.651    65 C    1.173   107 H    0.975
    67   6 C    3.963 --    66 C    1.651    68 C    1.175   108 H    0.972
    68   6 C    3.919 --    70 C    1.318    69 N    1.213    67 C    1.175
    69   7 N    3.348 --    68 C    1.213    65 C    1.201    63 Co   0.637
    70   6 C    3.933 --    71 C    1.334    68 C    1.318    97 C    1.025
    71   6 C    3.915 --    70 C    1.334    74 N    1.192    72 C    1.180
    72   6 C    3.958 --    73 C    1.639    71 C    1.180   109 H    0.972
    73   6 C    3.962 --    72 C    1.639    75 C    1.189   110 H    0.973
    74   7 N    3.348 --    75 C    1.232    71 C    1.192    63 Co   0.635
    75   6 C    3.901 --    76 C    1.257    74 N    1.232    73 C    1.189
    76   6 C    3.935 --    77 C    1.259    75 C    1.257   132 C    1.194
    77   6 C    3.902 --    76 C    1.259    96 N    1.229    78 C    1.190
    78   6 C    3.961 --    79 C    1.636    77 C    1.190   111 H    0.973
    79   6 C    3.958 --    78 C    1.636    80 C    1.182   112 H    0.973
    80   6 C    3.916 --    81 C    1.327    96 N    1.196    79 C    1.182
    81   6 C    3.933 --    80 C    1.327    91 C    1.319    82 C    1.033
    82   6 C    3.986 --    90 C    1.386    83 C    1.384    81 C    1.033
    83   6 C    3.987 --    84 C    1.464    82 C    1.384   113 H    0.972
                            89 C    0.103
    84   6 C    3.990 --    83 C    1.464    85 C    1.385   114 H    0.968
                            90 C    0.103
    85   6 C    3.982 --    89 C    1.389    84 C    1.385    86 C    1.009
    86   6 C    3.836 --    88 O    1.690    87 O    1.088    85 C    1.009
    87   8 O    2.097 --    86 C    1.088   115 H    0.838    88 O    0.129
    88   8 O    1.958 --    86 C    1.690    87 O    0.129
    89   6 C    3.991 --    90 C    1.462    85 C    1.389   116 H    0.970
                            83 C    0.103
    90   6 C    3.987 --    89 C    1.462    82 C    1.386   117 H    0.972
                            84 C    0.103
    91   6 C    3.920 --    81 C    1.319    95 N    1.212    92 C    1.175
    92   6 C    3.963 --    93 C    1.650    91 C    1.175   118 H    0.973
    93   6 C    3.960 --    92 C    1.650    94 C    1.174   119 H    0.975
    94   6 C    3.923 --    64 C    1.365    95 N    1.201    93 C    1.174
    95   7 N    3.346 --    91 C    1.212    94 C    1.201    63 Co   0.640
    96   7 N    3.349 --    77 C    1.229    80 C    1.196    63 Co   0.632
    97   6 C    3.986 --   105 C    1.388    98 C    1.387    70 C    1.025
    98   6 C    3.987 --    99 C    1.463    97 C    1.387   120 H    0.972
                           104 C    0.103
    99   6 C    3.990 --    98 C    1.463   100 C    1.386   121 H    0.968
                           105 C    0.103
   100   6 C    3.984 --   104 C    1.389    99 C    1.386   101 C    1.009
   101   6 C    3.836 --   103 O    1.690   102 O    1.088   100 C    1.009
   102   8 O    2.097 --   101 C    1.088   122 H    0.838   103 O    0.129
   103   8 O    1.958 --   101 C    1.690   102 O    0.129
   104   6 C    3.991 --   105 C    1.460   100 C    1.389   123 H    0.970
                            98 C    0.103
   105   6 C    3.988 --   104 C    1.460    97 C    1.388   124 H    0.972
                            99 C    0.103
   106   1 H    1.000 --    64 C    0.970
   107   1 H    0.997 --    66 C    0.975
   108   1 H    1.004 --    67 C    0.972
   109   1 H    1.004 --    72 C    0.972
   110   1 H    1.001 --    73 C    0.973
   111   1 H    1.001 --    78 C    0.973
   112   1 H    1.003 --    79 C    0.973
   113   1 H    1.004 --    83 C    0.972
   114   1 H    1.005 --    84 C    0.968
   115   1 H    0.873 --    87 O    0.838
   116   1 H    1.005 --    89 C    0.970
   117   1 H    1.004 --    90 C    0.972
   118   1 H    1.003 --    92 C    0.973
   119   1 H    0.997 --    93 C    0.975
   120   1 H    1.003 --    98 C    0.972
   121   1 H    1.005 --    99 C    0.968
   122   1 H    0.873 --   102 O    0.838
   123   1 H    1.005 --   104 C    0.970
   124   1 H    1.003 --   105 C    0.972
   125   6 C    3.871 --   126 C    2.431    14 C    1.194   128 C    0.185
   126   6 C    3.931 --   125 C    2.431   127 C    1.350
   127   6 C    3.887 --   128 C    2.325   126 C    1.350   130 C    0.180
   128   6 C    3.920 --   127 C    2.325   129 C    1.376   125 C    0.185
   129   6 C    3.920 --   130 C    2.325   128 C    1.376   132 C    0.185
   130   6 C    3.887 --   129 C    2.325   131 C    1.350   127 C    0.180
   131   6 C    3.931 --   132 C    2.431   130 C    1.350
   132   6 C    3.871 --   131 C    2.431    76 C    1.194   129 C    0.185
 ---------------------------------------------------------------------------

           -------------------------------------------------
          | TOTAL ENERGY             -251.162476098466 Eh   |
          | GRADIENT NORM               0.000724729080 Eh/α |
          | HOMO-LUMO GAP               0.005956550588 eV   |
           -------------------------------------------------

 * finished run on 2022/07/30 at 03:54:43.029
