   * xtb version 6.5.1 (b24c23e) compiled by 'conda@728c89f4b128' on 2022-07-12
          program call               : xtb Fe_m-CP_C8_3.xyz --gfn 1 --opt -T 48

   ID    Z sym.   atoms
    1   26 Fe     1, 63, 141
    2    6 C      2-6, 8-12, 15-20, 22-27, 29-35, 38-42, 64-68, 70-74, 77-82,
                  84-89, 91-97, 100-104, 125-140, 142-146, 148-152, 155-160,
                  162-167, 169-175, 178-182
    3    7 N      7, 21, 28, 43, 69, 83, 90, 105, 147, 161, 168, 183
    4    8 O      13, 14, 36, 37, 75, 76, 98, 99, 153, 154, 176, 177
    5    1 H      44-62, 106-124, 184-201
########################################################################
[WARNING] Please study the warnings concerning your input carefully
-1- prog_main_parseArguments: Unknown option '-T' provided
########################################################################

          :  Hamiltonian                  GFN1-xTB          :
 * total energy  :  -381.2165667 Eh     change       -0.8689995E-08 Eh
 * total energy  :  -382.0641798 Eh     change       -0.8476131E+00 Eh
 * total energy  :  -382.3151315 Eh     change       -0.2509517E+00 Eh
 * total energy  :  -382.4421795 Eh     change       -0.1270480E+00 Eh
 * total energy  :  -382.5107728 Eh     change       -0.6859327E-01 Eh
 * total energy  :  -382.5576505 Eh     change       -0.4687767E-01 Eh
 * total energy  :  -382.5939967 Eh     change       -0.3634623E-01 Eh
 * total energy  :  -382.6242549 Eh     change       -0.3025822E-01 Eh
 * total energy  :  -382.6498509 Eh     change       -0.2559600E-01 Eh
 * total energy  :  -382.6698143 Eh     change       -0.1996344E-01 Eh
 * total energy  :  -382.9422810 Eh     change       -0.1114396E-04 Eh
 * total energy  :  -382.9422936 Eh     change       -0.1258505E-04 Eh
 * total energy  :  -382.9423086 Eh     change       -0.1505090E-04 Eh
 * total energy  :  -382.9423239 Eh     change       -0.1532391E-04 Eh
 * total energy  :  -382.9423383 Eh     change       -0.1434059E-04 Eh
 * total energy  :  -382.9423523 Eh     change       -0.1405512E-04 Eh
 * total energy  :  -382.9423654 Eh     change       -0.1309536E-04 Eh
 * total energy  :  -382.9423810 Eh     change       -0.1555718E-04 Eh
 * total energy  :  -382.9423840 Eh     change       -0.3075421E-05 Eh
   *** GEOMETRY OPTIMIZATION CONVERGED AFTER 340 ITERATIONS ***

 final structure:
================
201
 xtb: 6.5.1 (b24c23e)
Fe          28.01619041289561        0.16288766267009       -1.52220996380361
C           24.67664729934320       -0.29516250379102       -1.18570360782143
C           25.13842327894783        0.99681196785792       -1.32819518305237
C           24.28532814229152        2.14620102954094       -1.37443213211621
C           25.09529627305830        3.22887449307662       -1.43559099124624
C           26.44403779410764        2.73980393935208       -1.40662751803889
N           26.45543677768658        1.37111440761601       -1.38558516296616
C           27.56718601181155        3.55550560184727       -1.33630230316645
C           27.37760793402909        5.02434740737929       -1.25939675789892
C           26.69939145242522        5.59543881140395       -0.18657520305925
C           26.53183565938814        6.97769100921196       -0.11156778855342
C           25.80756653715646        7.52802938660580        1.06157780156541
O           25.71524322027156        8.86605644883222        1.05522416208534
O           25.33889831172980        6.85942055126636        1.94691697701281
C           27.03944877009169        7.79918975483758       -1.11808530077102
C           27.71242640775000        7.23217829889223       -2.18891754207473
C           27.88432090714622        5.85691867995276       -2.25985502056018
C           28.86079204590036        3.05484549032628       -1.30815909680076
C           30.02968801527880        3.86600507142314       -1.13560475533359
C           31.09704737481623        3.03619410269475       -1.21654835189089
N           29.21465185201292        1.73597127137950       -1.46161254515123
C           30.57847963811418        1.72252753384096       -1.44106377270377
C           31.38895184983236        0.60967153753135       -1.68881830148973
C           30.87265329250653       -0.66784833706981       -1.93174511746432
C           31.68511966681591       -1.78779749218313       -2.29132838645956
C           30.85885833656936       -2.85876788545884       -2.36564225044556
C           29.54645192851385       -2.39297231313827       -2.02615401550667
N           29.56504637717081       -1.03494641766790       -1.81113176241245
C           28.44578684681656       -3.22096028399054       -1.85986697342340
C           28.62243598026244       -4.68475517133051       -2.01595097071927
C           29.50157743958394       -5.38691503910300       -1.18853064943590
C           29.66199543696300       -6.75846879702220       -1.32929151007520
C           28.94841863996720       -7.44565117593872       -2.29681797980803
C           28.06583649579732       -6.75539763632643       -3.12923200901050
C           27.31606063709308       -7.52840980374579       -4.15082779604396
O           26.48552418039915       -6.77832893764135       -4.88954171633551
O           27.42428436638621       -8.71634705232514       -4.31839321635472
C           27.90393963964568       -5.37880482977866       -2.98730738845865
C           27.18298447586701       -2.73903814110332       -1.53171790199835
C           26.04758191225555       -3.57509788465215       -1.26571199033394
C           24.99268417270320       -2.75089722411479       -1.06485729736413
C           25.48422973694305       -1.41321639610269       -1.20453991672452
N           26.83256525002194       -1.41873888506644       -1.45151943525311
H           23.60930515809625       -0.44228796418921       -1.06547573519714
H           23.20764591260104        2.10857207021459       -1.36299037053107
H           24.81757842402808        4.26879814906896       -1.49346526435692
H           26.30891869543159        4.97311923591756        0.61119344296212
H           25.23237547587260        9.14489673744200        1.85017121658096
H           26.90635143175196        8.87262401020151       -1.05922610589395
H           28.10727973011063        7.86475166421691       -2.97589233657184
H           28.40490838929289        5.41858466720354       -3.10395196416002
H           30.02328128053305        4.93014094271388       -0.96416497445826
H           32.14498999104272        3.27759061485712       -1.14002564067203
H           32.74776522925889       -1.74256203369639       -2.46809669960108
H           31.10638096814541       -3.87487981377115       -2.62645408731660
H           30.04956952894517       -4.85360964260301       -0.41980892736163
H           30.34541426221426       -7.29051256723333       -0.67731424943540
H           29.06099289058819       -8.51692642239342       -2.41964084544460
H           26.03589331721609       -7.35465276369310       -5.52864871407084
H           27.22743251928146       -4.84325904570847       -3.64279724320645
H           26.06899433125600       -4.65230579496520       -1.23192172137333
H           23.96816800248061       -3.00630242211324       -0.84552456430323
Fe          62.59478796313156        0.26843415040231       -1.30631776734817
C           65.94520892254202        0.18405409198349       -0.81286071869365
C           65.34215703983611       -0.93772653935910       -1.34278291732485
C           66.05546674990079       -2.11917499876759       -1.72477832962529
C           65.12616032073585       -3.03122973888611       -2.09456680235087
C           63.84391588423523       -2.41037491659957       -1.92230372059170
N           63.99307106533457       -1.11481072226949       -1.50729625829397
C           62.62965900292141       -3.06751334065400       -2.09071303768797
C           62.64574739323915       -4.51213003721863       -2.42174161197004
C           63.24519155239253       -5.42723955136581       -1.56070398190215
C           63.26038923439014       -6.78625881459866       -1.87168004477085
C           63.91810736614237       -7.71103755031824       -0.91460948714904
O           63.87438893974468       -8.99643260368867       -1.29487225086379
O           64.44908376413672       -7.36537788294095        0.10963686487221
C           62.67299313943553       -7.23986886144630       -3.05272270884442
C           62.07602697242411       -6.33077395237792       -3.91195496775716
C           62.06051630021721       -4.97827482881563       -3.60147462679360
C           61.40418039458545       -2.43200955182469       -1.94875051170004
C           60.13823494088602       -3.09682604388446       -2.04634425425194
C           59.18497435060803       -2.13941157095265       -1.94707148081936
N           61.21949965316822       -1.08511675644997       -1.74570242036182
C           59.86978339202785       -0.89546450152213       -1.78174896061202
C           59.21613253143276        0.34171419825218       -1.74292694414179
C           59.89307988245080        1.55337297719304       -1.55750541206562
C           59.24334409804339        2.82660895779627       -1.57757080234163
C           60.18349538983323        3.74703823276170       -1.25464638140483
C           61.40236815359711        3.02940584712329       -1.02391079558214
N           61.21645007550066        1.68771193665678       -1.25977850324368
C           62.57237505631095        3.61349414306684       -0.56093429744931
C           62.56401642249725        5.06097785098981       -0.23894332919636
C           61.72337139315569        5.55922984021581        0.75876013542322
C           61.71357799482112        6.91330288173830        1.06362273030057
C           62.53863373420624        7.78617491369375        0.37443672872733
C           63.38293252805528        7.30017502143935       -0.62514655243674
C           64.25064320503218        8.26825293774009       -1.34163629995008
O           65.03546348768778        7.70172602807023       -2.26970730840237
O           64.26729004347440        9.45341080848067       -1.12744119869106
C           63.39619419742557        5.94020517835987       -0.92828477533773
C           63.75163111242772        2.89917687904709       -0.37910159664752
C           64.95978896997946        3.46276711904600        0.15123520918507
C           65.90556867791918        2.49661342354473        0.08193139309607
C           65.27291008800400        1.34244083444112       -0.48220410751191
N           63.94662271667811        1.58929448567108       -0.72353597959344
H           67.01670408366711        0.15515922718615       -0.65036376715396
H           67.12907849899597       -2.21855615935575       -1.70546805603042
H           65.28273186261865       -4.03515761481494       -2.45432242292942
H           63.69375721523942       -5.09479078282280       -0.63092884784678
H           64.32438475789449       -9.53173683769954       -0.62118728245211
H           62.68663930264390       -8.29597656028659       -3.29329872372536
H           61.62023729458890       -6.67602124950775       -4.83307578516463
H           61.60419562596378       -4.27119770241603       -4.28518417060733
H           60.00530550726577       -4.15967826309759       -2.16639744076256
H           58.11308161815410       -2.24960053276485       -1.98262058532386
H           58.20236914046157        2.98055977014352       -1.81214808806001
H           60.07219692419254        4.81650559214428       -1.17973542146665
H           61.08505221703751        4.87534662491504        1.30692600102861
H           61.05893020320562        7.28518060808291        1.84355410204323
H           62.54219140178383        8.84694193803185        0.59838451412419
H           65.56694048487327        8.39732179920993       -2.68980755285030
H           64.04367247025883        5.56683589699786       -1.71280658312448
H           65.05770201051811        4.46791310994169        0.52820148508520
H           66.94149566506509        2.54291579071260        0.37803557984340
C           32.78057243041946        0.78312238711718       -1.67978207777189
C           33.99412272558764        0.93972084902651       -1.62150893870326
C           35.31836768254329        1.11570019789135       -1.49402231576125
C           36.52598322693563        1.28307679477776       -1.32820643195062
C           37.82565112534301        1.46164244802674       -1.05620582637163
C           39.00952471291627        1.62280631408806       -0.77292155698837
C           40.27426122071120        1.82480892773951       -0.28610424357393
C           41.46462270849937        2.48339523311017       -0.47162836710915
C           48.98118585228680        0.50056128204607       -1.05474519103049
C           50.16618729665257        0.49538975707254       -1.37367114036690
C           51.47550875328585        0.47921880357483       -1.65103835897992
C           52.69697742819287        0.46166079396314       -1.82010823290943
C           54.02655444360018        0.44126233368413       -1.92791951813355
C           55.25875913552370        0.41672795574078       -1.96395120260132
C           56.59763187584763        0.39381979006527       -1.94088584674118
C           57.82175832929000        0.36873106119005       -1.87108467203697
Fe          44.49447074202872        0.64588429676058        0.46145922286040
C           41.19965669415370        1.07055589482840        0.51384155558838
C           41.66251558079844       -0.25595936486005        0.40125232369857
C           40.81970999055461       -1.40074990834586        0.32586713760218
C           41.64485587462586       -2.48332293654005        0.32170483417644
C           42.98502041991934       -1.98093856027010        0.33551020278779
N           42.96773040917498       -0.60716237930730        0.44423164125697
C           44.10653703343628       -2.72351164501230       -0.00626607778988
C           43.94678364189625       -4.18970740026798       -0.15666291742379
C           43.64425644166143       -4.97078137428073        0.95442605049713
C           43.49062462324660       -6.35057779695241        0.82595994635571
C           43.17502776844760       -7.13236776900775        2.04919613348981
O           43.06273360755947       -8.44914805235361        1.82774603167884
O           43.02894923578585       -6.65073370982987        3.14294584659531
C           43.62907252933348       -6.95594849394260       -0.42268518275418
C           43.91716184360290       -6.17716014346436       -1.53250991807171
C           44.07638152855341       -4.80462301271943       -1.40383010642076
C           45.33139688670128       -2.13908529628586       -0.33402561358022
C           46.44479341844664       -2.82989470293081       -0.90588166905260
C           47.39434564684534       -1.89396109211701       -1.16821505598481
N           45.62076635828862       -0.80363845513739       -0.20972328769728
C           46.88102623180860       -0.64673033255541       -0.70012912731289
C           47.66677754529545        0.51695733309903       -0.57767692599997
C           47.26634678653771        1.60258996505375        0.21474916258683
C           48.14952263161430        2.62545627742186        0.69382684182970
C           47.47438812769283        3.31133914927655        1.64745339442524
C           46.15606847814667        2.74759099007299        1.70907262641288
N           46.05274062298855        1.70275893838695        0.82104637419315
C           45.09619576747853        3.25671033754984        2.44503268013205
C           45.37066233397012        4.30398136477417        3.45096346054261
C           44.78690226598933        5.57055628345835        3.36466348787577
C           45.06806342939465        6.54396040908233        4.31309603495802
C           45.93697908923088        6.26914024930417        5.35586728094610
C           46.53647316853674        5.01201559517197        5.44619040387400
C           47.47410603336810        4.76084737886592        6.57126550052420
O           48.00923361094441        3.53263757597408        6.55817346385663
O           47.74365605419298        5.56985603677711        7.42102438772650
C           46.25557447651644        4.03482773445428        4.49471776479457
C           43.77488848357390        2.89886576262945        2.13438522940602
C           42.59231129663741        3.51999681261464        2.68847150719447
C           41.54486192867589        3.11161252492259        1.95886642146751
C           42.05912462677907        2.21220236302046        0.91003109530386
N           43.45191255293894        2.03997788225395        1.15153037232533
H           39.74229882088270       -1.37211626346138        0.30179613149415
H           41.37477213177513       -3.52514538060020        0.26305385161898
H           43.53850452162004       -4.51586953219349        1.93321707660187
H           42.85778719813766       -8.88832354586305        2.66931695648413
H           43.50668738343599       -8.02774972428336       -0.52096003893710
H           44.01673647475829       -6.64020812886753       -2.50762231917892
H           44.28319797311516       -4.19937863115584       -2.27915605286420
H           46.49389089156195       -3.89125867906588       -1.08643457327951
H           48.36877522929902       -2.03193170273895       -1.60843241522471
H           49.16360669782505        2.76842477785605        0.35678844293716
H           47.81532493390152        4.14670429113209        2.23714460872982
H           44.13036286283417        5.80200310991603        2.53352892713082
H           44.60973518580404        7.52284034580533        4.23082694907424
H           46.16749283016881        7.01879692955927        6.10432519517076
H           48.60652990773688        3.44663259117343        7.31911168713928
H           46.71402689985711        3.05597953252139        4.57166746316669
H           42.58980213454923        4.17895453458830        3.54181108548507
H           40.50248354570924        3.37147132657890        2.04331395274115

          :  Hamiltonian                  GFN1-xTB          :
         :: total energy            -382.942384049108 Eh    ::
         :: gradient norm              0.000716370826 Eh/a0 ::
         :: HOMO-LUMO gap              0.068727020941 eV    ::
         :: SCC energy              -388.754977235854 Eh    ::
         :: repulsion energy           5.993320132922 Eh    ::

    * Orbital Energies and Occupations

         #    Occupation            Energy/Eh            Energy/eV
      -------------------------------------------------------------
         1        2.0000           -0.8395857             -22.8463
       ...           ...                  ...                  ...
       330        2.0000           -0.4010778             -10.9139
       331        2.0000           -0.4005702             -10.9001
       332        1.9991           -0.3956656             -10.7666
       333        1.9986           -0.3952694             -10.7558
       334        1.9983           -0.3950812             -10.7507
       335        1.9947           -0.3940146             -10.7217
       336        1.9922           -0.3936496             -10.7118
       337        1.9903           -0.3934320             -10.7058
       338        1.9469           -0.3918002             -10.6614
       339        1.9441           -0.3917508             -10.6601
       340        1.9417           -0.3917086             -10.6589
       341        1.9380           -0.3916486             -10.6573
       342        1.4782           -0.3893679             -10.5952 (HOMO)
       343        0.3312           -0.3868422             -10.5265 (LUMO)
       344        0.3263           -0.3868250             -10.5260
       345        0.1205           -0.3857686             -10.4973
       346                         -0.3535737              -9.6212
       347                         -0.3469820              -9.4419
       348                         -0.3407705              -9.2728
       349                         -0.3347932              -9.1102
       350                         -0.3328080              -9.0562
       351                         -0.3322185              -9.0401
       352                         -0.3240422              -8.8176
       353                         -0.3193341              -8.6895
       ...                                ...                  ...
       707                          1.5874074              43.1956
      -------------------------------------------------------------
                  HL-Gap            0.0025257 Eh            0.0687 eV

Wiberg/Mayer (AO) data.
largest (>0.10) Wiberg bond orders for each atom

     #   Z sym  total        # sym  WBO       # sym  WBO       # sym  WBO
 ---------------------------------------------------------------------------
     1  26 Fe   3.119 --     7 N    0.671    43 N    0.670    28 N    0.663
                            21 N    0.663
     2   6 C    3.930 --    42 C    1.366     3 C    1.365    44 H    0.970
     3   6 C    3.923 --     2 C    1.365     7 N    1.208     4 C    1.171
     4   6 C    3.959 --     5 C    1.652     3 C    1.171    45 H    0.975
     5   6 C    3.961 --     4 C    1.652     6 C    1.173    46 H    0.973
     6   6 C    3.921 --     8 C    1.318     7 N    1.222     5 C    1.173
     7   7 N    3.388 --     6 C    1.222     3 C    1.208     1 Fe   0.671
     8   6 C    3.934 --    18 C    1.335     6 C    1.318     9 C    1.025
     9   6 C    3.988 --    10 C    1.409    17 C    1.388     8 C    1.025
                            15 C    0.103
    10   6 C    3.984 --     9 C    1.409    11 C    1.396    47 H    0.968
                            16 C    0.104
    11   6 C    3.988 --    10 C    1.396    15 C    1.391    12 C    1.005
                            17 C    0.100
    12   6 C    3.836 --    14 O    1.693    13 O    1.089    11 C    1.005
    13   8 O    2.098 --    12 C    1.089    48 H    0.838    14 O    0.129
    14   8 O    1.962 --    12 C    1.693    13 O    0.129
    15   6 C    3.987 --    16 C    1.448    11 C    1.391    49 H    0.971
                             9 C    0.103
    16   6 C    3.994 --    15 C    1.448    17 C    1.441    50 H    0.972
                            10 C    0.104
    17   6 C    3.988 --    16 C    1.441     9 C    1.388    51 H    0.973
                            11 C    0.100
    18   6 C    3.918 --     8 C    1.335    21 N    1.201    19 C    1.177
    19   6 C    3.958 --    20 C    1.641    18 C    1.177    52 H    0.973
    20   6 C    3.960 --    19 C    1.641    22 C    1.185    53 H    0.973
    21   7 N    3.385 --    22 C    1.240    18 C    1.201     1 Fe   0.663
    22   6 C    3.905 --    23 C    1.258    21 N    1.240    20 C    1.185
    23   6 C    3.936 --    22 C    1.258    24 C    1.255   125 C    1.194
    24   6 C    3.905 --    23 C    1.255    28 N    1.243    25 C    1.187
    25   6 C    3.960 --    26 C    1.640    24 C    1.187    54 H    0.973
    26   6 C    3.957 --    25 C    1.640    27 C    1.177    55 H    0.973
    27   6 C    3.918 --    29 C    1.337    28 N    1.198    26 C    1.177
    28   7 N    3.385 --    24 C    1.243    27 C    1.198     1 Fe   0.663
    29   6 C    3.934 --    27 C    1.337    39 C    1.315    30 C    1.027
    30   6 C    3.988 --    38 C    1.405    31 C    1.389    29 C    1.027
                            33 C    0.102
    31   6 C    3.987 --    32 C    1.439    30 C    1.389    56 H    0.972
    32   6 C    3.994 --    33 C    1.451    31 C    1.439    57 H    0.972
                            38 C    0.104
    33   6 C    3.986 --    32 C    1.451    34 C    1.387    58 H    0.969
                            30 C    0.102
    34   6 C    3.988 --    38 C    1.400    33 C    1.387    35 C    1.005
    35   6 C    3.836 --    37 O    1.692    36 O    1.090    34 C    1.005
    36   8 O    2.099 --    35 C    1.090    59 H    0.838    37 O    0.129
    37   8 O    1.960 --    35 C    1.692    36 O    0.129
    38   6 C    3.985 --    30 C    1.405    34 C    1.400    60 H    0.969
                            32 C    0.104
    39   6 C    3.921 --    29 C    1.315    43 N    1.224    40 C    1.174
    40   6 C    3.961 --    41 C    1.651    39 C    1.174    61 H    0.973
    41   6 C    3.959 --    40 C    1.651    42 C    1.172    62 H    0.975
    42   6 C    3.923 --     2 C    1.366    43 N    1.206    41 C    1.172
    43   7 N    3.388 --    39 C    1.224    42 C    1.206     1 Fe   0.670
    44   1 H    1.000 --     2 C    0.970
    45   1 H    0.997 --     4 C    0.975
    46   1 H    1.003 --     5 C    0.973
    47   1 H    1.007 --    10 C    0.968
    48   1 H    0.873 --    13 O    0.838
    49   1 H    1.005 --    15 C    0.971
    50   1 H    1.002 --    16 C    0.972
    51   1 H    1.004 --    17 C    0.973
    52   1 H    1.004 --    19 C    0.973
    53   1 H    1.001 --    20 C    0.973
    54   1 H    1.001 --    25 C    0.973
    55   1 H    1.004 --    26 C    0.973
    56   1 H    1.005 --    31 C    0.972
    57   1 H    1.002 --    32 C    0.972
    58   1 H    1.005 --    33 C    0.969
    59   1 H    0.873 --    36 O    0.838
    60   1 H    1.007 --    38 C    0.969
    61   1 H    1.004 --    40 C    0.973
    62   1 H    0.997 --    41 C    0.975
    63  26 Fe   3.112 --    69 N    0.669   105 N    0.668    90 N    0.661
                            83 N    0.660
    64   6 C    3.926 --    65 C    1.365   104 C    1.364   106 H    0.970
    65   6 C    3.923 --    64 C    1.365    69 N    1.207    66 C    1.172
    66   6 C    3.959 --    67 C    1.651    65 C    1.172   107 H    0.975
    67   6 C    3.962 --    66 C    1.651    68 C    1.173   108 H    0.972
    68   6 C    3.921 --    70 C    1.315    69 N    1.224    67 C    1.173
    69   7 N    3.385 --    68 C    1.224    65 C    1.207    63 Fe   0.669
    70   6 C    3.929 --    80 C    1.335    68 C    1.315    71 C    1.028
    71   6 C    3.988 --    72 C    1.407    79 C    1.387    70 C    1.028
                            77 C    0.102
    72   6 C    3.983 --    71 C    1.407    73 C    1.397   109 H    0.968
                            78 C    0.104
    73   6 C    3.988 --    72 C    1.397    77 C    1.391    74 C    1.005
    74   6 C    3.836 --    76 O    1.693    75 O    1.089    73 C    1.005
    75   8 O    2.098 --    74 C    1.089   110 H    0.838    76 O    0.129
    76   8 O    1.962 --    74 C    1.693    75 O    0.129
    77   6 C    3.987 --    78 C    1.448    73 C    1.391   111 H    0.971
                            71 C    0.102
    78   6 C    3.994 --    77 C    1.448    79 C    1.441   112 H    0.972
                            72 C    0.104
    79   6 C    3.987 --    78 C    1.441    71 C    1.387   113 H    0.972
    80   6 C    3.918 --    70 C    1.335    83 N    1.200    81 C    1.178
    81   6 C    3.957 --    82 C    1.640    80 C    1.178   114 H    0.973
    82   6 C    3.960 --    81 C    1.640    84 C    1.187   115 H    0.973
    83   7 N    3.382 --    84 C    1.243    80 C    1.200    63 Fe   0.660
    84   6 C    3.903 --    85 C    1.253    83 N    1.243    82 C    1.187
    85   6 C    3.930 --    84 C    1.253    86 C    1.250   140 C    1.203
    86   6 C    3.903 --    85 C    1.250    90 N    1.245    87 C    1.187
    87   6 C    3.960 --    88 C    1.639    86 C    1.187   116 H    0.973
    88   6 C    3.957 --    87 C    1.639    89 C    1.178   117 H    0.973
    89   6 C    3.918 --    91 C    1.337    90 N    1.198    88 C    1.178
    90   7 N    3.382 --    86 C    1.245    89 C    1.198    63 Fe   0.661
    91   6 C    3.929 --    89 C    1.337   101 C    1.315    92 C    1.026
    92   6 C    3.988 --   100 C    1.406    93 C    1.389    91 C    1.026
                            95 C    0.103
    93   6 C    3.987 --    94 C    1.439    92 C    1.389   118 H    0.972
                            96 C    0.100
    94   6 C    3.994 --    95 C    1.451    93 C    1.439   119 H    0.972
                           100 C    0.104
    95   6 C    3.986 --    94 C    1.451    96 C    1.388   120 H    0.969
                            92 C    0.103
    96   6 C    3.988 --   100 C    1.400    95 C    1.388    97 C    1.005
                            93 C    0.100
    97   6 C    3.836 --    99 O    1.692    98 O    1.090    96 C    1.005
    98   8 O    2.099 --    97 C    1.090   121 H    0.838    99 O    0.129
    99   8 O    1.961 --    97 C    1.692    98 O    0.129
   100   6 C    3.985 --    92 C    1.406    96 C    1.400   122 H    0.969
                            94 C    0.104
   101   6 C    3.921 --    91 C    1.315   105 N    1.224   102 C    1.174
   102   6 C    3.962 --   103 C    1.650   101 C    1.174   123 H    0.973
   103   6 C    3.959 --   102 C    1.650   104 C    1.172   124 H    0.975
   104   6 C    3.923 --    64 C    1.364   105 N    1.208   103 C    1.172
   105   7 N    3.384 --   101 C    1.224   104 C    1.208    63 Fe   0.668
   106   1 H    1.000 --    64 C    0.970
   107   1 H    0.997 --    66 C    0.975
   108   1 H    1.004 --    67 C    0.972
   109   1 H    1.007 --    72 C    0.968
   110   1 H    0.873 --    75 O    0.838
   111   1 H    1.005 --    77 C    0.971
   112   1 H    1.002 --    78 C    0.972
   113   1 H    1.005 --    79 C    0.972
   114   1 H    1.004 --    81 C    0.973
   115   1 H    1.001 --    82 C    0.973
   116   1 H    1.001 --    87 C    0.973
   117   1 H    1.004 --    88 C    0.973
   118   1 H    1.004 --    93 C    0.972
   119   1 H    1.002 --    94 C    0.972
   120   1 H    1.005 --    95 C    0.969
   121   1 H    0.873 --    98 O    0.838
   122   1 H    1.007 --   100 C    0.969
   123   1 H    1.004 --   102 C    0.973
   124   1 H    0.997 --   103 C    0.975
   125   6 C    3.878 --   126 C    2.432    23 C    1.194   128 C    0.188
   126   6 C    3.932 --   125 C    2.432   127 C    1.347
   127   6 C    3.910 --   128 C    2.341   126 C    1.347   130 C    0.186
   128   6 C    3.923 --   127 C    2.341   129 C    1.357   125 C    0.188
   129   6 C    3.955 --   130 C    2.391   128 C    1.357   132 C    0.102
   130   6 C    3.886 --   129 C    2.391   131 C    1.257   127 C    0.186
   131   6 C    3.940 --   132 C    1.455   130 C    1.257   142 C    1.081
   132   6 C    3.072 --   131 C    1.455   182 C    0.826   142 C    0.447
                           129 C    0.102
   133   6 C    3.875 --   134 C    2.404   163 C    1.215   136 C    0.182
   134   6 C    3.920 --   133 C    2.404   135 C    1.367
   135   6 C    3.883 --   136 C    2.302   134 C    1.367   138 C    0.178
   136   6 C    3.913 --   135 C    2.302   137 C    1.391   133 C    0.182
   137   6 C    3.918 --   138 C    2.305   136 C    1.391   140 C    0.183
   138   6 C    3.881 --   137 C    2.305   139 C    1.363   135 C    0.178
   139   6 C    3.929 --   140 C    2.413   138 C    1.363
   140   6 C    3.864 --   139 C    2.413    85 C    1.203   137 C    0.183
   141  26 Fe   3.543 --   183 N    0.760   168 N    0.703   161 N    0.640
                           147 N    0.615
   142   6 C    3.831 --   143 C    1.175   131 C    1.081   182 C    0.924
                           132 C    0.447
   143   6 C    3.906 --   147 N    1.302   144 C    1.209   142 C    1.175
   144   6 C    3.964 --   145 C    1.610   143 C    1.209   184 H    0.975
   145   6 C    3.958 --   144 C    1.610   146 C    1.190   185 H    0.974
   146   6 C    3.929 --   148 C    1.347   145 C    1.190   147 N    1.175
   147   7 N    3.377 --   143 C    1.302   146 C    1.175   141 Fe   0.615
   148   6 C    3.934 --   146 C    1.347   158 C    1.301   149 C    1.025
   149   6 C    3.988 --   150 C    1.410   157 C    1.388   148 C    1.025
                           155 C    0.103
   150   6 C    3.984 --   149 C    1.410   151 C    1.397   186 H    0.968
                           156 C    0.105
   151   6 C    3.988 --   150 C    1.397   155 C    1.393   152 C    1.003
                           157 C    0.101
   152   6 C    3.837 --   154 O    1.694   153 O    1.092   151 C    1.003
   153   8 O    2.100 --   152 C    1.092   187 H    0.837   154 O    0.130
   154   8 O    1.963 --   152 C    1.694   153 O    0.130
   155   6 C    3.988 --   156 C    1.448   151 C    1.393   188 H    0.970
                           149 C    0.103
   156   6 C    3.994 --   155 C    1.448   157 C    1.441   189 H    0.972
                           150 C    0.105
   157   6 C    3.988 --   156 C    1.441   149 C    1.388   190 H    0.972
                           151 C    0.101
   158   6 C    3.925 --   148 C    1.301   161 N    1.210   159 C    1.196
   159   6 C    3.960 --   160 C    1.619   158 C    1.196   191 H    0.972
   160   6 C    3.963 --   159 C    1.619   162 C    1.199   192 H    0.973
   161   7 N    3.383 --   162 C    1.257   158 C    1.210   141 Fe   0.640
   162   6 C    3.904 --   161 N    1.257   163 C    1.226   160 C    1.199
   163   6 C    3.934 --   164 C    1.256   162 C    1.226   133 C    1.215
   164   6 C    3.916 --   163 C    1.256   168 N    1.245   165 C    1.172
   165   6 C    3.972 --   166 C    1.655   164 C    1.172   193 H    0.973
   166   6 C    3.965 --   165 C    1.655   167 C    1.168   194 H    0.973
   167   6 C    3.933 --   169 C    1.357   168 N    1.188   166 C    1.168
   168   7 N    3.374 --   164 C    1.245   167 C    1.188   141 Fe   0.703
   169   6 C    3.948 --   167 C    1.357   179 C    1.260   170 C    1.039
   170   6 C    3.988 --   178 C    1.399   171 C    1.385   169 C    1.039
                           173 C    0.101
   171   6 C    3.983 --   172 C    1.441   170 C    1.385   195 H    0.971
   172   6 C    3.994 --   173 C    1.449   171 C    1.441   196 H    0.972
                           178 C    0.104
   173   6 C    3.982 --   172 C    1.449   174 C    1.387   197 H    0.969
                           170 C    0.101
   174   6 C    3.988 --   178 C    1.404   173 C    1.387   175 C    1.002
   175   6 C    3.837 --   177 O    1.695   176 O    1.093   174 C    1.002
   176   8 O    2.101 --   175 C    1.093   198 H    0.836   177 O    0.130
   177   8 O    1.964 --   175 C    1.695   176 O    0.130
   178   6 C    3.980 --   174 C    1.404   170 C    1.399   199 H    0.969
                           172 C    0.104
   179   6 C    3.941 --   183 N    1.331   169 C    1.260   180 C    1.129
   180   6 C    3.977 --   181 C    1.755   179 C    1.129   200 H    0.969
   181   6 C    3.967 --   180 C    1.755   182 C    1.027   201 H    0.973
   182   6 C    3.937 --   181 C    1.027   183 N    1.016   142 C    0.924
                           132 C    0.826
   183   7 N    3.365 --   179 C    1.331   182 C    1.016   141 Fe   0.760
   184   1 H    0.998 --   144 C    0.975
   185   1 H    1.002 --   145 C    0.974
   186   1 H    1.006 --   150 C    0.968
   187   1 H    0.871 --   153 O    0.837
   188   1 H    1.005 --   155 C    0.970
   189   1 H    1.001 --   156 C    0.972
   190   1 H    1.004 --   157 C    0.972
   191   1 H    1.003 --   159 C    0.972
   192   1 H    1.001 --   160 C    0.973
   193   1 H    1.001 --   165 C    0.973
   194   1 H    1.002 --   166 C    0.973
   195   1 H    1.004 --   171 C    0.971
   196   1 H    1.001 --   172 C    0.972
   197   1 H    1.005 --   173 C    0.969
   198   1 H    0.871 --   176 O    0.836
   199   1 H    1.007 --   178 C    0.969
   200   1 H    1.002 --   180 C    0.969
   201   1 H    1.000 --   181 C    0.973
 ---------------------------------------------------------------------------

           -------------------------------------------------
          | TOTAL ENERGY             -382.942384049108 Eh   |
          | GRADIENT NORM               0.000716370826 Eh/α |
          | HOMO-LUMO GAP               0.068727020941 eV   |
           -------------------------------------------------

 * finished run on 2022/07/29 at 18:26:06.260
