   * xtb version 6.5.1 (b24c23e) compiled by 'conda@728c89f4b128' on 2022-07-12
          program call               : xtb H_C6_3.xyz --gfn 1 --opt -T 48

   ID    Z sym.   atoms
    1    6 C      1-5, 7-10, 12-17, 19-23, 38-42, 44-47, 49-54, 56-60, 75-91,
                  93-96, 98-103, 105-109
    2    7 N      6, 11, 18, 24, 43, 48, 55, 61, 92, 97, 104, 110
    3    1 H      25-37, 62-74, 111-122

          :  Hamiltonian                  GFN1-xTB          :
 * total energy  :  -208.9529016 Eh     change       -0.9588774E-08 Eh
 * total energy  :  -209.8350111 Eh     change       -0.8821095E+00 Eh
 * total energy  :  -210.0107258 Eh     change       -0.1757147E+00 Eh
 * total energy  :  -210.1004001 Eh     change       -0.8967431E-01 Eh
 * total energy  :  -210.1326575 Eh     change       -0.3225738E-01 Eh
 * total energy  :  -210.1578949 Eh     change       -0.2523740E-01 Eh
 * total energy  :  -210.1870810 Eh     change       -0.2918612E-01 Eh
 * total energy  :  -210.2224463 Eh     change       -0.3536535E-01 Eh
 * total energy  :  -210.2673354 Eh     change       -0.4488904E-01 Eh
 * total energy  :  -210.3200892 Eh     change       -0.5275383E-01 Eh
 * total energy  :  -210.5737125 Eh     change       -0.6389115E-04 Eh
 * total energy  :  -210.5737717 Eh     change       -0.5917070E-04 Eh
 * total energy  :  -210.5738242 Eh     change       -0.5253913E-04 Eh
 * total energy  :  -210.5738678 Eh     change       -0.4356268E-04 Eh
 * total energy  :  -210.5739014 Eh     change       -0.3364595E-04 Eh
 * total energy  :  -210.5739250 Eh     change       -0.2356148E-04 Eh
 * total energy  :  -210.5739398 Eh     change       -0.1484073E-04 Eh
 * total energy  :  -210.5739488 Eh     change       -0.8975929E-05 Eh
 * total energy  :  -210.5739491 Eh     change       -0.2509804E-06 Eh
   *** GEOMETRY OPTIMIZATION CONVERGED AFTER 68 ITERATIONS ***

 final structure:
================
122
 xtb: 6.5.1 (b24c23e)
C            9.86004594437783       -0.06191048347865        0.00345353665594
C           10.48591532401773       -1.30037908772817       -0.06089041781412
C            9.87406056229121       -2.58515677973725       -0.12670592057476
C           10.86778924639503       -3.52189203447445       -0.17665596065868
C           12.11786320507436       -2.83932562648780       -0.14246807608678
N           11.83628271760324       -1.50558139572764       -0.07327593761945
C           13.38745903954316       -3.40459831375116       -0.17115126161514
C           14.60685608977307       -2.74359017037793       -0.13630866885616
C           15.88529680029084       -3.43176600214810       -0.16860341769899
C           16.83492853693610       -2.47468021158980       -0.11994091458437
N           14.80017778481145       -1.39809104268185       -0.06927706393746
C           16.13288961575552       -1.20525047741043       -0.05878171049530
C           16.78787235287386        0.04302079144735        0.00009739631642
C           16.13572084445139        1.28944630986259        0.05910488780147
C           16.74182425828885        2.57340917711840        0.11855870061111
C           15.74405688233142        3.50779377066828        0.16314671913971
C           14.49838726832575        2.82055055424538        0.13262690005768
N           14.78765944866086        1.48405947079878        0.06984615964080
C           13.23016963968923        3.38704556173095        0.16150969374641
C           12.00962340012015        2.72372744271210        0.13323890797474
C           10.72468295577835        3.40519029594629        0.16948402095434
C            9.78135788626055        2.44297781627246        0.12649554967200
C           10.49083896973564        1.17508602860108        0.06331405973643
N           11.82906628042138        1.38374893114812        0.06966428970788
H            8.77523168089721       -0.07032292768831        0.00556537783028
H            8.80908846370477       -2.75502606996049       -0.13428429214840
H           10.75868650654316       -4.59341060759279       -0.23236930565127
H           12.52925587128252       -0.76563239338225       -0.03590254520533
H           13.41953685506600       -4.48808793615897       -0.22648613696061
H           16.00585416237791       -4.50245255596177       -0.22127312395103
H           17.90758415188182       -2.58597957254731       -0.12381542172453
H           17.80596811985031        2.74698317326107        0.12561644696769
H           15.84958677856564        4.57981148565328        0.21298835603104
H           14.09729948665323        0.74116976396235        0.03570018541844
H           13.19974020328152        4.47072598078187        0.21232424274738
H           10.59811869068516        4.47542024526586        0.22095214110447
H            8.70746241581495        2.54641722780341        0.13475029211847
C           49.06485120572115        0.06144929178407       -0.02563170931320
C           48.43732129400392        1.28255777602664       -0.23717268574669
C           49.04744103600486        2.55024916740396       -0.46094739881057
C           48.05247380061756        3.47416587486290       -0.61549057200949
C           46.80334358971326        2.80026835075745       -0.49191454884666
N           47.08670148971862        1.48448539686251       -0.26526326078081
C           45.53298219599289        3.35721326577356       -0.58246365117213
C           44.31456800688011        2.70361345873899       -0.46699779364961
C           43.03513887027219        3.38102260967697       -0.58189698077028
C           42.08691048228253        2.43497997886556       -0.42059670209891
N           44.12322201541660        1.37551938023607       -0.23944136650204
C           42.79079610676526        1.18319486163868       -0.20690569410687
C           42.13745289805651       -0.04957894642182        0.00305250538043
C           42.79112979357002       -1.27778795783155        0.21857243706009
C           42.18679582055418       -2.54445807774425        0.44174314053812
C           43.18584389150103       -3.46359009815412        0.60821072768141
C           44.43058036381635       -2.78406112161888        0.49063327793882
N           44.13947015541990       -1.46728284808415        0.25577002552230
C           45.69961140498730       -3.34043932719076        0.59137712194254
C           46.91921169830113       -2.68539996214464        0.47286167075001
C           48.20513833023813       -3.35596435601396        0.58921040457174
C           49.14707671023005       -2.40727589819407        0.41512694528713
C           48.43577506583567       -1.15826543709250        0.19392073313761
N           47.09785152013656       -1.36479002291842        0.23565579153571
H           50.14964408004176        0.07016102460093       -0.03250464717621
H           50.11216652192886        2.71817966536773       -0.49610014865984
H           48.16012168497559        4.53138892652560       -0.79947774884363
H           46.39469323958950        0.75428805494997       -0.13459804595771
H           45.49932715801292        4.42640614519081       -0.76611556721117
H           42.91301080345724        4.43755101387795       -0.76218922307557
H           41.01409932115543        2.54322883394792       -0.43907352529987
H           41.12289125216925       -2.71742579194788        0.46959596965232
H           43.08179082464902       -4.52036126946921        0.79598443994863
H           44.82883912612388       -0.73379670794961        0.12764424746623
H           45.73161977861381       -4.40829298025924        0.78252766148578
H           48.33325737784424       -4.41044112771134        0.77821933584024
H           50.22112117946389       -2.50850451878093        0.42939408078995
C           21.98947482889551        0.07411474774789       -0.01033202411528
C           20.76058150082786        0.07395869271850       -0.00753996816453
C           19.41643792768818        0.06826493614961       -0.00346724025597
C           18.19205107646721        0.05707545141675       -0.00111124972844
C           23.33346512822105        0.07096151210998       -0.01135497732299
C           24.55804258312408        0.06280940524682       -0.01217404623902
C           38.16481312987986       -0.07979054408271        0.00010742642159
C           36.93587066369657       -0.07912282847757        0.00234750936184
C           35.59182467049002       -0.07311003859509       -0.00047658336880
C           34.36725135849285       -0.06229273369443        0.00732751723810
C           39.50899307610727       -0.07626308274523       -0.00023137581587
C           40.73326167522581       -0.06495504928216        0.00192530691861
C           25.96119521249702        0.05022261874888       -0.00907286526424
C           26.61763517021925        1.29651501252795       -0.02327130849205
C           26.02179497884613        2.58520643263348       -0.04054908679121
C           27.02839414262210        3.51246497982929       -0.04915685765715
C           28.26724592686077        2.81441004889558       -0.03783291674103
N           27.96738173466170        1.47976770887080       -0.02222598112216
C           29.53995662155790        3.37544223385696       -0.04353836051026
C           30.76345192124365        2.72313946719437       -0.03509690339887
C           32.03609237466136        3.42284274476978       -0.04673331403431
C           32.99418783471226        2.47287901203686       -0.03451469486072
N           30.96853726452071        1.37793899475923       -0.01588869608220
C           32.30309307727541        1.19688325180801       -0.01427720506162
C           32.96406194159468       -0.04927412725211        0.00868651455307
C           32.30759232430827       -1.29535367731936        0.03474249544014
C           32.90344242167577       -2.58384982698103        0.06357455703064
C           31.89685423364233       -3.51098852616011        0.08104639626171
C           30.65800509890954       -2.81308427404938        0.06241946250867
N           30.95785176466145       -1.47861984189957        0.03547697639369
C           29.38530507029638       -3.37414328230071        0.06729964115973
C           28.16185463488302       -2.72202088239318        0.04711921604984
C           26.88925272109667       -3.42184806510929        0.05129274991538
C           25.93118020016343       -2.47205491805797        0.02849593924447
C           26.62224499071058       -1.19599401483383        0.01142582647095
N           27.95676920410056       -1.37689808442961        0.02210260395365
H           24.95918469521731        2.76783865065090       -0.04551682564651
H           26.93170473711644        4.58638996671564       -0.06224604577275
H           28.64778854289237        0.72697190929329       -0.01086152128794
H           29.56864859333857        4.46062421715986       -0.05742069278492
H           32.14752409092112        4.49569845048535       -0.06223065053028
H           34.06589632766156        2.59308117318379       -0.03755430302732
H           33.96605208477753       -2.76643855152963        0.07016194601757
H           31.99354926054049       -4.58473934035152        0.10442271617100
H           30.27739841159715       -0.72598869426667        0.01780360647999
H           29.35658770933530       -4.45920167959313        0.08873675559020
H           26.77782327321411       -4.49466693102619        0.06917012308524
H           24.85950226384362       -2.59241659434261        0.02351647523078

          :  Hamiltonian                  GFN1-xTB          :
         :: total energy            -210.573949056936 Eh    ::
         :: gradient norm              0.000648148697 Eh/a0 ::
         :: HOMO-LUMO gap              0.881750660449 eV    ::
         :: SCC energy              -214.266886740088 Eh    ::
         :: repulsion energy           3.788084560506 Eh    ::

    * Orbital Energies and Occupations

         #    Occupation            Energy/Eh            Energy/eV
      -------------------------------------------------------------
         1        2.0000           -0.8054360             -21.9170
       ...           ...                  ...                  ...
       181        2.0000           -0.4171772             -11.3520
       182        2.0000           -0.4170810             -11.3494
       183        2.0000           -0.4166139             -11.3366
       184        2.0000           -0.4164696             -11.3327
       185        2.0000           -0.4147831             -11.2868
       186        2.0000           -0.4143978             -11.2763
       187        2.0000           -0.4141193             -11.2688
       188        2.0000           -0.4005952             -10.9008
       189        2.0000           -0.3995309             -10.8718
       190        2.0000           -0.3994776             -10.8703
       191        2.0000           -0.3914695             -10.6524
       192        2.0000           -0.3854996             -10.4900
       193        2.0000           -0.3782924             -10.2939 (HOMO)
       194                         -0.3458887              -9.4121 (LUMO)
       195                         -0.3368619              -9.1665
       196                         -0.3321376              -9.0379
       197                         -0.3315658              -9.0224
       198                         -0.3313054              -9.0153
       199                         -0.3300466              -8.9810
       200                         -0.3062337              -8.3330
       201                         -0.2968359              -8.0773
       202                         -0.2933090              -7.9813
       203                         -0.2863717              -7.7926
       204                         -0.2860666              -7.7843
       ...                                ...                  ...
       412                          1.5765918              42.9012
      -------------------------------------------------------------
                  HL-Gap            0.0324037 Eh            0.8818 eV

Wiberg/Mayer (AO) data.
largest (>0.10) Wiberg bond orders for each atom

     #   Z sym  total        # sym  WBO       # sym  WBO       # sym  WBO
 ---------------------------------------------------------------------------
     1   6 C    3.930 --    23 C    1.364     2 C    1.349    25 H    0.972
     2   6 C    3.903 --     1 C    1.349     3 C    1.225     6 N    1.172
     3   6 C    3.954 --     4 C    1.602     2 C    1.225    26 H    0.977
     4   6 C    3.958 --     3 C    1.602     5 C    1.226    27 H    0.977
     5   6 C    3.897 --     7 C    1.342     4 C    1.226     6 N    1.174
     6   7 N    3.471 --     5 C    1.174     2 C    1.172    28 H    0.873
     7   6 C    3.945 --     8 C    1.379     5 C    1.342    29 H    0.971
     8   6 C    3.915 --     7 C    1.379    11 N    1.277     9 C    1.119
     9   6 C    3.965 --    10 C    1.717     8 C    1.119    30 H    0.976
    10   6 C    3.964 --     9 C    1.717    12 C    1.124    31 H    0.975
    11   7 N    3.026 --    12 C    1.353     8 C    1.277
    12   6 C    3.908 --    11 N    1.353    13 C    1.250    10 C    1.124
    13   6 C    3.942 --    14 C    1.252    12 C    1.250    78 C    1.195
    14   6 C    3.884 --    13 C    1.252    15 C    1.245    18 N    1.193
    15   6 C    3.959 --    16 C    1.589    14 C    1.245    32 H    0.975
    16   6 C    3.953 --    15 C    1.589    17 C    1.233    33 H    0.977
    17   6 C    3.899 --    19 C    1.350    16 C    1.233    18 N    1.162
    18   7 N    3.476 --    14 C    1.193    17 C    1.162    34 H    0.873
    19   6 C    3.929 --    20 C    1.364    17 C    1.350    35 H    0.971
    20   6 C    3.930 --    19 C    1.364    24 N    1.309    21 C    1.112
    21   6 C    3.967 --    22 C    1.730    20 C    1.112    36 H    0.976
    22   6 C    3.966 --    21 C    1.730    23 C    1.113    37 H    0.976
    23   6 C    3.929 --     1 C    1.364    24 N    1.308    22 C    1.113
    24   7 N    3.016 --    20 C    1.309    23 C    1.308
    25   1 H    1.002 --     1 C    0.972
    26   1 H    0.998 --     3 C    0.977
    27   1 H    0.998 --     4 C    0.977
    28   1 H    0.986 --     6 N    0.873
    29   1 H    1.002 --     7 C    0.971
    30   1 H    0.998 --     9 C    0.976
    31   1 H    1.002 --    10 C    0.975
    32   1 H    1.001 --    15 C    0.975
    33   1 H    0.998 --    16 C    0.977
    34   1 H    0.987 --    18 N    0.873
    35   1 H    1.002 --    19 C    0.971
    36   1 H    0.998 --    21 C    0.976
    37   1 H    0.998 --    22 C    0.976
    38   6 C    3.930 --    60 C    1.364    39 C    1.349    62 H    0.972
    39   6 C    3.903 --    38 C    1.349    40 C    1.225    43 N    1.172
    40   6 C    3.954 --    41 C    1.602    39 C    1.225    63 H    0.977
    41   6 C    3.958 --    40 C    1.602    42 C    1.226    64 H    0.977
    42   6 C    3.897 --    44 C    1.342    41 C    1.226    43 N    1.174
    43   7 N    3.472 --    42 C    1.174    39 C    1.172    65 H    0.873
    44   6 C    3.945 --    45 C    1.379    42 C    1.342    66 H    0.971
    45   6 C    3.915 --    44 C    1.379    48 N    1.277    46 C    1.119
    46   6 C    3.965 --    47 C    1.717    45 C    1.119    67 H    0.976
    47   6 C    3.964 --    46 C    1.717    49 C    1.124    68 H    0.975
    48   7 N    3.026 --    49 C    1.353    45 C    1.277
    49   6 C    3.908 --    48 N    1.353    50 C    1.250    47 C    1.124
    50   6 C    3.942 --    51 C    1.253    49 C    1.250    86 C    1.195
    51   6 C    3.884 --    50 C    1.253    52 C    1.245    55 N    1.193
    52   6 C    3.959 --    53 C    1.589    51 C    1.245    69 H    0.975
    53   6 C    3.953 --    52 C    1.589    54 C    1.233    70 H    0.977
    54   6 C    3.899 --    56 C    1.350    53 C    1.233    55 N    1.162
    55   7 N    3.476 --    51 C    1.193    54 C    1.162    71 H    0.873
    56   6 C    3.929 --    57 C    1.364    54 C    1.350    72 H    0.971
    57   6 C    3.930 --    56 C    1.364    61 N    1.309    58 C    1.112
    58   6 C    3.967 --    59 C    1.730    57 C    1.112    73 H    0.976
    59   6 C    3.966 --    58 C    1.730    60 C    1.113    74 H    0.976
    60   6 C    3.929 --    38 C    1.364    61 N    1.308    59 C    1.113
    61   7 N    3.016 --    57 C    1.309    60 C    1.308
    62   1 H    1.002 --    38 C    0.972
    63   1 H    0.998 --    40 C    0.977
    64   1 H    0.998 --    41 C    0.977
    65   1 H    0.986 --    43 N    0.873
    66   1 H    1.002 --    44 C    0.971
    67   1 H    0.998 --    46 C    0.976
    68   1 H    1.002 --    47 C    0.975
    69   1 H    1.001 --    52 C    0.975
    70   1 H    0.998 --    53 C    0.977
    71   1 H    0.987 --    55 N    0.873
    72   1 H    1.002 --    56 C    0.971
    73   1 H    0.998 --    58 C    0.976
    74   1 H    0.998 --    59 C    0.976
    75   6 C    3.925 --    76 C    2.364    79 C    1.339    78 C    0.190
    76   6 C    3.923 --    75 C    2.364    77 C    1.338    80 C    0.189
    77   6 C    3.932 --    78 C    2.445    76 C    1.338
    78   6 C    3.890 --    77 C    2.445    13 C    1.195    75 C    0.190
    79   6 C    3.929 --    80 C    2.443    75 C    1.339
    80   6 C    3.891 --    79 C    2.443    87 C    1.198    76 C    0.189
    81   6 C    3.923 --    82 C    2.364    85 C    1.338    84 C    0.189
    82   6 C    3.925 --    81 C    2.364    83 C    1.338    86 C    0.190
    83   6 C    3.929 --    84 C    2.443    82 C    1.338
    84   6 C    3.891 --    83 C    2.443    99 C    1.198    81 C    0.189
    85   6 C    3.932 --    86 C    2.446    81 C    1.338
    86   6 C    3.890 --    85 C    2.446    50 C    1.195    82 C    0.190
    87   6 C    3.928 --   109 C    1.250    88 C    1.248    80 C    1.198
    88   6 C    3.885 --    89 C    1.249    87 C    1.248    92 N    1.193
    89   6 C    3.956 --    90 C    1.583    88 C    1.249   111 H    0.975
    90   6 C    3.954 --    89 C    1.583    91 C    1.238   112 H    0.977
    91   6 C    3.894 --    93 C    1.339    90 C    1.238    92 N    1.164
    92   7 N    3.473 --    88 C    1.193    91 C    1.164   113 H    0.872
    93   6 C    3.932 --    94 C    1.382    91 C    1.339   114 H    0.970
    94   6 C    3.917 --    93 C    1.382    97 N    1.275    95 C    1.119
    95   6 C    3.965 --    96 C    1.716    94 C    1.119   115 H    0.976
    96   6 C    3.964 --    95 C    1.716    98 C    1.125   116 H    0.975
    97   7 N    3.014 --    98 C    1.353    94 C    1.275
    98   6 C    3.908 --    97 N    1.353    99 C    1.250    96 C    1.125
    99   6 C    3.928 --    98 C    1.250   100 C    1.248    84 C    1.198
   100   6 C    3.885 --   101 C    1.249    99 C    1.248   104 N    1.193
   101   6 C    3.956 --   102 C    1.583   100 C    1.249   117 H    0.975
   102   6 C    3.954 --   101 C    1.583   103 C    1.238   118 H    0.977
   103   6 C    3.894 --   105 C    1.339   102 C    1.238   104 N    1.164
   104   7 N    3.473 --   100 C    1.193   103 C    1.164   119 H    0.872
   105   6 C    3.932 --   106 C    1.382   103 C    1.339   120 H    0.970
   106   6 C    3.917 --   105 C    1.382   110 N    1.275   107 C    1.119
   107   6 C    3.965 --   108 C    1.716   106 C    1.119   121 H    0.976
   108   6 C    3.964 --   107 C    1.716   109 C    1.125   122 H    0.975
   109   6 C    3.908 --   110 N    1.353    87 C    1.250   108 C    1.125
   110   7 N    3.014 --   109 C    1.353   106 C    1.275
   111   1 H    1.001 --    89 C    0.975
   112   1 H    0.998 --    90 C    0.977
   113   1 H    0.986 --    92 N    0.872
   114   1 H    1.002 --    93 C    0.970
   115   1 H    0.998 --    95 C    0.976
   116   1 H    1.002 --    96 C    0.975
   117   1 H    1.001 --   101 C    0.975
   118   1 H    0.998 --   102 C    0.977
   119   1 H    0.986 --   104 N    0.872
   120   1 H    1.002 --   105 C    0.970
   121   1 H    0.998 --   107 C    0.976
   122   1 H    1.002 --   108 C    0.975
 ---------------------------------------------------------------------------

           -------------------------------------------------
          | TOTAL ENERGY             -210.573949056936 Eh   |
          | GRADIENT NORM               0.000648148697 Eh/α |
          | HOMO-LUMO GAP               0.881750660449 eV   |
           -------------------------------------------------

 * finished run on 2022/07/26 at 15:50:54.753
