   * xtb version 6.5.1 (b24c23e) compiled by 'conda@728c89f4b128' on 2022-07-12
          program call               : xtb Zn_Py_C2_4.xyz --gfn 1 --opt -T 48

   ID    Z sym.   atoms
    1   30 Zn     1, 55, 115, 168
    2    6 C      2-6, 8-11, 13-17, 19-24, 26-29, 31-36, 56-60, 62-65, 67-71,
                  73-78, 80-83, 85-90, 109-114, 116-120, 122-125, 127-131,
                  133-138, 140-143, 145-150, 169-173, 175-178, 180-184,
                  186-191, 193-196, 198-203
    3    7 N      7, 12, 18, 25, 30, 37, 61, 66, 72, 79, 84, 91, 121, 126,
                  132, 139, 144, 151, 174, 179, 185, 192, 197, 204
    4    1 H      38-54, 92-108, 152-167, 205-220

          :  Hamiltonian                  GFN1-xTB          :
 * total energy  :  -380.8579160 Eh     change       -0.5557581E-09 Eh
 * total energy  :  -381.0564037 Eh     change       -0.1984877E+00 Eh
 * total energy  :  -381.1902308 Eh     change       -0.1338271E+00 Eh
 * total energy  :  -381.2652211 Eh     change       -0.7499022E-01 Eh
 * total energy  :  -381.3146235 Eh     change       -0.4940248E-01 Eh
 * total energy  :  -381.3414290 Eh     change       -0.2680541E-01 Eh
 * total energy  :  -381.3636844 Eh     change       -0.2225546E-01 Eh
 * total energy  :  -381.3817848 Eh     change       -0.1810040E-01 Eh
 * total energy  :  -381.3963385 Eh     change       -0.1455372E-01 Eh
 * total energy  :  -381.4073426 Eh     change       -0.1100409E-01 Eh
 * total energy  :  -381.4613873 Eh     change       -0.1344306E-04 Eh
 * total energy  :  -381.4613997 Eh     change       -0.1237763E-04 Eh
 * total energy  :  -381.4614120 Eh     change       -0.1228623E-04 Eh
 * total energy  :  -381.4614268 Eh     change       -0.1479145E-04 Eh
 * total energy  :  -381.4614459 Eh     change       -0.1915335E-04 Eh
 * total energy  :  -381.4614685 Eh     change       -0.2258079E-04 Eh
 * total energy  :  -381.4614918 Eh     change       -0.2330202E-04 Eh
 * total energy  :  -381.4615140 Eh     change       -0.2213783E-04 Eh
 * total energy  :  -381.4615184 Eh     change       -0.4440306E-05 Eh
   *** GEOMETRY OPTIMIZATION CONVERGED AFTER 94 ITERATIONS ***

 final structure:
================
220
 xtb: 6.5.1 (b24c23e)
Zn          40.89365607129898       -0.02117441515168       -0.03193992162114
C           37.48209369101559       -0.02887109423283       -0.05677891129767
C           38.10189015542306       -1.25005123638587        0.17930613998243
C           37.41737222886273       -2.48489425545355        0.44365058079218
C           38.36824201160955       -3.43134549663138        0.64265111878187
C           39.64669982429424       -2.78771762271311        0.49149652984566
N           39.44949348341616       -1.46585847235308        0.21773382180171
C           40.89309580495883       -3.40925691533212        0.63215401286461
C           40.89671272157844       -4.86272149830812        0.92672077103481
C           41.44600180914063       -5.35946454691392        2.10856155557098
C           41.42642710226524       -6.72520171973883        2.34245078528961
N           40.90899413214314       -7.59973949860646        1.48536162693605
C           40.38531955640296       -7.13522961808161        0.35543612217810
C           40.35335026050821       -5.78711676896719        0.03523650312872
C           42.13809490761418       -2.78025153257529        0.51806300696616
C           43.41058666741812       -3.44251491302099        0.59776705836240
C           44.36558543225685       -2.49666148971499        0.40907290906581
N           42.34468209065855       -1.44911154365854        0.27373891555422
C           43.68917083830611       -1.24858939212664        0.21020208528718
C           44.33085096667296       -0.01841246059567       -0.03418127773165
C           43.68709008068740        1.21269032498051       -0.26826630513687
C           44.36200627975726        2.45273994173637       -0.51608662033121
C           43.40550956585628        3.40039916608377       -0.68741480921145
C           42.13363840173995        2.74953274111368       -0.53606840389285
N           42.34223566446192        1.41905500599210       -0.28945443645208
C           40.88739534530877        3.37513246875788       -0.65424076533102
C           40.88556924470205        4.83721058477382       -0.90276817048204
C           40.33437199954172        5.37634587257194       -2.06474767530456
C           40.35586028048078        6.74968867813917       -2.24984304921375
N           40.87737650718093        7.59241794583122       -1.36400641728399
C           41.40356938491728        7.08725025686646       -0.25273760898067
C           41.43313408332093        5.72873413685359        0.01941175249794
C           39.64212413490748        2.74318565213285       -0.55472060184497
C           38.36258365043085        3.39643461098620       -0.64227320173249
C           37.41333996634371        2.44133220709886       -0.48042562197221
C           38.09993651168110        1.19561435554141       -0.28054348622657
N           39.44716935469563        1.41222371519139       -0.32751503061957
H           36.39645994998640       -0.02892873095508       -0.05289200109379
H           36.34520889236548       -2.59925431217155        0.47778424375966
H           38.22186964803753       -4.47239550942575        0.88223397800581
H           41.86913218045717       -4.68300741708724        2.84171490124155
H           41.84462318919233       -7.13439647710626        3.25756133432050
H           39.97311503313936       -7.87386585823743       -0.32594620759033
H           39.92690302115607       -5.45641949776917       -0.90438303160059
H           43.55333015027423       -4.49868939507910        0.76012898911918
H           45.43531652815894       -2.62983895782532        0.39274992429952
H           45.43219420433769        2.57781019609669       -0.55331282148251
H           43.54743214079325        4.44605019937817       -0.90807137763118
H           39.90899822843513        4.72740596987793       -2.82107641094247
H           39.93606294012868        7.19175710741777       -3.14878976132852
H           41.81982926978698        7.80044718948104        0.45285987678132
H           41.86198943880586        5.36378742245629        0.94518078108685
H           38.21422981875398        4.45323731301524       -0.79637184666921
H           36.34105611710188        2.55936107628639       -0.48569412630084
Zn          73.65793604615276        0.05427875521334       -0.01589520392449
C           77.06894488988006        0.04440017163752       -0.05416915138164
C           76.45095042183819        1.26046611131434       -0.31958902099606
C           77.13715172847623        2.49679842204560       -0.57257779794609
C           76.18759039492305        3.44579928624285       -0.76547934034034
C           74.90818472939719        2.79822129805298       -0.64144745351823
N           75.10361917159133        1.47657443124293       -0.36545584029992
C           73.66315819817619        3.42896645761842       -0.74893977993521
C           73.66419647665353        4.88104200536459       -1.05137889990087
C           73.13894019304207        5.80810665730321       -0.15163027311879
C           73.16463913600749        7.15524793650826       -0.47576766015303
N           73.66641580726832        7.61646374683686       -1.61704852523416
C           74.16688326621589        6.73952696259923       -2.48151785381580
C           74.19070777475154        5.37413219100754       -2.24472842448054
C           72.41736652406351        2.81111958490991       -0.59217093747164
C           71.14465244065981        3.46039809861744       -0.74436775433679
C           70.18877469285557        2.52044969774032       -0.53218163120550
N           72.20993566829010        1.48926446935917       -0.30288995101705
C           70.86503581128518        1.28648541362986       -0.25828531793532
C           70.22286117169038        0.06352143279426        0.01557616241397
C           70.86366888936688       -1.16142207070856        0.28412187627626
C           70.18605278107951       -2.40370828829335        0.51324898663211
C           71.14071917844618       -3.34842851170131        0.70892134620766
C           72.41406786810612       -2.69065569280591        0.60660721853807
N           72.20831116937268       -1.36387791094775        0.33943251943713
C           73.65932452318694       -3.31853955448535        0.72575320761736
C           73.65727077647163       -4.76765325834162        1.03981663662666
C           74.20890599922598       -5.70110895114573        0.16267457673669
C           74.17782935870102       -7.04553765579968        0.49772960504679
N           73.64686929241765       -7.49857195122866        1.62897529675521
C           73.12149127178002       -6.61557353500325        2.47240205360153
C           73.10107942193534       -5.25247153935377        2.22339354559700
C           74.90526587354353       -2.69900471330193        0.57135067151457
C           76.18407916549759       -3.33761844374297        0.74004269141550
C           77.13448579567850       -2.39555024641576        0.51924314753060
C           76.44944098614423       -1.16861804162690        0.22159656824008
N           75.10190404118580       -1.38409915024584        0.26559213304345
H           78.15458456263534        0.04396221087216       -0.05285377423222
H           78.20948421686325        2.61317419162062       -0.59069929174187
H           76.33524501165694        4.49536463198994       -0.96361580511198
H           72.73008315331261        5.47932768533041        0.79646256171792
H           72.76583953128507        7.89579510485803        0.21149637648267
H           74.56661568387865        7.14611542610431       -3.40600705501470
H           74.59847465540535        4.69584399069463       -2.98484430362977
H           71.00195849923395        4.49979535197793       -0.99239076728804
H           69.11822125228282        2.64641007733804       -0.55755846405445
H           69.11576738356308       -2.53414809976573        0.51040447651949
H           70.99649628727343       -4.40126273271190        0.89038414971213
H           74.64096890789145       -5.38006408978959       -0.77775116472677
H           74.59706082203857       -7.79077050521405       -0.17210173316638
H           72.69710397041001       -7.01539838961591        3.38880435674751
H           72.67196481996831       -4.56898270538470        2.94646878827152
H           76.33101017206243       -4.37205209815100        1.00646705136367
H           78.20667235732587       -2.50798319987313        0.55841269464594
C           45.74086372539967       -0.02009884165909       -0.04855526975086
C           46.95789729083928       -0.02059084290303       -0.05791861544811
C           56.66823148388974        0.00228554600018       -0.01932116880841
C           57.88625580273914        0.00443515785972       -0.01772949062405
C           67.59553793644353        0.05633846120555        0.00208290928157
C           68.81215004937168        0.06272120583527        0.01134816895293
Zn          51.81176851076525       -0.01734959444583       -0.04920476920236
C           48.36748213736948       -0.02176545180090       -0.06062937320837
C           49.01183148060793       -1.02270222565503        0.69301775758552
C           48.33873557884000       -2.00042433196372        1.49554847536617
C           49.29530912798485       -2.78863290418313        2.04957417766216
C           50.56386700381228       -2.30153847824610        1.58558304490640
N           50.35590844626358       -1.21906214934035        0.77394060424506
C           51.80998902253108       -2.84119539458246        1.92312175628052
C           51.80937106394167       -4.05239953249300        2.77872282724396
C           51.20856017308058       -5.23884623260350        2.35899520070703
C           51.23320376787043       -6.34272017480036        3.19659119553453
N           51.80213560525920       -6.32846640384925        4.39783659383919
C           52.37561957676523       -5.20113367844510        4.80670031229681
C           52.40759391701733       -4.04814610719524        4.03854820866383
C           53.05616890778845       -2.34049549299734        1.53083529738414
C           54.32294218303422       -2.94897613181614        1.82433777368668
C           55.28091744081298       -2.15877130997051        1.27569311263169
N           53.26718841646564       -1.20406322885840        0.79664887803593
C           54.61152309478391       -1.06264873504438        0.64108076705186
C           55.25934079670180       -0.00233164059692       -0.02548867195114
C           54.61142138803864        1.05212611120239       -0.70127365396959
C           55.28021523114546        2.15272631047194       -1.32880219429673
C           54.32354439981287        2.93101480505979       -1.89638865624755
C           53.05815099650352        2.31135399875892       -1.62065991676223
N           53.26839135042114        1.18025300579943       -0.87822911205837
C           51.81369169170925        2.79968291551368       -2.03394343512728
C           51.81801806918423        4.00272439853724       -2.90091267585177
C           52.43675709318292        3.98955350238134       -4.15081803000757
C           52.41158680874566        5.13485868924734       -4.93059027199303
N           51.82561303995773        6.26299812652887       -4.54217569775085
C           51.23664562998189        6.28564499918554       -3.35076721822068
C           51.20414590166478        5.18989181759479       -2.50278950659987
C           50.56696563486005        2.25549793784915       -1.70600145829594
C           49.29987080277137        2.73545806337017       -2.18154907951901
C           48.34208513399546        1.94877406207425       -1.62739201628424
C           49.01310293153274        0.97766721715948       -0.81511338293529
N           50.35706831429002        1.17695593630943       -0.88962399695778
H           47.27052598845334       -2.06381941534022        1.62664833272156
H           49.15558764020129       -3.61726480901287        2.72484332580766
H           50.74215775286896       -5.30081003581599        1.38292672532234
H           50.77588989945165       -7.27873871922565        2.88926706567846
H           52.82945339265293       -5.21952832370010        5.79331523789385
H           52.87674198322334       -3.14825847199756        4.41831099333848
H           54.46038787560976       -3.87088731639451        2.36597454361403
H           56.34802493982126       -2.30928859500166        1.28577479600490
H           56.34567902413479        2.31457555222352       -1.32084449033268
H           54.46068805261669        3.85221948562142       -2.43929055448550
H           52.91705826077882        3.08867265178609       -4.51395069481997
H           52.88193255886296        5.14625698608736       -5.90955435360740
H           50.76970251884787        7.22220128305638       -3.06002779076971
H           50.72203947484667        5.25913280884654       -1.53488430073865
H           49.16182777040572        3.55911222001404       -2.86323607424481
H           47.27444519647968        2.00829723384460       -1.76499777789450
Zn          62.74343254680007        0.02392695392289       -0.01380012065803
C           59.29518164647468        0.00868768469547       -0.01745298327141
C           59.94573419362457       -0.80540262052444        0.93235395827912
C           59.27923060999574       -1.59436856224866        1.92525056977129
C           60.23886129061220       -2.25810493265888        2.61922128164310
C           61.50391992222964       -1.88016894212410        2.05512311401249
N           61.29023728144754       -0.98353978248277        1.04269294821963
C           62.75095247247021       -2.34321876015336        2.48892188268095
C           62.75231886207214       -3.36788256549093        3.56106994889005
C           62.15948934250721       -4.61533898836621        3.36768689083952
C           62.19147551250402       -5.54612461633876        4.39388032853381
N           62.76021359817300       -5.30702323015100        5.57130211905234
C           63.32361553165590       -4.11893370060804        5.76583979134935
C           63.34738638526905       -3.12634039696148        4.79887445326176
C           63.99620749994230       -1.92863041789268        2.00396894287508
C           65.26762686615669       -2.44001409368511        2.43328869909039
C           66.22221848524335       -1.77043343723246        1.73796571759653
N           64.20066365999106       -0.97564049650680        1.04303256759900
C           65.54482783354420       -0.85439240762058        0.86872098563255
C           66.18536503902064        0.04763048800804       -0.00282608044190
C           65.53838812383161        0.93816448794426       -0.88128381504313
C           66.20873838709137        1.85689895728888       -1.75309430990396
C           65.24962327543238        2.50579383132702       -2.46175405306023
C           63.98267195957262        1.98012684691516       -2.03655991244367
N           64.19384106158601        1.03934062968003       -1.06517585241451
C           62.73527707421609        2.37176528963372       -2.53499743038023
C           62.73155261953968        3.37499689746879       -3.62733114123146
C           63.33597030808243        3.11143733902402       -4.85618741174037
C           63.30598345154218        4.08049737720172       -5.84643091274841
N           62.72811740758019        5.26630964868856       -5.68253481245280
C           62.15116399986285        5.52660340560113       -4.51370205998959
C           62.12423675408672        4.61987772040940       -3.46587847000214
C           61.49144966434083        1.90057754217686       -2.10103109793671
C           60.22451566684078        2.25914528229408       -2.67342381409133
C           59.26915115528211        1.59580106274161       -1.97318268833044
C           59.94043179475909        0.82401868920173       -0.97005570290392
N           61.28336538725556        1.01400401790066       -1.07842886157638
H           58.21280991735194       -1.62336484073013        2.07819119573017
H           60.10397276094197       -2.93190888470677        3.44987928386830
H           61.69419088911565       -4.85863735963717        2.41982903963333
H           61.74157436982520       -6.52614824999125        4.26407245522650
H           63.77708110438400       -3.95229549353182        6.73864406715048
H           63.80867060851202       -2.16822662329411        5.00701863283282
H           65.41108046676709       -3.21778054514698        3.16584250539878
H           67.29234576152318       -1.88450336534196        1.80351885621427
H           67.27759169369976        1.98572279672577       -1.81205163960396
H           65.38690572856551        3.27877873953346       -3.20055044211258
H           63.80919829477953        2.15397639344510       -5.03904278462420
H           63.76592016523114        3.89605910845885       -6.81295914643880
H           61.68994899143479        6.50438841415505       -4.40912928024443
H           61.65141737322723        4.88036028152435       -2.52635555120661
H           60.08543035752251        2.92069952280741       -3.51318752989687
H           58.20300437375223        1.61244102162894       -2.12980366188025

          :  Hamiltonian                  GFN1-xTB          :
         :: total energy            -381.461518403867 Eh    ::
         :: gradient norm              0.000533707662 Eh/a0 ::
         :: HOMO-LUMO gap              0.844092231928 eV    ::
         :: SCC energy              -387.431624852115 Eh    ::
         :: repulsion energy           6.180598123210 Eh    ::

    * Orbital Energies and Occupations

         #    Occupation            Energy/Eh            Energy/eV
      -------------------------------------------------------------
         1        2.0000           -0.7657469             -20.8370
       ...           ...                  ...                  ...
       337        2.0000           -0.4188728             -11.3981
       338        2.0000           -0.4186945             -11.3933
       339        2.0000           -0.4186718             -11.3926
       340        2.0000           -0.4185720             -11.3899
       341        2.0000           -0.4185057             -11.3881
       342        2.0000           -0.3992344             -10.8637
       343        2.0000           -0.3992049             -10.8629
       344        2.0000           -0.3987148             -10.8496
       345        2.0000           -0.3983571             -10.8398
       346        2.0000           -0.3982507             -10.8370
       347        2.0000           -0.3922289             -10.6731
       348        2.0000           -0.3848826             -10.4732
       349        2.0000           -0.3775919             -10.2748 (HOMO)
       350        0.0000           -0.3465721              -9.4307 (LUMO)
       351                         -0.3380302              -9.1983
       352                         -0.3328519              -9.0574
       353                         -0.3328010              -9.0560
       354                         -0.3321274              -9.0376
       355                         -0.3320201              -9.0347
       356                         -0.3296592              -8.9705
       357                         -0.3219805              -8.7615
       358                         -0.3056132              -8.3162
       359                         -0.2993705              -8.1463
       360                         -0.2955946              -8.0435
       ...                                ...                  ...
       748                          1.3369789              36.3810
      -------------------------------------------------------------
                  HL-Gap            0.0310198 Eh            0.8441 eV

Wiberg/Mayer (AO) data.
largest (>0.10) Wiberg bond orders for each atom

     #   Z sym  total        # sym  WBO       # sym  WBO       # sym  WBO
 ---------------------------------------------------------------------------
     1  30 Zn   1.996 --    37 N    0.459     7 N    0.459    18 N    0.456
                            25 N    0.456
     2   6 C    3.928 --    36 C    1.358     3 C    1.357    38 H    0.971
     3   6 C    3.921 --     2 C    1.357     7 N    1.233     4 C    1.170
     4   6 C    3.960 --     5 C    1.660     3 C    1.170    39 H    0.976
     5   6 C    3.963 --     4 C    1.660     6 C    1.171    40 H    0.973
     6   6 C    3.919 --     8 C    1.315     7 N    1.244     5 C    1.171
     7   7 N    3.293 --     6 C    1.244     3 C    1.233     1 Zn   0.459
     8   6 C    3.933 --    15 C    1.321     6 C    1.315     9 C    1.029
     9   6 C    3.985 --    14 C    1.392    10 C    1.392     8 C    1.029
                            12 N    0.107
    10   6 C    3.987 --    11 C    1.443     9 C    1.392    41 H    0.973
                            13 C    0.108
    11   6 C    3.972 --    10 C    1.443    12 N    1.415    42 H    0.972
                            14 C    0.108
    12   7 N    3.029 --    13 C    1.415    11 C    1.415     9 C    0.107
    13   6 C    3.972 --    14 C    1.442    12 N    1.415    43 H    0.972
                            10 C    0.108
    14   6 C    3.987 --    13 C    1.442     9 C    1.392    44 H    0.973
                            11 C    0.108
    15   6 C    3.914 --     8 C    1.321    18 N    1.228    16 C    1.179
    16   6 C    3.960 --    17 C    1.646    15 C    1.179    45 H    0.973
    17   6 C    3.962 --    16 C    1.646    19 C    1.186    46 H    0.971
    18   7 N    3.297 --    19 C    1.260    15 C    1.228     1 Zn   0.456
    19   6 C    3.907 --    18 N    1.260    20 C    1.260    17 C    1.186
    20   6 C    3.939 --    19 C    1.260    21 C    1.260   109 C    1.177
    21   6 C    3.907 --    25 N    1.260    20 C    1.260    22 C    1.186
    22   6 C    3.962 --    23 C    1.646    21 C    1.186    47 H    0.971
    23   6 C    3.960 --    22 C    1.646    24 C    1.179    48 H    0.973
    24   6 C    3.914 --    26 C    1.321    25 N    1.227    23 C    1.179
    25   7 N    3.297 --    21 C    1.260    24 C    1.227     1 Zn   0.456
    26   6 C    3.933 --    24 C    1.321    33 C    1.314    27 C    1.029
    27   6 C    3.985 --    28 C    1.392    32 C    1.392    26 C    1.029
                            30 N    0.107
    28   6 C    3.987 --    29 C    1.442    27 C    1.392    49 H    0.973
                            31 C    0.108
    29   6 C    3.972 --    28 C    1.442    30 N    1.415    50 H    0.972
                            32 C    0.108
    30   7 N    3.029 --    29 C    1.415    31 C    1.415    27 C    0.107
    31   6 C    3.972 --    32 C    1.443    30 N    1.415    51 H    0.972
                            28 C    0.108
    32   6 C    3.987 --    31 C    1.443    27 C    1.392    52 H    0.973
                            29 C    0.108
    33   6 C    3.919 --    26 C    1.314    37 N    1.244    34 C    1.171
    34   6 C    3.963 --    35 C    1.660    33 C    1.171    53 H    0.973
    35   6 C    3.960 --    34 C    1.660    36 C    1.170    54 H    0.976
    36   6 C    3.921 --     2 C    1.358    37 N    1.233    35 C    1.170
    37   7 N    3.293 --    33 C    1.244    36 C    1.233     1 Zn   0.459
    38   1 H    1.001 --     2 C    0.971
    39   1 H    0.998 --     4 C    0.976
    40   1 H    1.005 --     5 C    0.973
    41   1 H    1.004 --    10 C    0.973
    42   1 H    1.013 --    11 C    0.972
    43   1 H    1.013 --    13 C    0.972
    44   1 H    1.004 --    14 C    0.973
    45   1 H    1.004 --    16 C    0.973
    46   1 H    1.005 --    17 C    0.971
    47   1 H    1.005 --    22 C    0.971
    48   1 H    1.005 --    23 C    0.973
    49   1 H    1.004 --    28 C    0.973
    50   1 H    1.013 --    29 C    0.972
    51   1 H    1.013 --    31 C    0.972
    52   1 H    1.004 --    32 C    0.973
    53   1 H    1.005 --    34 C    0.973
    54   1 H    0.998 --    35 C    0.976
    55  30 Zn   1.996 --    91 N    0.460    61 N    0.459    72 N    0.456
                            79 N    0.456
    56   6 C    3.929 --    90 C    1.358    57 C    1.358    92 H    0.971
    57   6 C    3.921 --    56 C    1.358    61 N    1.233    58 C    1.170
    58   6 C    3.960 --    59 C    1.660    57 C    1.170    93 H    0.976
    59   6 C    3.963 --    58 C    1.660    60 C    1.171    94 H    0.973
    60   6 C    3.919 --    62 C    1.315    61 N    1.244    59 C    1.171
    61   7 N    3.294 --    60 C    1.244    57 C    1.233    55 Zn   0.459
    62   6 C    3.933 --    69 C    1.321    60 C    1.315    63 C    1.028
    63   6 C    3.985 --    68 C    1.393    64 C    1.392    62 C    1.028
                            66 N    0.107
    64   6 C    3.987 --    65 C    1.443    63 C    1.392    95 H    0.973
                            67 C    0.108
    65   6 C    3.972 --    64 C    1.443    66 N    1.415    96 H    0.972
                            68 C    0.108
    66   7 N    3.029 --    67 C    1.415    65 C    1.415    63 C    0.107
    67   6 C    3.972 --    68 C    1.442    66 N    1.415    97 H    0.972
                            64 C    0.108
    68   6 C    3.987 --    67 C    1.442    63 C    1.393    98 H    0.973
                            65 C    0.108
    69   6 C    3.914 --    62 C    1.321    72 N    1.228    70 C    1.179
    70   6 C    3.960 --    71 C    1.646    69 C    1.179    99 H    0.973
    71   6 C    3.962 --    70 C    1.646    73 C    1.185   100 H    0.971
    72   7 N    3.297 --    73 C    1.259    69 C    1.228    55 Zn   0.456
    73   6 C    3.908 --    74 C    1.262    72 N    1.259    71 C    1.185
    74   6 C    3.939 --    73 C    1.262    75 C    1.262   114 C    1.173
    75   6 C    3.908 --    74 C    1.262    79 N    1.259    76 C    1.185
    76   6 C    3.962 --    77 C    1.646    75 C    1.185   101 H    0.971
    77   6 C    3.960 --    76 C    1.646    78 C    1.179   102 H    0.973
    78   6 C    3.914 --    80 C    1.320    79 N    1.228    77 C    1.179
    79   7 N    3.297 --    75 C    1.259    78 C    1.228    55 Zn   0.456
    80   6 C    3.933 --    78 C    1.320    87 C    1.315    81 C    1.030
    81   6 C    3.985 --    82 C    1.392    86 C    1.391    80 C    1.030
                            84 N    0.106
    82   6 C    3.987 --    83 C    1.443    81 C    1.392   103 H    0.973
                            85 C    0.108
    83   6 C    3.972 --    82 C    1.443    84 N    1.415   104 H    0.972
                            86 C    0.108
    84   7 N    3.029 --    83 C    1.415    85 C    1.415    81 C    0.106
    85   6 C    3.972 --    86 C    1.443    84 N    1.415   105 H    0.972
                            82 C    0.108
    86   6 C    3.987 --    85 C    1.443    81 C    1.391   106 H    0.973
                            83 C    0.108
    87   6 C    3.919 --    80 C    1.315    91 N    1.244    88 C    1.171
    88   6 C    3.963 --    89 C    1.660    87 C    1.171   107 H    0.973
    89   6 C    3.960 --    88 C    1.660    90 C    1.170   108 H    0.976
    90   6 C    3.921 --    56 C    1.358    91 N    1.233    89 C    1.170
    91   7 N    3.294 --    87 C    1.244    90 C    1.233    55 Zn   0.460
    92   1 H    1.001 --    56 C    0.971
    93   1 H    0.998 --    58 C    0.976
    94   1 H    1.005 --    59 C    0.973
    95   1 H    1.004 --    64 C    0.973
    96   1 H    1.013 --    65 C    0.972
    97   1 H    1.013 --    67 C    0.972
    98   1 H    1.004 --    68 C    0.973
    99   1 H    1.004 --    70 C    0.973
   100   1 H    1.005 --    71 C    0.971
   101   1 H    1.005 --    76 C    0.971
   102   1 H    1.005 --    77 C    0.973
   103   1 H    1.004 --    82 C    0.973
   104   1 H    1.013 --    83 C    0.972
   105   1 H    1.013 --    85 C    0.972
   106   1 H    1.004 --    86 C    0.973
   107   1 H    1.005 --    88 C    0.973
   108   1 H    0.998 --    89 C    0.976
   109   6 C    3.930 --   110 C    2.576    20 C    1.177
   110   6 C    3.933 --   109 C    2.576   116 C    1.178
   111   6 C    3.931 --   112 C    2.569   134 C    1.185
   112   6 C    3.931 --   111 C    2.569   169 C    1.185
   113   6 C    3.933 --   114 C    2.578   187 C    1.174
   114   6 C    3.930 --   113 C    2.578    74 C    1.173
   115  30 Zn   1.993 --   121 N    0.456   132 N    0.456   139 N    0.456
                           151 N    0.456
   116   6 C    3.927 --   150 C    1.258   117 C    1.258   110 C    1.178
   117   6 C    3.907 --   121 N    1.260   116 C    1.258   118 C    1.188
   118   6 C    3.961 --   119 C    1.642   117 C    1.188   152 H    0.971
   119   6 C    3.961 --   118 C    1.642   120 C    1.182   153 H    0.973
   120   6 C    3.912 --   122 C    1.317   121 N    1.227   119 C    1.182
   121   7 N    3.290 --   117 C    1.260   120 C    1.227   115 Zn   0.456
   122   6 C    3.927 --   129 C    1.318   120 C    1.317   123 C    1.030
   123   6 C    3.985 --   124 C    1.392   128 C    1.392   122 C    1.030
                           126 N    0.106
   124   6 C    3.987 --   125 C    1.443   123 C    1.392   154 H    0.973
                           127 C    0.108
   125   6 C    3.972 --   124 C    1.443   126 N    1.415   155 H    0.972
                           128 C    0.108
   126   7 N    3.029 --   125 C    1.415   127 C    1.415   123 C    0.106
   127   6 C    3.972 --   128 C    1.443   126 N    1.415   156 H    0.972
                           124 C    0.108
   128   6 C    3.987 --   127 C    1.443   123 C    1.392   157 H    0.973
                           125 C    0.108
   129   6 C    3.912 --   122 C    1.318   132 N    1.225   130 C    1.182
   130   6 C    3.960 --   131 C    1.642   129 C    1.182   158 H    0.973
   131   6 C    3.960 --   130 C    1.642   133 C    1.189   159 H    0.969
   132   7 N    3.290 --   133 C    1.262   129 C    1.225   115 Zn   0.456
   133   6 C    3.906 --   132 N    1.262   134 C    1.254   131 C    1.189
   134   6 C    3.928 --   133 C    1.254   135 C    1.254   111 C    1.185
   135   6 C    3.906 --   139 N    1.262   134 C    1.254   136 C    1.189
   136   6 C    3.960 --   137 C    1.642   135 C    1.189   160 H    0.969
   137   6 C    3.960 --   136 C    1.642   138 C    1.182   161 H    0.973
   138   6 C    3.912 --   140 C    1.318   139 N    1.226   137 C    1.182
   139   7 N    3.290 --   135 C    1.262   138 C    1.226   115 Zn   0.456
   140   6 C    3.927 --   138 C    1.318   147 C    1.317   141 C    1.030
   141   6 C    3.985 --   146 C    1.392   142 C    1.391   140 C    1.030
                           144 N    0.106
   142   6 C    3.987 --   143 C    1.443   141 C    1.391   162 H    0.973
                           145 C    0.108
   143   6 C    3.972 --   142 C    1.443   144 N    1.415   163 H    0.972
                           146 C    0.108
   144   7 N    3.029 --   145 C    1.415   143 C    1.415   141 C    0.106
   145   6 C    3.972 --   146 C    1.442   144 N    1.415   164 H    0.972
                           142 C    0.108
   146   6 C    3.987 --   145 C    1.442   141 C    1.392   165 H    0.973
                           143 C    0.108
   147   6 C    3.912 --   140 C    1.317   151 N    1.227   148 C    1.181
   148   6 C    3.961 --   149 C    1.643   147 C    1.181   166 H    0.973
   149   6 C    3.961 --   148 C    1.643   150 C    1.188   167 H    0.971
   150   6 C    3.907 --   151 N    1.261   116 C    1.258   149 C    1.188
   151   7 N    3.290 --   150 C    1.261   147 C    1.227   115 Zn   0.456
   152   1 H    1.005 --   118 C    0.971
   153   1 H    1.004 --   119 C    0.973
   154   1 H    1.004 --   124 C    0.973
   155   1 H    1.013 --   125 C    0.972
   156   1 H    1.013 --   127 C    0.972
   157   1 H    1.004 --   128 C    0.973
   158   1 H    1.004 --   130 C    0.973
   159   1 H    1.006 --   131 C    0.969
   160   1 H    1.006 --   136 C    0.969
   161   1 H    1.004 --   137 C    0.973
   162   1 H    1.004 --   142 C    0.973
   163   1 H    1.013 --   143 C    0.972
   164   1 H    1.013 --   145 C    0.972
   165   1 H    1.004 --   146 C    0.973
   166   1 H    1.004 --   148 C    0.973
   167   1 H    1.005 --   149 C    0.971
   168  30 Zn   1.993 --   192 N    0.456   185 N    0.456   174 N    0.456
                           204 N    0.456
   169   6 C    3.928 --   170 C    1.255   203 C    1.254   112 C    1.185
   170   6 C    3.906 --   174 N    1.262   169 C    1.255   171 C    1.188
   171   6 C    3.960 --   172 C    1.642   170 C    1.188   205 H    0.969
   172   6 C    3.960 --   171 C    1.642   173 C    1.182   206 H    0.973
   173   6 C    3.912 --   175 C    1.318   174 N    1.226   172 C    1.182
   174   7 N    3.290 --   170 C    1.262   173 C    1.226   168 Zn   0.456
   175   6 C    3.928 --   173 C    1.318   182 C    1.318   176 C    1.029
   176   6 C    3.985 --   181 C    1.392   177 C    1.392   175 C    1.029
                           179 N    0.107
   177   6 C    3.987 --   178 C    1.443   176 C    1.392   207 H    0.973
                           180 C    0.108
   178   6 C    3.972 --   177 C    1.443   179 N    1.415   208 H    0.972
                           181 C    0.108
   179   7 N    3.029 --   180 C    1.415   178 C    1.415   176 C    0.107
   180   6 C    3.972 --   181 C    1.442   179 N    1.415   209 H    0.972
                           177 C    0.108
   181   6 C    3.987 --   180 C    1.442   176 C    1.392   210 H    0.973
                           178 C    0.108
   182   6 C    3.912 --   175 C    1.318   185 N    1.227   183 C    1.181
   183   6 C    3.961 --   184 C    1.643   182 C    1.181   211 H    0.973
   184   6 C    3.961 --   183 C    1.643   186 C    1.187   212 H    0.971
   185   7 N    3.291 --   186 C    1.259   182 C    1.227   168 Zn   0.456
   186   6 C    3.908 --   185 N    1.259   187 C    1.259   184 C    1.187
   187   6 C    3.927 --   188 C    1.260   186 C    1.259   113 C    1.174
   188   6 C    3.908 --   187 C    1.260   192 N    1.259   189 C    1.187
   189   6 C    3.961 --   190 C    1.643   188 C    1.187   213 H    0.971
   190   6 C    3.961 --   189 C    1.643   191 C    1.181   214 H    0.973
   191   6 C    3.912 --   193 C    1.317   192 N    1.227   190 C    1.181
   192   7 N    3.291 --   188 C    1.259   191 C    1.227   168 Zn   0.456
   193   6 C    3.928 --   200 C    1.319   191 C    1.317   194 C    1.029
   194   6 C    3.985 --   199 C    1.392   195 C    1.392   193 C    1.029
                           197 N    0.107
   195   6 C    3.987 --   196 C    1.443   194 C    1.392   215 H    0.973
                           198 C    0.108
   196   6 C    3.972 --   195 C    1.443   197 N    1.415   216 H    0.972
                           199 C    0.108
   197   7 N    3.029 --   198 C    1.415   196 C    1.415   194 C    0.107
   198   6 C    3.972 --   199 C    1.442   197 N    1.415   217 H    0.972
                           195 C    0.108
   199   6 C    3.987 --   198 C    1.442   194 C    1.392   218 H    0.973
                           196 C    0.108
   200   6 C    3.912 --   193 C    1.319   204 N    1.225   201 C    1.182
   201   6 C    3.960 --   202 C    1.642   200 C    1.182   219 H    0.973
   202   6 C    3.960 --   201 C    1.642   203 C    1.188   220 H    0.969
   203   6 C    3.906 --   204 N    1.262   169 C    1.254   202 C    1.188
   204   7 N    3.290 --   203 C    1.262   200 C    1.225   168 Zn   0.456
   205   1 H    1.006 --   171 C    0.969
   206   1 H    1.004 --   172 C    0.973
   207   1 H    1.004 --   177 C    0.973
   208   1 H    1.013 --   178 C    0.972
   209   1 H    1.013 --   180 C    0.972
   210   1 H    1.004 --   181 C    0.973
   211   1 H    1.005 --   183 C    0.973
   212   1 H    1.005 --   184 C    0.971
   213   1 H    1.005 --   189 C    0.971
   214   1 H    1.004 --   190 C    0.973
   215   1 H    1.004 --   195 C    0.973
   216   1 H    1.013 --   196 C    0.972
   217   1 H    1.013 --   198 C    0.972
   218   1 H    1.004 --   199 C    0.973
   219   1 H    1.004 --   201 C    0.973
   220   1 H    1.006 --   202 C    0.969
 ---------------------------------------------------------------------------

           -------------------------------------------------
          | TOTAL ENERGY             -381.461518403867 Eh   |
          | GRADIENT NORM               0.000533707662 Eh/α |
          | HOMO-LUMO GAP               0.844092231928 eV   |
           -------------------------------------------------

 * finished run on 2022/07/30 at 07:13:51.591
