   * xtb version 6.5.1 (b24c23e) compiled by 'conda@728c89f4b128' on 2022-07-12
          program call               : xtb Cu_PhCHO_C4_3.xyz --gfn 1 --opt -T 48

   ID    Z sym.   atoms
    1   29 Cu     1, 61, 129
    2    6 C      2-6, 8-13, 15-19, 21-26, 28-33, 35-40, 62-66, 68-73, 75-79,
                  81-86, 88-93, 95-100, 121-128, 130-134, 136-141, 143-147,
                  149-154, 156-161, 163-168
    3    7 N      7, 20, 27, 41, 67, 80, 87, 101, 135, 148, 155, 169
    4    8 O      14, 34, 74, 94, 142, 162
    5    1 H      42-60, 102-120, 170-187
########################################################################
[WARNING] Please study the warnings concerning your input carefully
-1- prog_main_parseArguments: Unknown option '-T' provided
########################################################################

          :  Hamiltonian                  GFN1-xTB          :
 * total energy  :  -340.9433945 Eh     change        0.5350500E-08 Eh
 * total energy  :  -341.9600733 Eh     change       -0.1016679E+01 Eh
 * total energy  :  -342.1769690 Eh     change       -0.2168957E+00 Eh
 * total energy  :  -342.2926834 Eh     change       -0.1157144E+00 Eh
 * total energy  :  -342.3524371 Eh     change       -0.5975367E-01 Eh
 * total energy  :  -342.3807181 Eh     change       -0.2828104E-01 Eh
 * total energy  :  -342.3958784 Eh     change       -0.1516034E-01 Eh
 * total energy  :  -342.4022450 Eh     change       -0.6366549E-02 Eh
 * total energy  :  -342.4093601 Eh     change       -0.7115090E-02 Eh
 * total energy  :  -342.4137884 Eh     change       -0.4428281E-02 Eh
 * total energy  :  -342.4305814 Eh     change       -0.1174708E-04 Eh
 * total energy  :  -342.4305955 Eh     change       -0.1403858E-04 Eh
 * total energy  :  -342.4306049 Eh     change       -0.9393314E-05 Eh
 * total energy  :  -342.4306188 Eh     change       -0.1394637E-04 Eh
 * total energy  :  -342.4306339 Eh     change       -0.1508280E-04 Eh
 * total energy  :  -342.4306326 Eh     change        0.1323552E-05 Eh
 * total energy  :  -342.4306431 Eh     change       -0.1055634E-04 Eh
 * total energy  :  -342.4306490 Eh     change       -0.5834328E-05 Eh
 * total energy  :  -342.4306530 Eh     change       -0.4090338E-05 Eh
   *** GEOMETRY OPTIMIZATION CONVERGED AFTER 47 ITERATIONS ***

 final structure:
================
187
 xtb: 6.5.1 (b24c23e)
Cu          32.01197182801236        0.01096054600768       -0.01289926408313
C           28.60886553053245        0.06722087292526       -0.12297173877843
C           29.24794832001078        1.28861509407733        0.02712872290140
C           28.57639259273575        2.54846824800060        0.17255733904784
C           29.53720420165010        3.49289553098816        0.32505052604272
C           30.80595321425293        2.81894130025069        0.26299682242935
N           30.59893948935511        1.48130029560728        0.08670852835738
C           32.05182583536106        3.43547865836520        0.40147123710969
C           32.07106644502299        4.90590273691194        0.59298751355216
C           32.58093399287895        5.45699876340102        1.77249205816261
C           32.59718958120711        6.82653366180731        1.95282994586832
C           32.10957431480778        7.67738067314379        0.95526440899422
C           32.14118672827951        9.13552234150539        1.17016674275623
O           32.56703219968567        9.65574389948558        2.16954948809839
C           31.60256651453080        7.12806443895450       -0.22483163194227
C           31.58106897396059        5.75598270619605       -0.40204786583664
C           33.28233142669684        2.77575803883533        0.37471472586114
C           34.56219620695671        3.42055294859894        0.45957622369098
C           35.50442471825788        2.44894900767609        0.36103514691992
N           33.46539125527513        1.42756816548728        0.21814324816878
C           34.80818830527265        1.20656491755154        0.21016737010473
C           35.43947908718041       -0.04030010331725        0.05869986335261
C           34.77778948341792       -1.26974690858322       -0.10333245566044
C           35.44277413035049       -2.52661406134806       -0.27316445638905
C           34.47653101782048       -3.47181598037473       -0.39365817349217
C           33.21307100412834       -2.79748116922353       -0.29223513736514
N           33.42969907914684       -1.45556682721313       -0.12548400429596
C           31.96541907712281       -3.41815207157448       -0.38549596132080
C           31.94700774688946       -4.89301214264494       -0.53601907453658
C           31.39763492779223       -5.48033555847223       -1.67908062157392
C           31.38357634941597       -6.85633257377287       -1.82272522365198
C           31.91409071176815       -7.67384721231545       -0.82185146669028
C           31.90832458767433       -9.14256639104535       -0.94906194080234
O           32.35052613513842       -9.88837831743984       -0.11307773671756
C           32.46134229679168       -7.08659766078996        0.32378108236347
C           32.48018866911844       -5.71236304676329        0.46374506498993
C           30.73479647562788       -2.75751177598343       -0.35004518593480
C           29.44885294886199       -3.39868917526422       -0.40546738688793
C           28.51244081796381       -2.42041337030300       -0.33837290287232
C           29.21639592596554       -1.17471935773517       -0.22930805781959
N           30.56224283360882       -1.40855704324261       -0.23244194868020
H           27.52412361173831        0.08342460675041       -0.14515636114380
H           27.50567268835022        2.67814558045563        0.16555797963151
H           29.40524567300274        4.55179842055131        0.47880130062582
H           32.94930899823408        4.79929482546286        2.55169696001434
H           32.98549974767632        7.26177387534605        2.86739693380977
H           31.73646916157926        9.72991017395534        0.32322829490608
H           31.22624595084011        7.78119553731598       -1.00551117625273
H           31.19836916387750        5.33301276425667       -1.32410270908503
H           34.71674110498171        4.48203671709652        0.56577132835986
H           36.57719955870368        2.55511485731270        0.38207897777016
H           36.51258597629359       -2.65834548170214       -0.30044936071874
H           34.60444185354766       -4.53035769489258       -0.55181026090910
H           30.99674239618687       -4.84796631409354       -2.46327070702098
H           30.96076028719492       -7.30349538073297       -2.71655029548514
H           31.45946856261312       -9.51647564299575       -1.89395062819050
H           32.86776431598990       -7.72926484757477        1.09738399708890
H           32.89448847494540       -5.26051708220635        1.35796799571746
H           29.28967854861430       -4.46280061328970       -0.47354083000557
H           27.43854627084073       -2.51976575085151       -0.35176625620333
Cu          58.94665665720921       -0.03410522498626       -0.05772130550378
C           62.35145990496945       -0.07516884460216       -0.11255826707208
C           61.71269844490315       -1.30542477649935       -0.14721477607302
C           62.38447780719346       -2.57342023842799       -0.16405060002412
C           61.42325885367919       -3.52966336445377       -0.16661052277101
C           60.15426215282441       -2.85332816170409       -0.16408959749965
N           60.36127591861329       -1.50421420936295       -0.14544790418956
C           58.90705248422672       -3.48229255032223       -0.14868705107699
C           58.88597616484825       -4.96498649759550       -0.16054487829742
C           58.34130637336843       -5.66850003633320        0.91818609855836
C           58.32244571856558       -7.04971278320417        0.91284874857711
C           58.84220872968865       -7.76002446100175       -0.17444920752853
C           58.80546952130752       -9.23362025753964       -0.15877316262300
O           58.34914913368110       -9.88214865753308        0.74799101162617
C           59.38429244103384       -7.05829899063841       -1.25391106231044
C           59.40826804600118       -5.67482267711606       -1.24496126802390
C           57.67563864125166       -2.82430975468364       -0.11679454490831
C           56.39622420407813       -3.47375892777381       -0.16567510447907
C           55.45359633380471       -2.49787280394741       -0.14017552000968
N           57.49227068693844       -1.46793845259435       -0.07397406605462
C           56.14928584645111       -1.24750399044076       -0.08016032531230
C           55.51784729155514        0.00762595410124       -0.03681706679482
C           56.17961573002300        1.24661853983531        0.01088246657203
C           55.51497628330696        2.51500637657432        0.03181127687922
C           56.48132880570734        3.46704246549210        0.06691351329701
C           57.74452898174935        2.78459742131778        0.07426839505170
N           57.52771562769608        1.43307565088949        0.03109885813060
C           58.99227198172481        3.41178624360794        0.08603314327647
C           59.01085671751463        4.89273170805107        0.15755768811081
C           59.56529221625563        5.64371184043058       -0.88257831564430
C           59.58028013927301        7.02572252391900       -0.81890794827741
C           59.04603748723347        7.68490627417233        0.29084690772113
C           59.05279382032726        9.15613867472572        0.38460456373866
O           58.61083681936064        9.76903190538110        1.32242761225172
C           58.49393549335484        6.93353259622441        1.33363285542380
C           58.47368402795041        5.55381637310795        1.26632071012399
C           60.22339843677678        2.75318710027257        0.03532825098440
C           61.50877548372954        3.39566150911426        0.08926003505496
C           62.44604096502272        2.41788721006730        0.02738446463499
C           61.74303081772006        1.16946060601150       -0.05315868509268
N           60.39691435967144        1.40145815778008       -0.04209204973329
H           63.43646822542296       -0.08826353068847       -0.11672364794276
H           63.45545825144237       -2.70115598224987       -0.16457338986729
H           61.55496873472130       -4.59966950366723       -0.15916993687822
H           57.94748338635760       -5.12042791700563        1.76669992894667
H           57.90705122249670       -7.60278464161931        1.74843824926510
H           59.24008970487188       -9.71031340168639       -1.06322571105389
H           59.78578216029664       -7.60162426795798       -2.10318601337664
H           59.81795073620088       -5.13296857646749       -2.08999835069992
H           56.24278495967749       -4.53896130330681       -0.22677225725696
H           54.38100506746217       -2.60530401847430       -0.16383432172663
H           54.44533001166967        2.64985661603866        0.01512587975406
H           56.35394315996679        4.53738204939241        0.07257310796831
H           59.96966006632785        5.13526865117106       -1.75064610092129
H           60.00702772995935        7.60108739032955       -1.63407859785571
H           59.50617850855487        9.66661413210030       -0.49183700100331
H           58.08461857424935        7.45371305769124        2.19300919681188
H           58.05521627527823        4.97374744531200        2.08108609461401
H           61.66679117950211        4.45850378675912        0.17705234386649
H           63.51982950702228        2.51807660621357        0.04302083221613
C           38.06743225208405       -0.06240929983929        0.05616620506032
C           36.84576539792737       -0.05589424359960        0.06006797443603
C           39.41717340281677       -0.06408068691212        0.04626295594160
C           40.63892949275817       -0.05959274232488        0.03645895664899
C           51.53962723595124        0.02810126977069       -0.04873931237307
C           50.31790833008937        0.02031862731117       -0.04555361567359
C           52.88965726706120        0.02948102498870       -0.04848647840879
C           54.11127569219285        0.02263584132334       -0.04514017321661
Cu          45.47880672330960       -0.02013298364221       -0.00382565930628
C           42.04462196123849       -0.04957581657840        0.02563823652113
C           42.68490397282579        1.15968540660478        0.34983497878362
C           41.99919801673353        2.38156384046315        0.64539572532965
C           42.94929072754982        3.30923735558426        0.92685071130441
C           44.22189547987226        2.65576851541578        0.81088984049935
N           44.02831367758929        1.34968499983558        0.44902041821808
C           45.45903302032253        3.27110798257896        1.01511660042285
C           45.44825588677745        4.68204474330530        1.47056434989540
C           46.01820419037995        5.68776672217538        0.68437477251692
C           46.00385344399485        7.00088059729308        1.11382001500743
C           45.42578144769754        7.33769894597245        2.34225650907587
C           45.42682024679474        8.74556851819403        2.78008508026304
O           45.89779399013464        9.64652187194203        2.13445106202393
C           44.85837468914184        6.33318283623960        3.12993805616504
C           44.86669462917204        5.01964156438234        2.69589838831994
C           46.70364592869065        2.66519875084609        0.83041017187762
C           47.96965888213826        3.28612719502121        1.09868348801619
C           48.93020429118141        2.37440951202213        0.80173707437253
N           46.91187799496723        1.38558270997339        0.38971918447114
C           48.25778884725922        1.18918169633759        0.36130021636665
C           48.91189920086521        0.00990068850884       -0.03668763333729
C           48.27126723321138       -1.18105421101738       -0.42210603039766
C           48.95571928536439       -2.35545827349499       -0.87243972373379
C           48.00579455030755       -3.28584087267028       -1.14537828161921
C           46.73462447966880       -2.68675879083519       -0.85323395830933
N           46.92883680482181       -1.40169901549771       -0.42249761529624
C           45.49753703306425       -3.31625875546020       -1.00896191365819
C           45.50358841686337       -4.73133469070511       -1.45119100786898
C           46.10962082784249       -5.71666359114508       -0.66694256576853
C           46.11150101565518       -7.03750921191010       -1.07891375226617
C           45.51283895004240       -7.39838591406239       -2.28844459633709
C           45.50353138599998       -8.79785266715569       -2.75197356520097
O           45.00590972281815       -9.15574611837489       -3.78883056152617
C           44.90958883126999       -6.41180114531692       -3.07550362534951
C           44.90185960526587       -5.09437019866926       -2.66001118720016
C           44.25368891777131       -2.72075445208322       -0.78744369288741
C           42.99013833509555       -3.39548354082689       -0.88064329328905
C           42.02948907794416       -2.48204314354603       -0.58908469174709
C           42.69969246341722       -1.24812727776157       -0.30815063005375
N           44.04430995584003       -1.41645897671456       -0.42770640324632
H           40.92839199254356        2.50682826645904        0.62935691348263
H           42.80514458548431        4.34819150468215        1.17540492869901
H           46.45690263401265        5.43145713222987       -0.27334846702738
H           46.43813335486805        7.78825500502388        0.50713509589239
H           44.95034883919804        8.91572921091645        3.76908448099510
H           44.41091690381432        6.58520478883789        4.08590381370959
H           44.43535956665165        4.24002336938945        3.31373298109012
H           48.10299729077845        4.28604789484857        1.47846012992886
H           50.00010914512024        2.48274894874229        0.87983260499998
H           50.02553628460983       -2.44469216186086       -0.97309853201906
H           48.14942482815128       -4.28456693079167       -1.52469994935212
H           46.56490867088031       -5.44145235025977        0.27777688149132
H           46.57853871274495       -7.79720716373523       -0.46057789968967
H           46.00074846330036       -9.51083287492382       -2.06025494199978
H           44.45052495427438       -6.70038297270141       -4.01497496796717
H           44.44308408668577       -4.33005327751653       -3.27707650909639
H           42.85886091721196       -4.43757151109660       -1.12293469857112
H           40.96113522006802       -2.62393518491779       -0.55685354993805

          :  Hamiltonian                  GFN1-xTB          :
         :: total energy            -342.430653046727 Eh    ::
         :: gradient norm              0.000778994866 Eh/a0 ::
         :: HOMO-LUMO gap              0.000027718508 eV    ::
         :: SCC energy              -347.648111101381 Eh    ::
         :: repulsion energy           5.387005584080 Eh    ::

    * Orbital Energies and Occupations

         #    Occupation            Energy/Eh            Energy/eV
      -------------------------------------------------------------
         1        2.0000           -0.7926124             -21.5681
       ...           ...                  ...                  ...
       301        2.0000           -0.4215145             -11.4700
       302        2.0000           -0.4215074             -11.4698
       303        2.0000           -0.4211148             -11.4591
       304        2.0000           -0.4209610             -11.4549
       305        2.0000           -0.4207297             -11.4486
       306        2.0000           -0.4090695             -11.1313
       307        2.0000           -0.4090574             -11.1310
       308        2.0000           -0.4089486             -11.1281
       309        2.0000           -0.4078186             -11.0973
       310        2.0000           -0.4003678             -10.8946
       311        2.0000           -0.3915393             -10.6543
       312        1.0165           -0.3692042             -10.0466
       313        0.9920           -0.3691517             -10.0451 (HOMO)
       314        0.9915           -0.3691507             -10.0451 (LUMO)
       315        0.0000           -0.3545852              -9.6488
       316                         -0.3450247              -9.3886
       317                         -0.3443224              -9.3695
       318                         -0.3443215              -9.3695
       319                         -0.3440921              -9.3632
       320                         -0.3363160              -9.1516
       321                         -0.3282416              -8.9319
       322                         -0.3276271              -8.9152
       323                         -0.3270226              -8.8987
       324                         -0.3228757              -8.7859
       ...                                ...                  ...
       651                          1.5074974              41.0211
      -------------------------------------------------------------
                  HL-Gap            0.0000010 Eh            0.0000 eV

Wiberg/Mayer (AO) data.
largest (>0.10) Wiberg bond orders for each atom

     #   Z sym  total        # sym  WBO       # sym  WBO       # sym  WBO
 ---------------------------------------------------------------------------
     1  29 Cu   2.187 --    41 N    0.506     7 N    0.505    20 N    0.502
                            27 N    0.502
     2   6 C    3.930 --    40 C    1.362     3 C    1.362    42 H    0.971
     3   6 C    3.916 --     2 C    1.362     7 N    1.229     4 C    1.170
     4   6 C    3.955 --     5 C    1.657     3 C    1.170    43 H    0.975
     5   6 C    3.958 --     4 C    1.657     6 C    1.171    44 H    0.973
     6   6 C    3.913 --     8 C    1.318     7 N    1.240     5 C    1.171
     7   7 N    3.243 --     6 C    1.240     3 C    1.229     1 Cu   0.505
     8   6 C    3.933 --    17 C    1.324     6 C    1.318     9 C    1.030
     9   6 C    3.986 --    16 C    1.384    10 C    1.381     8 C    1.030
    10   6 C    3.988 --    11 C    1.471     9 C    1.381    45 H    0.972
    11   6 C    3.988 --    10 C    1.471    12 C    1.370    46 H    0.968
                            16 C    0.100
    12   6 C    3.984 --    15 C    1.379    11 C    1.370    13 C    1.049
    13   6 C    3.864 --    14 O    1.808    12 C    1.049    47 H    0.942
    14   8 O    2.004 --    13 C    1.808
    15   6 C    3.993 --    16 C    1.465    12 C    1.379    48 H    0.971
    16   6 C    3.988 --    15 C    1.465     9 C    1.384    49 H    0.972
                            11 C    0.100
    17   6 C    3.907 --     8 C    1.324    20 N    1.223    18 C    1.179
    18   6 C    3.954 --    19 C    1.643    17 C    1.179    50 H    0.973
    19   6 C    3.956 --    18 C    1.643    21 C    1.186    51 H    0.974
    20   7 N    3.248 --    21 C    1.256    17 C    1.223     1 Cu   0.502
    21   6 C    3.897 --    22 C    1.260    20 N    1.256    19 C    1.186
    22   6 C    3.939 --    23 C    1.261    21 C    1.260   122 C    1.185
    23   6 C    3.897 --    22 C    1.261    27 N    1.255    24 C    1.186
    24   6 C    3.956 --    25 C    1.643    23 C    1.186    52 H    0.974
    25   6 C    3.954 --    24 C    1.643    26 C    1.178    53 H    0.973
    26   6 C    3.907 --    28 C    1.324    27 N    1.223    25 C    1.178
    27   7 N    3.248 --    23 C    1.255    26 C    1.223     1 Cu   0.502
    28   6 C    3.933 --    26 C    1.324    37 C    1.318    29 C    1.031
    29   6 C    3.986 --    30 C    1.383    36 C    1.381    28 C    1.031
    30   6 C    3.987 --    31 C    1.465    29 C    1.383    54 H    0.972
                            35 C    0.100
    31   6 C    3.993 --    30 C    1.465    32 C    1.378    55 H    0.971
    32   6 C    3.983 --    31 C    1.378    35 C    1.370    33 C    1.049
    33   6 C    3.864 --    34 O    1.808    32 C    1.049    56 H    0.942
    34   8 O    2.004 --    33 C    1.808
    35   6 C    3.988 --    36 C    1.471    32 C    1.370    57 H    0.968
                            30 C    0.100
    36   6 C    3.987 --    35 C    1.471    29 C    1.381    58 H    0.972
    37   6 C    3.913 --    28 C    1.318    41 N    1.240    38 C    1.171
    38   6 C    3.958 --    39 C    1.656    37 C    1.171    59 H    0.973
    39   6 C    3.955 --    38 C    1.656    40 C    1.170    60 H    0.975
    40   6 C    3.916 --     2 C    1.362    41 N    1.228    39 C    1.170
    41   7 N    3.244 --    37 C    1.240    40 C    1.228     1 Cu   0.506
    42   1 H    1.001 --     2 C    0.971
    43   1 H    0.997 --     4 C    0.975
    44   1 H    1.004 --     5 C    0.973
    45   1 H    1.004 --    10 C    0.972
    46   1 H    1.005 --    11 C    0.968
    47   1 H    1.010 --    13 C    0.942
    48   1 H    1.000 --    15 C    0.971
    49   1 H    1.004 --    16 C    0.972
    50   1 H    1.004 --    18 C    0.973
    51   1 H    1.002 --    19 C    0.974
    52   1 H    1.002 --    24 C    0.974
    53   1 H    1.004 --    25 C    0.973
    54   1 H    1.004 --    30 C    0.972
    55   1 H    1.000 --    31 C    0.971
    56   1 H    1.010 --    33 C    0.942
    57   1 H    1.005 --    35 C    0.968
    58   1 H    1.004 --    36 C    0.972
    59   1 H    1.004 --    38 C    0.973
    60   1 H    0.997 --    39 C    0.975
    61  29 Cu   2.187 --   101 N    0.506    67 N    0.505    80 N    0.502
                            87 N    0.502
    62   6 C    3.930 --   100 C    1.362    63 C    1.362   102 H    0.971
    63   6 C    3.916 --    62 C    1.362    67 N    1.229    64 C    1.170
    64   6 C    3.955 --    65 C    1.657    63 C    1.170   103 H    0.975
    65   6 C    3.958 --    64 C    1.657    66 C    1.171   104 H    0.973
    66   6 C    3.913 --    68 C    1.318    67 N    1.240    65 C    1.171
    67   7 N    3.243 --    66 C    1.240    63 C    1.229    61 Cu   0.505
    68   6 C    3.933 --    77 C    1.324    66 C    1.318    69 C    1.030
    69   6 C    3.986 --    76 C    1.384    70 C    1.381    68 C    1.030
    70   6 C    3.987 --    71 C    1.471    69 C    1.381   105 H    0.972
    71   6 C    3.988 --    70 C    1.471    72 C    1.369   106 H    0.968
                            76 C    0.100
    72   6 C    3.983 --    75 C    1.379    71 C    1.369    73 C    1.050
    73   6 C    3.864 --    74 O    1.807    72 C    1.050   107 H    0.942
    74   8 O    2.003 --    73 C    1.807
    75   6 C    3.993 --    76 C    1.465    72 C    1.379   108 H    0.971
    76   6 C    3.988 --    75 C    1.465    69 C    1.384   109 H    0.972
                            71 C    0.100
    77   6 C    3.907 --    68 C    1.324    80 N    1.223    78 C    1.179
    78   6 C    3.954 --    79 C    1.643    77 C    1.179   110 H    0.973
    79   6 C    3.956 --    78 C    1.643    81 C    1.186   111 H    0.974
    80   7 N    3.248 --    81 C    1.255    77 C    1.223    61 Cu   0.502
    81   6 C    3.897 --    82 C    1.261    80 N    1.255    79 C    1.186
    82   6 C    3.939 --    83 C    1.262    81 C    1.261   128 C    1.184
    83   6 C    3.897 --    82 C    1.262    87 N    1.255    84 C    1.186
    84   6 C    3.956 --    85 C    1.644    83 C    1.186   112 H    0.974
    85   6 C    3.954 --    84 C    1.644    86 C    1.178   113 H    0.973
    86   6 C    3.907 --    88 C    1.324    87 N    1.223    85 C    1.178
    87   7 N    3.248 --    83 C    1.255    86 C    1.223    61 Cu   0.502
    88   6 C    3.933 --    86 C    1.324    97 C    1.318    89 C    1.031
    89   6 C    3.986 --    90 C    1.384    96 C    1.381    88 C    1.031
    90   6 C    3.988 --    91 C    1.465    89 C    1.384   114 H    0.972
                            95 C    0.100
    91   6 C    3.993 --    90 C    1.465    92 C    1.378   115 H    0.971
    92   6 C    3.983 --    91 C    1.378    95 C    1.370    93 C    1.049
    93   6 C    3.864 --    94 O    1.808    92 C    1.049   116 H    0.942
    94   8 O    2.004 --    93 C    1.808
    95   6 C    3.988 --    96 C    1.471    92 C    1.370   117 H    0.968
                            90 C    0.100
    96   6 C    3.987 --    95 C    1.471    89 C    1.381   118 H    0.972
    97   6 C    3.913 --    88 C    1.318   101 N    1.240    98 C    1.171
    98   6 C    3.958 --    99 C    1.657    97 C    1.171   119 H    0.973
    99   6 C    3.955 --    98 C    1.657   100 C    1.170   120 H    0.975
   100   6 C    3.916 --    62 C    1.362   101 N    1.228    99 C    1.170
   101   7 N    3.244 --    97 C    1.240   100 C    1.228    61 Cu   0.506
   102   1 H    1.001 --    62 C    0.971
   103   1 H    0.997 --    64 C    0.975
   104   1 H    1.004 --    65 C    0.973
   105   1 H    1.004 --    70 C    0.972
   106   1 H    1.005 --    71 C    0.968
   107   1 H    1.010 --    73 C    0.942
   108   1 H    1.000 --    75 C    0.971
   109   1 H    1.004 --    76 C    0.972
   110   1 H    1.004 --    78 C    0.973
   111   1 H    1.002 --    79 C    0.974
   112   1 H    1.002 --    84 C    0.974
   113   1 H    1.004 --    85 C    0.973
   114   1 H    1.004 --    90 C    0.972
   115   1 H    1.000 --    91 C    0.971
   116   1 H    1.010 --    93 C    0.942
   117   1 H    1.005 --    95 C    0.968
   118   1 H    1.004 --    96 C    0.972
   119   1 H    1.004 --    98 C    0.973
   120   1 H    0.997 --    99 C    0.975
   121   6 C    3.936 --   122 C    2.480   123 C    1.306
   122   6 C    3.925 --   121 C    2.480    22 C    1.185   124 C    0.200
   123   6 C    3.933 --   124 C    2.478   121 C    1.306
   124   6 C    3.927 --   123 C    2.478   130 C    1.188   122 C    0.200
   125   6 C    3.933 --   126 C    2.479   127 C    1.305
   126   6 C    3.926 --   125 C    2.479   150 C    1.187   128 C    0.199
   127   6 C    3.936 --   128 C    2.481   125 C    1.305
   128   6 C    3.925 --   127 C    2.481    82 C    1.184   126 C    0.199
   129  29 Cu   2.159 --   148 N    0.498   155 N    0.497   135 N    0.497
                           169 N    0.497
   130   6 C    3.928 --   168 C    1.258   131 C    1.258   124 C    1.188
   131   6 C    3.898 --   135 N    1.258   130 C    1.258   132 C    1.187
   132   6 C    3.955 --   133 C    1.641   131 C    1.187   170 H    0.974
   133   6 C    3.955 --   132 C    1.641   134 C    1.180   171 H    0.973
   134   6 C    3.906 --   136 C    1.321   135 N    1.224   133 C    1.180
   135   7 N    3.241 --   131 C    1.258   134 C    1.224   129 Cu   0.497
   136   6 C    3.929 --   145 C    1.322   134 C    1.321   137 C    1.031
   137   6 C    3.986 --   144 C    1.383   138 C    1.381   136 C    1.031
   138   6 C    3.987 --   139 C    1.470   137 C    1.381   172 H    0.972
   139   6 C    3.988 --   138 C    1.470   140 C    1.370   173 H    0.968
                           144 C    0.101
   140   6 C    3.983 --   143 C    1.378   139 C    1.370   141 C    1.049
   141   6 C    3.864 --   142 O    1.809   140 C    1.049   174 H    0.942
   142   8 O    2.004 --   141 C    1.809
   143   6 C    3.993 --   144 C    1.466   140 C    1.378   175 H    0.971
   144   6 C    3.987 --   143 C    1.466   137 C    1.383   176 H    0.972
                           139 C    0.101
   145   6 C    3.906 --   136 C    1.322   148 N    1.223   146 C    1.180
   146   6 C    3.955 --   147 C    1.642   145 C    1.180   177 H    0.973
   147   6 C    3.955 --   146 C    1.642   149 C    1.186   178 H    0.974
   148   7 N    3.241 --   149 C    1.258   145 C    1.223   129 Cu   0.498
   149   6 C    3.898 --   150 C    1.259   148 N    1.258   147 C    1.186
   150   6 C    3.928 --   149 C    1.259   151 C    1.258   126 C    1.187
   151   6 C    3.898 --   155 N    1.258   150 C    1.258   152 C    1.187
   152   6 C    3.955 --   153 C    1.641   151 C    1.187   179 H    0.974
   153   6 C    3.955 --   152 C    1.641   154 C    1.180   180 H    0.973
   154   6 C    3.906 --   156 C    1.321   155 N    1.224   153 C    1.180
   155   7 N    3.240 --   151 C    1.258   154 C    1.224   129 Cu   0.497
   156   6 C    3.929 --   165 C    1.321   154 C    1.321   157 C    1.032
   157   6 C    3.986 --   158 C    1.383   164 C    1.380   156 C    1.032
   158   6 C    3.987 --   159 C    1.465   157 C    1.383   181 H    0.972
                           163 C    0.100
   159   6 C    3.993 --   158 C    1.465   160 C    1.378   182 H    0.971
   160   6 C    3.983 --   159 C    1.378   163 C    1.370   161 C    1.049
   161   6 C    3.864 --   162 O    1.808   160 C    1.049   183 H    0.942
   162   8 O    2.003 --   161 C    1.808
   163   6 C    3.988 --   164 C    1.471   160 C    1.370   184 H    0.968
                           158 C    0.100
   164   6 C    3.987 --   163 C    1.471   157 C    1.380   185 H    0.972
   165   6 C    3.906 --   156 C    1.321   169 N    1.224   166 C    1.180
   166   6 C    3.955 --   167 C    1.642   165 C    1.180   186 H    0.973
   167   6 C    3.955 --   166 C    1.642   168 C    1.187   187 H    0.974
   168   6 C    3.898 --   169 N    1.258   130 C    1.258   167 C    1.187
   169   7 N    3.241 --   168 C    1.258   165 C    1.224   129 Cu   0.497
   170   1 H    1.002 --   132 C    0.974
   171   1 H    1.004 --   133 C    0.973
   172   1 H    1.004 --   138 C    0.972
   173   1 H    1.005 --   139 C    0.968
   174   1 H    1.010 --   141 C    0.942
   175   1 H    1.000 --   143 C    0.971
   176   1 H    1.004 --   144 C    0.972
   177   1 H    1.004 --   146 C    0.973
   178   1 H    1.002 --   147 C    0.974
   179   1 H    1.002 --   152 C    0.974
   180   1 H    1.004 --   153 C    0.973
   181   1 H    1.004 --   158 C    0.972
   182   1 H    1.000 --   159 C    0.971
   183   1 H    1.010 --   161 C    0.942
   184   1 H    1.005 --   163 C    0.968
   185   1 H    1.004 --   164 C    0.972
   186   1 H    1.004 --   166 C    0.973
   187   1 H    1.002 --   167 C    0.974
 ---------------------------------------------------------------------------

           -------------------------------------------------
          | TOTAL ENERGY             -342.430653046727 Eh   |
          | GRADIENT NORM               0.000778994866 Eh/α |
          | HOMO-LUMO GAP               0.000027718508 eV   |
           -------------------------------------------------

 * finished run on 2022/07/30 at 06:16:31.089
