   * xtb version 6.5.1 (b24c23e) compiled by 'conda@728c89f4b128' on 2022-07-12
          program call               : xtb Cu_PhNO2_C4_3.xyz --gfn 1 --opt -T 48

   ID    Z sym.   atoms
    1   29 Cu     1, 61, 129
    2    6 C      2-6, 8-12, 16-20, 22-27, 29-33, 37-42, 62-66, 68-72, 76-80,
                  82-87, 89-93, 97-102, 121-128, 130-134, 136-140, 144-148,
                  150-155, 157-161, 165-170
    3    7 N      7, 13, 21, 28, 34, 43, 67, 73, 81, 88, 94, 103, 135, 141,
                  149, 156, 162, 171
    4    8 O      14, 15, 35, 36, 74, 75, 95, 96, 142, 143, 163, 164
    5    1 H      44-60, 104-120, 172-187
########################################################################
[WARNING] Please study the warnings concerning your input carefully
-1- prog_main_parseArguments: Unknown option '-T' provided
########################################################################

          :  Hamiltonian                  GFN1-xTB          :
 * total energy  :  -371.8776334 Eh     change       -0.2618805E-07 Eh
 * total energy  :  -372.7342017 Eh     change       -0.8565683E+00 Eh
 * total energy  :  -373.0041004 Eh     change       -0.2698986E+00 Eh
 * total energy  :  -373.1349997 Eh     change       -0.1308993E+00 Eh
 * total energy  :  -373.2024403 Eh     change       -0.6744067E-01 Eh
 * total energy  :  -373.2389658 Eh     change       -0.3652546E-01 Eh
 * total energy  :  -373.2576453 Eh     change       -0.1867954E-01 Eh
 * total energy  :  -373.2681460 Eh     change       -0.1050067E-01 Eh
 * total energy  :  -373.2751617 Eh     change       -0.7015647E-02 Eh
 * total energy  :  -373.2815812 Eh     change       -0.6419503E-02 Eh
 * total energy  :  -373.3067277 Eh     change       -0.3271710E-05 Eh
 * total energy  :  -373.3067304 Eh     change       -0.2632319E-05 Eh
 * total energy  :  -373.3067340 Eh     change       -0.3679148E-05 Eh
 * total energy  :  -373.3067389 Eh     change       -0.4912649E-05 Eh
 * total energy  :  -373.3067395 Eh     change       -0.5386627E-06 Eh
 * total energy  :  -373.3067481 Eh     change       -0.8584163E-05 Eh
 * total energy  :  -373.3067461 Eh     change        0.1925937E-05 Eh
 * total energy  :  -373.3067527 Eh     change       -0.6603982E-05 Eh
 * total energy  :  -373.3067544 Eh     change       -0.1612554E-05 Eh
   *** GEOMETRY OPTIMIZATION CONVERGED AFTER 52 ITERATIONS ***

 final structure:
================
187
 xtb: 6.5.1 (b24c23e)
Cu          32.28781952667561       -0.00699085079541       -0.05769998761586
C           28.88319218473782       -0.03560302849793       -0.13770664596887
C           29.52156839381361       -1.25284668612910       -0.31911295168813
C           28.84925108863807       -2.50875839162215       -0.49279963504201
C           29.81004903384818       -3.45458514807151       -0.63373919769390
C           31.07913346977546       -2.78168822792193       -0.56053815999098
N           30.87310956793671       -1.44754340024159       -0.36103714454403
C           32.32675205217396       -3.40415342262920       -0.65198339750752
C           32.34375891837360       -4.86464430214846       -0.90400429122856
C           32.91621654939387       -5.73570926728661        0.02798256832503
C           32.92984233982534       -7.09966573095422       -0.19999552820577
C           32.37094948386540       -7.59733332167704       -1.37374649058303
N           32.38360663738339       -9.02855898680074       -1.61907248329677
O           31.88948345180914       -9.42290633618983       -2.64417340289626
O           32.88711301177579       -9.73328126562204       -0.78232063082546
C           31.79951129711012       -6.74715654992936       -2.31624471080429
C           31.78612112787041       -5.38536488839557       -2.07574587279512
C           33.55904811143647       -2.75843046864947       -0.52650108363496
C           34.83843076219344       -3.38900758225751       -0.69052213320330
C           35.78054619025703       -2.42875879841010       -0.51275704317632
N           33.74153258964221       -1.42703279371947       -0.26397424993483
C           35.08454975998388       -1.20574052459457       -0.24675364378049
C           35.71584810103177        0.02654036526196       -0.00426356127955
C           35.05371124482939        1.24440831376412        0.22759301979526
C           35.71715994771644        2.47733676327996        0.52817194745437
C           34.75122344881684        3.41655415694274        0.69021250225167
C           33.49009197221479        2.76406771005773        0.47739307638853
N           33.70667770391577        1.43941289645100        0.20637092193241
C           32.24184955659597        3.38548561128713        0.56248670637359
C           32.21934371500802        4.84172922123303        0.83696723620863
C           31.59582721161118        5.33153608679093        1.98882961164630
C           31.57003005878529        6.68891074376051        2.25187884173395
C           32.16904588795963        7.56610264189930        1.35220930537605
N           32.14111432701593        8.99281144603240        1.62122833534445
O           31.58723260594885        9.36005057810175        2.62567577369431
O           32.67287237582892        9.72128054085133        0.82316190799078
C           32.79330988430956        7.09957240451192        0.19878668449279
C           32.81770552025770        5.73977490271129       -0.05215729021975
C           31.01073449105223        2.74253245704090        0.40807973083896
C           29.72858639870161        3.39424511104790        0.42383917559999
C           28.79170364405143        2.43465646483815        0.22638556454790
C           29.49223461282983        1.19102159269480        0.07794521825200
N           30.83677458957916        1.40712571811611        0.18793917976465
H           27.79856608905375       -0.04417029928800       -0.16492330254356
H           27.77848742255853       -2.63718046436833       -0.49344504371988
H           29.67810670847789       -4.51668195654894       -0.76302919136363
H           33.33724998559725       -5.33675650119127        0.94348722884464
H           33.36505716791088       -7.78293477563042        0.51932659597770
H           31.37526308463040       -7.15926730132636       -3.22391408626513
H           31.35494742410561       -4.71188081395143       -2.80723541302252
H           34.99277494520641       -4.42908057087176       -0.92779243303869
H           36.85289339489959       -2.52883264388774       -0.56263899911602
H           36.78538452910677        2.59706941958435        0.61214161049015
H           34.87803172465919        4.45596676476183        0.94594840959059
H           31.14346050012196        4.63734103884467        2.68743808445776
H           31.09414590568718        7.07699366630606        3.14441704903770
H           33.24864076605852        7.80345245814335       -0.48744817665150
H           33.28897617319625        5.36525962393254       -0.95337866473027
H           29.57294487507781        4.45294765763769        0.55459243546660
H           27.72031367790062        2.54602354418661        0.17391765326695
Cu          59.22271933251468        0.05443618720024       -0.01905788514434
C           62.62578238770367        0.11188196303837       -0.12685983904496
C           61.99081531954693        1.30827395641697        0.16921130912903
C           62.66650838208015        2.53781105507582        0.47122347660016
C           61.70824166023542        3.46843009422499        0.70207194261748
C           60.43722459900371        2.81779158998452        0.52922398331803
N           60.63975478349931        1.50511258173300        0.21588665518803
C           59.19116908846844        3.43137347392976        0.68144717478337
C           59.17692921972504        4.88089849523303        0.99035632572558
C           58.60939740658203        5.34247893922444        2.18200901452319
C           58.59888161810266        6.69301768538905        2.47923146843647
C           59.15552319966277        7.59173058849170        1.57357208619778
N           59.14663602688339        9.01107458599570        1.88022889670590
O           59.63774213408611        9.75885451528785        1.07401854982251
O           58.64914634940942        9.35322615662201        2.92226027185634
C           59.72136222464222        7.15355729687950        0.37963252609702
C           59.73205619679683        5.80024125698453        0.09499763985440
C           57.95754207496140        2.78641858241954        0.56490918386055
C           56.67930173882051        3.43483915703887        0.64822443968294
C           55.73518691406559        2.47675176776960        0.46898198574960
N           57.77245371081661        1.45129441653345        0.32438569708221
C           56.42886156371724        1.23996400601397        0.26893065759560
C           55.79560314446605        0.00218966334434        0.06232917364437
C           56.45576354756885       -1.21766889062012       -0.16508804324304
C           55.79132775910075       -2.47625431361632       -0.32325594345313
C           56.75486210924281       -3.40756298008024       -0.53724089338036
C           58.01521051498035       -2.72006007656976       -0.52171944968463
N           57.80110806760496       -1.38915507564021       -0.28148748074587
C           59.26090020064182       -3.32623418589802       -0.70185616382740
C           59.27830915052753       -4.77809055972899       -0.99868900133002
C           59.92273383377724       -5.66834474770975       -0.13412733486629
C           59.94430342308281       -7.02371369353844       -0.40802843743614
C           59.31981010794804       -7.49354568826071       -1.55996571592009
N           59.34423395677030       -8.91502764107749       -1.85558957230351
O           59.91794397287480       -9.63609266126804       -1.08010306317296
O           58.79010563016860       -9.28552807582445       -2.85866315531086
C           58.67357617182500       -6.62428118427482       -2.43432900948270
C           58.65367390993492       -5.27142528558018       -2.14837177503475
C           60.49265314828001       -2.67022579360863       -0.62941442359301
C           61.77141557211468       -3.27856483322804       -0.88147472901391
C           62.71006478288677       -2.31402896812230       -0.71969008004946
C           62.01377846622616       -1.10628806260224       -0.37912634943109
N           60.67002301684217       -1.34925861904784       -0.33648463248742
H           63.71002090461894        0.13038105075227       -0.16310649624204
H           63.73771782697096        2.65658347024852        0.50908126509479
H           61.84315338664745        4.50192603770176        0.97751659114063
H           58.18989007729051        4.63145979152781        2.88418912287459
H           58.16778909878994        7.05932909533780        3.40317000735930
H           60.14380729700249        7.87387359646354       -0.31057092594383
H           60.15906865221724        5.44757851692283       -0.83658719515092
H           56.52709248996829        4.49012691118847        0.80664986472401
H           54.66289136582589        2.58910007776796        0.46500175271404
H           54.72427988763330       -2.62045378295629       -0.26754689015389
H           56.62727184834338       -4.46853522285678       -0.67842686253041
H           60.39498405866780       -5.29164905208755        0.76568124766081
H           60.43656209914462       -7.72154326080190        0.25861613227882
H           58.19821000220237       -7.01475042278619       -3.32609484645360
H           58.16537548832763       -4.58285009808675       -2.82808293543073
H           61.92369709422356       -4.30880334854754       -1.16000904168168
H           63.77989662855948       -2.39643522489977       -0.82785274053942
C           38.34415685434983        0.04261368619621        0.01060878537132
C           37.12248260394193        0.03984310046209        0.00755797522268
C           39.69420866108749        0.04320564919583        0.01179367266675
C           40.91595342155693        0.03849825461566        0.00976170520964
C           51.81772627801970       -0.02376084842279        0.08594349768972
C           50.59593663669726       -0.02189696192478        0.07857581889823
C           53.16762025985361       -0.02133059850501        0.08579457949426
C           54.38929459884721       -0.01525855979455        0.08043035899007
Cu          45.75597735496437        0.00742433514148        0.02381077856276
C           42.32210503839305        0.02991504062904        0.00985518210854
C           42.96095956494701       -1.22099107525756        0.07789232360661
C           42.27394645137007       -2.47282330103422        0.18880321735532
C           43.22259536430415       -3.44305025277533        0.21318022983687
C           44.49602069702571       -2.78807220444518        0.10968418069893
N           44.30391367565803       -1.43484178077429        0.03795712020113
C           45.73356896835810       -3.43640990661354        0.11004421277408
C           45.72352193035231       -4.91840743941866        0.14319487613232
C           46.30820828966021       -5.60482058933584        1.21181487557792
C           46.29958336263592       -6.98723443073978        1.24865428852231
C           45.70602385734306       -7.69040955641967        0.20422037380126
N           45.69695761985152       -9.14233866540405        0.23633506794759
O           45.17324085176010       -9.71701983103674       -0.68323017895047
O           46.21380560793436       -9.68217830476800        1.18069256533994
C           45.12084509907610       -7.02646612051998       -0.87018886667806
C           45.12957517181313       -5.64372959329046       -0.89415295794227
C           46.97979083820009       -2.80544752304976        0.08375650998216
C           48.24507796054134       -3.48102604551557        0.02034935863272
C           49.20643021907834       -2.52313926774373        0.00817035350907
N           47.18934271646020       -1.45292735464809        0.09246464674451
C           48.53523984746204       -1.25873837094189        0.05287953115429
C           49.19004633924330       -0.01439413875241        0.06368768729293
C           48.55055730754052        1.23803899687027        0.05304691812514
C           49.23618308748013        2.49456810561924        0.09945284605515
C           48.28786459553282        3.46400089491626        0.04579603013324
C           47.01617280074878        2.80322960796298       -0.04053296985901
N           47.20857865229838        1.44838515554660       -0.02330899487132
C           45.77935606630157        3.45003931407506       -0.10660760501774
C           45.79197438424242        4.93018952465468       -0.18357483587479
C           46.41352698286870        5.57224786745397       -1.25918663533827
C           46.42435343173441        6.95242041602275       -1.34382666801692
C           45.81257707202629        7.69863042614997       -0.34054933151045
N           45.82127426732728        9.14842373518090       -0.42431147200621
O           46.37040593144195        9.64864454847069       -1.37230709716787
O           45.27828749376573        9.76119609010879        0.45878493990552
C           45.19225084414111        7.07950993737461        0.74089324509488
C           45.18270660187813        5.69839772473198        0.81318543804004
C           44.53321989553353        2.81829513407879       -0.11100497825535
C           43.26918175569253        3.48733349903129       -0.23793821377544
C           42.30771495898351        2.53027375189505       -0.20002324621277
C           42.97766583796441        1.27181141139915       -0.06342473759156
N           44.32290534777781        1.46900482928949       -0.01673627053948
H           41.20323681117590       -2.58497194302526        0.24771094580718
H           43.07647216694134       -4.50674339261061        0.30862701313959
H           46.75691444062450       -5.04543092229871        2.02440606273229
H           46.74450166667338       -7.52775033667325        2.07543462256192
H           44.66896904551548       -7.59720982226263       -1.67253332199707
H           44.68744351190351       -5.11503052219232       -1.73055939412799
H           48.37789613274858       -4.54976992958620       -0.02464733099033
H           50.27602713811255       -2.65156937825176       -0.03606899766409
H           50.30571020154247        2.61070584124755        0.17078215513360
H           48.43298591384058        4.53160280394909        0.07836969252601
H           46.87545796664988        4.97942188860284       -2.04006964420673
H           46.89749741308051        7.45827350885474       -2.17685043487407
H           44.72746578142776        7.68333499883691        1.51100302482456
H           44.71364639228140        5.20491437278444        1.65639213882442
H           43.13707717572171        4.55055154480649       -0.35609498226114
H           41.23898594023970        2.65497255793404       -0.26894773951195

          :  Hamiltonian                  GFN1-xTB          :
         :: total energy            -373.306754358585 Eh    ::
         :: gradient norm              0.000300121905 Eh/a0 ::
         :: HOMO-LUMO gap              0.001595137955 eV    ::
         :: SCC energy              -378.412803755136 Eh    ::
         :: repulsion energy           5.276733803753 Eh    ::

    * Orbital Energies and Occupations

         #    Occupation            Energy/Eh            Energy/eV
      -------------------------------------------------------------
         1        2.0000           -0.9235180             -25.1302
       ...           ...                  ...                  ...
       319        2.0000           -0.4334577             -11.7950
       320        2.0000           -0.4334301             -11.7942
       321        2.0000           -0.4326804             -11.7738
       322        2.0000           -0.4326631             -11.7734
       323        2.0000           -0.4325018             -11.7690
       324        2.0000           -0.4214923             -11.4694
       325        2.0000           -0.4214500             -11.4682
       326        2.0000           -0.4214265             -11.4676
       327        2.0000           -0.4209516             -11.4547
       328        2.0000           -0.4134293             -11.2500
       329        2.0000           -0.4044954             -11.0069
       330        1.0445           -0.3812843             -10.3753
       331        0.9914           -0.3811707             -10.3722 (HOMO)
       332        0.9640           -0.3811120             -10.3706 (LUMO)
       333        0.0000           -0.3669582              -9.9854
       334                         -0.3597778              -9.7901
       335                         -0.3597356              -9.7889
       336                         -0.3595543              -9.7840
       337                         -0.3576288              -9.7316
       338                         -0.3504208              -9.5354
       339                         -0.3503609              -9.5338
       340                         -0.3498110              -9.5188
       341                         -0.3483121              -9.4781
       342                         -0.3441342              -9.3644
       ...                                ...                  ...
       663                          1.4951885              40.6862
      -------------------------------------------------------------
                  HL-Gap            0.0000586 Eh            0.0016 eV

Wiberg/Mayer (AO) data.
largest (>0.10) Wiberg bond orders for each atom

     #   Z sym  total        # sym  WBO       # sym  WBO       # sym  WBO
 ---------------------------------------------------------------------------
     1  29 Cu   2.187 --    43 N    0.505     7 N    0.505    21 N    0.502
                            28 N    0.502
     2   6 C    3.931 --    42 C    1.363     3 C    1.362    44 H    0.971
     3   6 C    3.914 --     2 C    1.362     7 N    1.228     4 C    1.169
     4   6 C    3.955 --     5 C    1.658     3 C    1.169    45 H    0.975
     5   6 C    3.958 --     4 C    1.658     6 C    1.170    46 H    0.973
     6   6 C    3.914 --     8 C    1.317     7 N    1.241     5 C    1.170
     7   7 N    3.243 --     6 C    1.241     3 C    1.228     1 Cu   0.505
     8   6 C    3.931 --    18 C    1.322     6 C    1.317     9 C    1.033
     9   6 C    3.984 --    10 C    1.384    17 C    1.384     8 C    1.033
    10   6 C    3.987 --    11 C    1.464     9 C    1.384    47 H    0.971
                            16 C    0.102
    11   6 C    3.987 --    10 C    1.464    12 C    1.387    48 H    0.965
                            17 C    0.101
    12   6 C    3.941 --    16 C    1.387    11 C    1.387    13 N    0.921
    13   7 N    3.866 --    15 O    1.454    14 O    1.454    12 C    0.921
    14   8 O    1.829 --    13 N    1.454    15 O    0.252
    15   8 O    1.829 --    13 N    1.454    14 O    0.252
    16   6 C    3.987 --    17 C    1.464    12 C    1.387    49 H    0.965
                            10 C    0.102
    17   6 C    3.986 --    16 C    1.464     9 C    1.384    50 H    0.971
                            11 C    0.101
    18   6 C    3.908 --     8 C    1.322    21 N    1.225    19 C    1.178
    19   6 C    3.954 --    20 C    1.643    18 C    1.178    51 H    0.973
    20   6 C    3.956 --    19 C    1.643    22 C    1.186    52 H    0.974
    21   7 N    3.247 --    22 C    1.255    18 C    1.225     1 Cu   0.502
    22   6 C    3.896 --    23 C    1.261    21 N    1.255    20 C    1.186
    23   6 C    3.939 --    24 C    1.262    22 C    1.261   122 C    1.184
    24   6 C    3.896 --    23 C    1.262    28 N    1.255    25 C    1.186
    25   6 C    3.956 --    26 C    1.643    24 C    1.186    53 H    0.974
    26   6 C    3.954 --    25 C    1.643    27 C    1.178    54 H    0.973
    27   6 C    3.908 --    29 C    1.322    28 N    1.225    26 C    1.178
    28   7 N    3.247 --    24 C    1.255    27 C    1.225     1 Cu   0.502
    29   6 C    3.931 --    27 C    1.322    39 C    1.317    30 C    1.034
    30   6 C    3.984 --    38 C    1.384    31 C    1.383    29 C    1.034
    31   6 C    3.986 --    32 C    1.464    30 C    1.383    55 H    0.971
                            37 C    0.101
    32   6 C    3.987 --    31 C    1.464    33 C    1.387    56 H    0.965
                            38 C    0.101
    33   6 C    3.941 --    37 C    1.387    32 C    1.387    34 N    0.921
    34   7 N    3.866 --    36 O    1.454    35 O    1.454    33 C    0.921
    35   8 O    1.828 --    34 N    1.454    36 O    0.251
    36   8 O    1.829 --    34 N    1.454    35 O    0.251
    37   6 C    3.987 --    38 C    1.464    33 C    1.387    57 H    0.965
                            31 C    0.101
    38   6 C    3.987 --    37 C    1.464    30 C    1.384    58 H    0.971
                            32 C    0.101
    39   6 C    3.914 --    29 C    1.317    43 N    1.241    40 C    1.170
    40   6 C    3.958 --    41 C    1.658    39 C    1.170    59 H    0.973
    41   6 C    3.955 --    40 C    1.658    42 C    1.169    60 H    0.975
    42   6 C    3.914 --     2 C    1.363    43 N    1.228    41 C    1.169
    43   7 N    3.244 --    39 C    1.241    42 C    1.228     1 Cu   0.505
    44   1 H    1.001 --     2 C    0.971
    45   1 H    0.997 --     4 C    0.975
    46   1 H    1.003 --     5 C    0.973
    47   1 H    1.003 --    10 C    0.971
    48   1 H    1.006 --    11 C    0.965
    49   1 H    1.006 --    16 C    0.965
    50   1 H    1.003 --    17 C    0.971
    51   1 H    1.003 --    19 C    0.973
    52   1 H    1.002 --    20 C    0.974
    53   1 H    1.002 --    25 C    0.974
    54   1 H    1.003 --    26 C    0.973
    55   1 H    1.003 --    31 C    0.971
    56   1 H    1.006 --    32 C    0.965
    57   1 H    1.006 --    37 C    0.965
    58   1 H    1.003 --    38 C    0.971
    59   1 H    1.003 --    40 C    0.973
    60   1 H    0.997 --    41 C    0.975
    61  29 Cu   2.187 --   103 N    0.505    67 N    0.505    81 N    0.502
                            88 N    0.502
    62   6 C    3.931 --   102 C    1.363    63 C    1.362   104 H    0.971
    63   6 C    3.914 --    62 C    1.362    67 N    1.228    64 C    1.169
    64   6 C    3.955 --    65 C    1.658    63 C    1.169   105 H    0.975
    65   6 C    3.958 --    64 C    1.658    66 C    1.170   106 H    0.973
    66   6 C    3.914 --    68 C    1.317    67 N    1.241    65 C    1.170
    67   7 N    3.243 --    66 C    1.241    63 C    1.228    61 Cu   0.505
    68   6 C    3.931 --    78 C    1.322    66 C    1.317    69 C    1.033
    69   6 C    3.984 --    77 C    1.384    70 C    1.383    68 C    1.033
    70   6 C    3.987 --    71 C    1.464    69 C    1.383   107 H    0.971
                            76 C    0.102
    71   6 C    3.987 --    70 C    1.464    72 C    1.387   108 H    0.965
                            77 C    0.101
    72   6 C    3.941 --    76 C    1.387    71 C    1.387    73 N    0.921
    73   7 N    3.866 --    74 O    1.454    75 O    1.454    72 C    0.921
    74   8 O    1.829 --    73 N    1.454    75 O    0.252
    75   8 O    1.829 --    73 N    1.454    74 O    0.252
    76   6 C    3.987 --    77 C    1.464    72 C    1.387   109 H    0.965
                            70 C    0.102
    77   6 C    3.986 --    76 C    1.464    69 C    1.384   110 H    0.971
                            71 C    0.101
    78   6 C    3.908 --    68 C    1.322    81 N    1.225    79 C    1.178
    79   6 C    3.954 --    80 C    1.643    78 C    1.178   111 H    0.973
    80   6 C    3.956 --    79 C    1.643    82 C    1.186   112 H    0.974
    81   7 N    3.247 --    82 C    1.255    78 C    1.225    61 Cu   0.502
    82   6 C    3.896 --    83 C    1.261    81 N    1.255    80 C    1.186
    83   6 C    3.939 --    84 C    1.261    82 C    1.261   128 C    1.185
    84   6 C    3.896 --    83 C    1.261    88 N    1.255    85 C    1.186
    85   6 C    3.956 --    86 C    1.643    84 C    1.186   113 H    0.974
    86   6 C    3.954 --    85 C    1.643    87 C    1.178   114 H    0.973
    87   6 C    3.908 --    89 C    1.322    88 N    1.225    86 C    1.178
    88   7 N    3.247 --    84 C    1.255    87 C    1.225    61 Cu   0.502
    89   6 C    3.931 --    87 C    1.322    99 C    1.317    90 C    1.034
    90   6 C    3.984 --    91 C    1.383    98 C    1.383    89 C    1.034
    91   6 C    3.986 --    92 C    1.464    90 C    1.383   115 H    0.971
                            97 C    0.101
    92   6 C    3.987 --    91 C    1.464    93 C    1.387   116 H    0.965
                            98 C    0.101
    93   6 C    3.941 --    92 C    1.387    97 C    1.387    94 N    0.921
    94   7 N    3.865 --    95 O    1.454    96 O    1.454    93 C    0.921
    95   8 O    1.829 --    94 N    1.454    96 O    0.251
    96   8 O    1.829 --    94 N    1.454    95 O    0.251
    97   6 C    3.987 --    98 C    1.464    93 C    1.387   117 H    0.965
                            91 C    0.101
    98   6 C    3.987 --    97 C    1.464    90 C    1.383   118 H    0.971
                            92 C    0.101
    99   6 C    3.914 --    89 C    1.317   103 N    1.241   100 C    1.170
   100   6 C    3.958 --   101 C    1.658    99 C    1.170   119 H    0.973
   101   6 C    3.955 --   100 C    1.658   102 C    1.169   120 H    0.975
   102   6 C    3.914 --    62 C    1.363   103 N    1.228   101 C    1.169
   103   7 N    3.243 --    99 C    1.241   102 C    1.228    61 Cu   0.505
   104   1 H    1.001 --    62 C    0.971
   105   1 H    0.997 --    64 C    0.975
   106   1 H    1.003 --    65 C    0.973
   107   1 H    1.003 --    70 C    0.971
   108   1 H    1.006 --    71 C    0.965
   109   1 H    1.006 --    76 C    0.965
   110   1 H    1.003 --    77 C    0.971
   111   1 H    1.003 --    79 C    0.973
   112   1 H    1.002 --    80 C    0.974
   113   1 H    1.002 --    85 C    0.974
   114   1 H    1.003 --    86 C    0.973
   115   1 H    1.003 --    91 C    0.971
   116   1 H    1.006 --    92 C    0.965
   117   1 H    1.006 --    97 C    0.965
   118   1 H    1.004 --    98 C    0.971
   119   1 H    1.003 --   100 C    0.973
   120   1 H    0.997 --   101 C    0.975
   121   6 C    3.936 --   122 C    2.481   123 C    1.305
   122   6 C    3.925 --   121 C    2.481    23 C    1.184   124 C    0.200
   123   6 C    3.934 --   124 C    2.479   121 C    1.305
   124   6 C    3.926 --   123 C    2.479   130 C    1.187   122 C    0.200
   125   6 C    3.934 --   126 C    2.478   127 C    1.306
   126   6 C    3.926 --   125 C    2.478   151 C    1.187   128 C    0.200
   127   6 C    3.936 --   128 C    2.480   125 C    1.306
   128   6 C    3.925 --   127 C    2.480    83 C    1.185   126 C    0.200
   129  29 Cu   2.147 --   135 N    0.495   156 N    0.495   171 N    0.494
                           149 N    0.494
   130   6 C    3.929 --   131 C    1.259   170 C    1.259   124 C    1.187
   131   6 C    3.897 --   130 C    1.259   135 N    1.259   132 C    1.186
   132   6 C    3.955 --   133 C    1.643   131 C    1.186   172 H    0.974
   133   6 C    3.955 --   132 C    1.643   134 C    1.179   173 H    0.973
   134   6 C    3.906 --   136 C    1.320   135 N    1.226   133 C    1.179
   135   7 N    3.240 --   131 C    1.259   134 C    1.226   129 Cu   0.495
   136   6 C    3.927 --   146 C    1.320   134 C    1.320   137 C    1.033
   137   6 C    3.984 --   145 C    1.384   138 C    1.384   136 C    1.033
   138   6 C    3.987 --   139 C    1.464   137 C    1.384   174 H    0.971
                           144 C    0.102
   139   6 C    3.987 --   138 C    1.464   140 C    1.387   175 H    0.965
                           145 C    0.102
   140   6 C    3.941 --   144 C    1.387   139 C    1.387   141 N    0.921
   141   7 N    3.866 --   142 O    1.454   143 O    1.454   140 C    0.921
   142   8 O    1.829 --   141 N    1.454   143 O    0.252
   143   8 O    1.829 --   141 N    1.454   142 O    0.252
   144   6 C    3.987 --   145 C    1.464   140 C    1.387   176 H    0.965
                           138 C    0.102
   145   6 C    3.987 --   144 C    1.464   137 C    1.384   177 H    0.971
                           139 C    0.102
   146   6 C    3.906 --   136 C    1.320   149 N    1.226   147 C    1.179
   147   6 C    3.955 --   148 C    1.643   146 C    1.179   178 H    0.973
   148   6 C    3.955 --   147 C    1.643   150 C    1.186   179 H    0.974
   149   7 N    3.240 --   150 C    1.259   146 C    1.226   129 Cu   0.494
   150   6 C    3.897 --   149 N    1.259   151 C    1.259   148 C    1.186
   151   6 C    3.929 --   150 C    1.259   152 C    1.259   126 C    1.187
   152   6 C    3.897 --   151 C    1.259   156 N    1.258   153 C    1.186
   153   6 C    3.955 --   154 C    1.643   152 C    1.186   180 H    0.974
   154   6 C    3.955 --   153 C    1.643   155 C    1.179   181 H    0.973
   155   6 C    3.906 --   157 C    1.319   156 N    1.226   154 C    1.179
   156   7 N    3.240 --   152 C    1.258   155 C    1.226   129 Cu   0.495
   157   6 C    3.928 --   167 C    1.320   155 C    1.319   158 C    1.033
   158   6 C    3.984 --   166 C    1.384   159 C    1.383   157 C    1.033
   159   6 C    3.986 --   160 C    1.464   158 C    1.383   182 H    0.971
                           165 C    0.102
   160   6 C    3.987 --   159 C    1.464   161 C    1.387   183 H    0.965
                           166 C    0.101
   161   6 C    3.941 --   165 C    1.387   160 C    1.387   162 N    0.921
   162   7 N    3.866 --   164 O    1.454   163 O    1.454   161 C    0.921
   163   8 O    1.829 --   162 N    1.454   164 O    0.252
   164   8 O    1.829 --   162 N    1.454   163 O    0.252
   165   6 C    3.987 --   166 C    1.463   161 C    1.387   184 H    0.965
                           159 C    0.102
   166   6 C    3.986 --   165 C    1.463   158 C    1.384   185 H    0.971
                           160 C    0.101
   167   6 C    3.906 --   157 C    1.320   171 N    1.226   168 C    1.179
   168   6 C    3.955 --   169 C    1.643   167 C    1.179   186 H    0.973
   169   6 C    3.955 --   168 C    1.643   170 C    1.186   187 H    0.974
   170   6 C    3.897 --   171 N    1.259   130 C    1.259   169 C    1.186
   171   7 N    3.240 --   170 C    1.259   167 C    1.226   129 Cu   0.494
   172   1 H    1.002 --   132 C    0.974
   173   1 H    1.003 --   133 C    0.973
   174   1 H    1.003 --   138 C    0.971
   175   1 H    1.006 --   139 C    0.965
   176   1 H    1.006 --   144 C    0.965
   177   1 H    1.003 --   145 C    0.971
   178   1 H    1.003 --   147 C    0.973
   179   1 H    1.002 --   148 C    0.974
   180   1 H    1.002 --   153 C    0.974
   181   1 H    1.003 --   154 C    0.973
   182   1 H    1.004 --   159 C    0.971
   183   1 H    1.006 --   160 C    0.965
   184   1 H    1.006 --   165 C    0.965
   185   1 H    1.003 --   166 C    0.971
   186   1 H    1.003 --   168 C    0.973
   187   1 H    1.002 --   169 C    0.974
 ---------------------------------------------------------------------------

           -------------------------------------------------
          | TOTAL ENERGY             -373.306754358585 Eh   |
          | GRADIENT NORM               0.000300121905 Eh/α |
          | HOMO-LUMO GAP               0.001595137955 eV   |
           -------------------------------------------------

 * finished run on 2022/07/30 at 08:06:59.154
