   * xtb version 6.5.1 (b24c23e) compiled by 'conda@728c89f4b128' on 2022-07-12
          program call               : xtb Zn_NMA_C6_2.xyz --gfn 1 --opt -T 48

   ID    Z sym.   atoms
    1   30 Zn     1, 67
    2    6 C      2-6, 8-12, 14-19, 21-26, 28-32, 34-40, 68-72, 74-78, 80-85,
                  87-92, 94-98, 100-106, 133-138
    3    7 N      7, 13, 20, 27, 33, 41, 73, 79, 86, 93, 99, 107
    4    1 H      42-66, 108-132
########################################################################
[WARNING] Please study the warnings concerning your input carefully
-1- prog_main_parseArguments: Unknown option '-T' provided
########################################################################

          :  Hamiltonian                  GFN1-xTB          :
 * total energy  :  -206.1728912 Eh     change       -0.4266099E-10 Eh
 * total energy  :  -219.7449484 Eh     change       -0.1357206E+02 Eh
 * total energy  :  -220.7998944 Eh     change       -0.1054946E+01 Eh
 * total energy  :  -221.6849121 Eh     change       -0.8850178E+00 Eh
 * total energy  :  -222.1090075 Eh     change       -0.4240954E+00 Eh
 * total energy  :  -222.3649305 Eh     change       -0.2559230E+00 Eh
 * total energy  :  -222.5304763 Eh     change       -0.1655459E+00 Eh
 * total energy  :  -222.6555729 Eh     change       -0.1250966E+00 Eh
 * total energy  :  -222.7596085 Eh     change       -0.1040357E+00 Eh
 * total energy  :  -222.8435609 Eh     change       -0.8395238E-01 Eh
 * total energy  :  -223.1588476 Eh     change       -0.1723211E-04 Eh
 * total energy  :  -223.1588568 Eh     change       -0.9217033E-05 Eh
 * total energy  :  -223.1588679 Eh     change       -0.1105848E-04 Eh
 * total energy  :  -223.1588802 Eh     change       -0.1235647E-04 Eh
 * total energy  :  -223.1588930 Eh     change       -0.1278205E-04 Eh
 * total energy  :  -223.1589052 Eh     change       -0.1221248E-04 Eh
 * total energy  :  -223.1589149 Eh     change       -0.9659361E-05 Eh
 * total energy  :  -223.1589208 Eh     change       -0.5918750E-05 Eh
 * total energy  :  -223.1589242 Eh     change       -0.3394490E-05 Eh
   *** GEOMETRY OPTIMIZATION CONVERGED AFTER 59 ITERATIONS ***

 final structure:
================
138
 xtb: 6.5.1 (b24c23e)
Zn          16.30565774115349        0.00956801664704        0.00081869229014
C           12.89951071181776        0.11635988600810       -0.09759542773240
C           13.52312187892342        1.03231149176863        0.74141683528121
C           12.84279337741270        1.97810692831593        1.58035114349116
C           13.79703560852865        2.68257552271727        2.23938293901555
C           15.07335068444789        2.18329970165740        1.80181236555651
N           14.87146151450728        1.17798165922863        0.90161424242823
C           16.32078876882145        2.63990222365533        2.24747852437750
C           16.32759261845890        3.76835740316800        3.20963967730193
C           15.77601839957712        5.00526847401117        2.86473342066210
C           15.79020618781681        6.06003425156866        3.75799621387197
C           16.35219956569105        5.90644765023119        5.03109444521843
N           16.29218293607258        6.97599797906985        5.91402989987804
C           17.25332505396961        7.05963875399597        7.00581682882803
C           16.89044310323322        4.66686142896283        5.38737376613710
C           16.88296916403108        3.61951066494853        4.48156012504979
C           17.56124145726903        2.12079452339776        1.85900384947025
C           18.83925198240913        2.63020980607926        2.27223200379442
C           19.78850427515957        1.86740931817612        1.67151460258584
N           17.75920530379047        1.06836878292969        1.00460490581938
C           19.10149349962440        0.89150369688720        0.87851604942960
C           19.73642552058200       -0.09250309986640        0.09325862067494
C           19.08748481663746       -1.04160198381104       -0.72271889912923
C           19.75706421408345       -2.05835465647640       -1.47833610015819
C           18.79786145285960       -2.76498991952024       -2.12997130968132
C           17.53200781235100       -2.17858009716281       -1.78733748843474
N           17.74574914358507       -1.13887512069985       -0.92118986711909
C           16.28585435870264       -2.61902725225943       -2.24837308415702
C           16.27598796711171       -3.74430234163298       -3.21409791649749
C           16.91495893678171       -3.63160181801888       -4.45002294734297
C           16.90475563576344       -4.67535452420647       -5.35995639971860
C           16.26227546583874       -5.87565522714384       -5.04392374657826
N           16.18195374656732       -6.93636140678297       -5.93557584757026
C           17.20032627875159       -7.08581476790507       -6.96673652755133
C           15.61628668294524       -5.99268407362264       -3.80732087600790
C           15.62157965859518       -4.94124490865355       -2.91007487048266
C           15.04572734666789       -2.08425578595363       -1.87443688678200
C           13.76816321570030       -2.50048553390274       -2.38879391997816
C           12.82338056945243       -1.73780120452926       -1.78311110664939
C           13.51182552824619       -0.83797968132482       -0.90140662108931
N           14.85531591494026       -1.06894139836711       -0.98307703348995
H           11.81474384467355        0.15074012545250       -0.12922020946642
H           11.77089716271927        2.07572962353552        1.65511810837925
H           13.65288836978476        3.46355894944523        2.96880428988160
H           15.35325343494177        5.14444994773235        1.87562307396717
H           15.36594170294576        7.01744818721949        3.47405815450178
H           16.17094122828176        7.86383180993154        5.44133684483168
H           18.28356415800104        6.96093580241241        6.64481628033295
H           17.05395848777184        6.27792475598010        7.73996943921017
H           17.13164257173102        8.02965381827769        7.48801309950416
H           17.31401696613098        4.51150308835322        6.37209117257051
H           17.29624734667772        2.65993135145207        4.77316949359978
H           18.99087227455183        3.47367972695478        2.92648146908127
H           20.86048627068851        1.95753698377953        1.74800665936060
H           20.82438035750347       -2.21241365803257       -1.49579315620245
H           18.93400899683137       -3.61797315921945       -2.77524589622869
H           17.40897473059130       -2.70192078094092       -4.71129976791350
H           17.39553707871363       -4.54770587219995       -6.31703934497458
H           15.96722746455301       -7.81424198772406       -5.47810437918031
H           17.09910768117873       -6.29390523638461       -7.70997920967188
H           17.04412572604188       -8.04640898407484       -7.45760569787097
H           18.21068523060274       -7.05535711074140       -6.54300914588574
H           15.11083050408194       -6.91904513616369       -3.55498778858664
H           15.13216919371128       -5.05302551925423       -1.94862667418622
H           13.61758281706808       -3.26906428114594       -3.12997056561566
H           11.75373537253235       -1.76697113330263       -1.92128032202919
Zn          32.33970237625865       -0.00254390696409       -0.00982641738577
C           35.74571318944970        0.06715504750519       -0.13384523069702
C           35.12153638255251       -0.95069015163909       -0.84532420257318
C           35.80135479272666       -1.97609842493659       -1.58529345524633
C           34.84670527245773       -2.77198278125117       -2.12970884828876
C           33.57064910235645       -2.23514697126440       -1.73830477052048
N           33.77309003569911       -1.13764541646997       -0.95324097344210
C           32.32296164616609       -2.76907846973237       -2.08682693619105
C           32.31595577276280       -3.95419563457989       -2.97828539345922
C           32.86814515043432       -3.88735367701554       -4.26040462809864
C           32.85510090553544       -4.98933899164133       -5.09469772758893
C           32.29371451164520       -6.19859976950120       -4.66714694278958
N           32.35585660686230       -7.29379805879321       -5.51784051992980
C           31.39741501410091       -8.37981462461107       -5.36098119823811
C           31.75426162725457       -6.27576937665410       -3.38019842050753
C           31.76060635034041       -5.16311496383098       -2.55586112083000
C           31.08279937264984       -2.27631253670226       -1.66464483089472
C           29.80447494013579       -2.79061505663139       -2.07074430421534
C           28.85571717988491       -2.03772954084189       -1.45688569408353
N           30.88550722058928       -1.21263439046862       -0.82411593081900
C           29.54336200684241       -1.05072761066445       -0.67829250795177
C           28.90900742676956       -0.06935221352456        0.11075560428405
C           29.55840207411764        0.93414980562755        0.85836543005945
C           28.88930927232175        1.89351630990551        1.68599682803370
C           29.84884663568040        2.68352950415150        2.23298091980764
C           31.11447651137644        2.22094378458542        1.73507023290824
N           30.90022525641072        1.14881903574249        0.90952689337855
C           32.36089666363180        2.76650597550277        2.06435637070163
C           32.37080918439212        3.95461669958716        2.95159457386680
C           31.73032484593156        5.13552115900771        2.57232882965931
C           31.73897820823015        6.25103993449227        3.39271146924914
C           32.38145095658017        6.20498558923464        4.63304979490727
N           32.45955623868513        7.30619679296159        5.47454506344452
C           31.43927689969944        8.34330525334256        5.39542433126231
C           33.02959463628669        5.02468479111741        5.01640175743290
C           33.02574066318610        3.91983073963390        4.18579355446269
C           33.60081136605368        2.28381512984722        1.62460620999642
C           34.87884658992730        2.87531009067062        1.91914302987972
C           35.82318272081758        2.11659579927023        1.30780444475402
C           35.13400688162633        1.06043545648166        0.62180732940901
N           33.79053984132677        1.19202004650863        0.82856841202433
H           36.83053017494198        0.08935269756205       -0.17359416989545
H           36.87320226711442       -2.07125740296981       -1.66378683630235
H           34.99042566603087       -3.65413419790817       -2.73296855924778
H           33.29070348473375       -2.95228107805324       -4.61186164267917
H           33.28005163856955       -4.92108549134361       -6.09069811480505
H           32.47710254765558       -7.02653796177356       -6.48749391079314
H           30.36618039372787       -8.00871699401417       -5.34465543850507
H           31.59746925870153       -8.92428562250144       -4.43723717828805
H           31.52160596852135       -9.06254209730462       -6.20164236722550
H           31.33073476132231       -7.20296174261779       -3.01391875121812
H           31.34660237255983       -5.23845342207348       -1.55608454879977
H           29.65229320372464       -3.61330123252851       -2.75080746662228
H           27.78368076932817       -2.13195152268515       -1.52741609668703
H           27.82205636541704        1.94436913533734        1.83292831832614
H           29.71302432345391        3.49932144321270        2.92474600790353
H           31.23611121723824        5.18726245141999        1.60811772913609
H           31.24671000684848        7.15652398343307        3.05964846749864
H           32.67295853621833        7.05047265750939        6.43123767974849
H           31.53982354858262        8.89632300562887        4.46066893044132
H           31.59396481539858        9.03194989071116        6.22606157165878
H           30.42968042651158        7.92126547753597        5.45769629403301
H           33.53540086390159        4.98105116552923        5.97534290611053
H           33.51653636586379        3.00660882751248        4.50445223145951
H           35.03009520450064        3.76635429679529        2.50727009213869
H           36.89299144206831        2.25657727301646        1.30679972080743
C           24.93696777732320       -0.12587718317365        0.16763714126555
C           23.70844016455255       -0.13533539977324        0.16017653312290
C           22.36450425102548       -0.13354071612539        0.14438702412093
C           21.14057072793484       -0.12266806747782        0.12169861293808
C           26.28090404886172       -0.11075259348212        0.16177878752465
C           27.50489500662856       -0.09114562931810        0.14755980484056

          :  Hamiltonian                  GFN1-xTB          :
         :: total energy            -223.158924197643 Eh    ::
         :: gradient norm              0.000337294239 Eh/a0 ::
         :: HOMO-LUMO gap              1.048052332115 eV    ::
         :: SCC energy              -226.752769387335 Eh    ::
         :: repulsion energy           3.709756064368 Eh    ::

    * Orbital Energies and Occupations

         #    Occupation            Energy/Eh            Energy/eV
      -------------------------------------------------------------
         1        2.0000           -0.7755544             -21.1039
       ...           ...                  ...                  ...
       193        2.0000           -0.4115021             -11.1975
       194        2.0000           -0.4114242             -11.1954
       195        2.0000           -0.4112691             -11.1912
       196        2.0000           -0.4065614             -11.0631
       197        2.0000           -0.4009845             -10.9113
       198        2.0000           -0.3919815             -10.6664
       199        2.0000           -0.3896494             -10.6029
       200        2.0000           -0.3882968             -10.5661
       201        2.0000           -0.3882894             -10.5659
       202        2.0000           -0.3838539             -10.4452
       203        2.0000           -0.3838534             -10.4452
       204        2.0000           -0.3742557             -10.1840
       205        2.0000           -0.3652759              -9.9397 (HOMO)
       206                         -0.3267607              -8.8916 (LUMO)
       207                         -0.3155889              -8.5876
       208                         -0.3155857              -8.5875
       209                         -0.3150807              -8.5738
       210                         -0.2874178              -7.8210
       211                         -0.2798900              -7.6162
       212                         -0.2725748              -7.4171
       213                         -0.2530886              -6.8869
       214                         -0.2530807              -6.8867
       215                         -0.2530568              -6.8860
       216                         -0.2530501              -6.8858
       ...                                ...                  ...
       452                          1.5912397              43.2998
      -------------------------------------------------------------
                  HL-Gap            0.0385152 Eh            1.0481 eV

Wiberg/Mayer (AO) data.
largest (>0.10) Wiberg bond orders for each atom

     #   Z sym  total        # sym  WBO       # sym  WBO       # sym  WBO
 ---------------------------------------------------------------------------
     1  30 Zn   2.001 --     7 N    0.460    41 N    0.460    20 N    0.457
                            27 N    0.457
     2   6 C    3.924 --     3 C    1.356    40 C    1.356    42 H    0.972
     3   6 C    3.923 --     2 C    1.356     7 N    1.232     4 C    1.173
     4   6 C    3.959 --     5 C    1.655     3 C    1.173    43 H    0.976
     5   6 C    3.963 --     4 C    1.655     6 C    1.175    44 H    0.973
     6   6 C    3.916 --     8 C    1.311     7 N    1.245     5 C    1.175
     7   7 N    3.293 --     6 C    1.245     3 C    1.232     1 Zn   0.460
     8   6 C    3.933 --    17 C    1.322     6 C    1.311     9 C    1.033
     9   6 C    3.988 --    16 C    1.386    10 C    1.375     8 C    1.033
    10   6 C    3.988 --    11 C    1.475     9 C    1.375    45 H    0.973
    11   6 C    3.989 --    10 C    1.475    12 C    1.347    46 H    0.971
                            16 C    0.100
    12   6 C    3.952 --    15 C    1.355    11 C    1.347    13 N    1.106
    13   7 N    3.176 --    12 C    1.106    14 C    0.972    47 H    0.932
    14   6 C    3.968 --    50 H    0.990    49 H    0.986    48 H    0.984
                            13 N    0.972
    15   6 C    3.990 --    16 C    1.463    12 C    1.355    51 H    0.970
    16   6 C    3.988 --    15 C    1.463     9 C    1.386    52 H    0.973
                            11 C    0.100
    17   6 C    3.912 --     8 C    1.322    20 N    1.224    18 C    1.181
    18   6 C    3.960 --    19 C    1.643    17 C    1.181    53 H    0.973
    19   6 C    3.961 --    18 C    1.643    21 C    1.188    54 H    0.974
    20   7 N    3.297 --    21 C    1.263    17 C    1.224     1 Zn   0.457
    21   6 C    3.903 --    20 N    1.263    22 C    1.251    19 C    1.188
    22   6 C    3.936 --    23 C    1.252    21 C    1.251   136 C    1.194
    23   6 C    3.903 --    27 N    1.263    22 C    1.252    24 C    1.189
    24   6 C    3.961 --    25 C    1.643    23 C    1.189    55 H    0.974
    25   6 C    3.960 --    24 C    1.643    26 C    1.181    56 H    0.973
    26   6 C    3.912 --    28 C    1.322    27 N    1.224    25 C    1.181
    27   7 N    3.297 --    23 C    1.263    26 C    1.224     1 Zn   0.457
    28   6 C    3.933 --    26 C    1.322    37 C    1.310    29 C    1.033
    29   6 C    3.988 --    30 C    1.385    36 C    1.375    28 C    1.033
    30   6 C    3.988 --    31 C    1.463    29 C    1.385    57 H    0.973
                            35 C    0.100
    31   6 C    3.990 --    30 C    1.463    32 C    1.355    58 H    0.970
    32   6 C    3.952 --    31 C    1.355    35 C    1.347    33 N    1.106
    33   7 N    3.177 --    32 C    1.106    34 C    0.972    59 H    0.932
    34   6 C    3.968 --    61 H    0.990    60 H    0.986    62 H    0.984
                            33 N    0.972
    35   6 C    3.989 --    36 C    1.475    32 C    1.347    63 H    0.971
                            30 C    0.100
    36   6 C    3.987 --    35 C    1.475    29 C    1.375    64 H    0.973
    37   6 C    3.916 --    28 C    1.310    41 N    1.245    38 C    1.175
    38   6 C    3.963 --    39 C    1.655    37 C    1.175    65 H    0.973
    39   6 C    3.959 --    38 C    1.655    40 C    1.173    66 H    0.976
    40   6 C    3.923 --     2 C    1.356    41 N    1.232    39 C    1.173
    41   7 N    3.293 --    37 C    1.245    40 C    1.232     1 Zn   0.460
    42   1 H    1.002 --     2 C    0.972
    43   1 H    0.998 --     4 C    0.976
    44   1 H    1.006 --     5 C    0.973
    45   1 H    1.005 --    10 C    0.973
    46   1 H    0.999 --    11 C    0.971
    47   1 H    0.966 --    13 N    0.932
    48   1 H    1.004 --    14 C    0.984
    49   1 H    1.012 --    14 C    0.986
    50   1 H    1.007 --    14 C    0.990
    51   1 H    1.001 --    15 C    0.970
    52   1 H    1.005 --    16 C    0.973
    53   1 H    1.006 --    18 C    0.973
    54   1 H    1.003 --    19 C    0.974
    55   1 H    1.003 --    24 C    0.974
    56   1 H    1.006 --    25 C    0.973
    57   1 H    1.006 --    30 C    0.973
    58   1 H    1.001 --    31 C    0.970
    59   1 H    0.966 --    33 N    0.932
    60   1 H    1.012 --    34 C    0.986
    61   1 H    1.007 --    34 C    0.990
    62   1 H    1.004 --    34 C    0.984
    63   1 H    0.999 --    35 C    0.971
    64   1 H    1.005 --    36 C    0.973
    65   1 H    1.006 --    38 C    0.973
    66   1 H    0.998 --    39 C    0.976
    67  30 Zn   2.001 --    73 N    0.460   107 N    0.460    93 N    0.457
                            86 N    0.457
    68   6 C    3.924 --    69 C    1.356   106 C    1.356   108 H    0.972
    69   6 C    3.923 --    68 C    1.356    73 N    1.232    70 C    1.173
    70   6 C    3.959 --    71 C    1.655    69 C    1.173   109 H    0.976
    71   6 C    3.963 --    70 C    1.655    72 C    1.175   110 H    0.973
    72   6 C    3.916 --    74 C    1.311    73 N    1.245    71 C    1.175
    73   7 N    3.293 --    72 C    1.245    69 C    1.232    67 Zn   0.460
    74   6 C    3.933 --    83 C    1.322    72 C    1.311    75 C    1.033
    75   6 C    3.988 --    82 C    1.386    76 C    1.375    74 C    1.033
    76   6 C    3.988 --    77 C    1.475    75 C    1.375   111 H    0.973
    77   6 C    3.989 --    76 C    1.475    78 C    1.347   112 H    0.971
                            82 C    0.100
    78   6 C    3.952 --    81 C    1.355    77 C    1.347    79 N    1.106
    79   7 N    3.176 --    78 C    1.106    80 C    0.972   113 H    0.932
    80   6 C    3.968 --   116 H    0.990   115 H    0.986   114 H    0.984
                            79 N    0.972
    81   6 C    3.990 --    82 C    1.463    78 C    1.355   117 H    0.970
    82   6 C    3.988 --    81 C    1.463    75 C    1.386   118 H    0.973
                            77 C    0.100
    83   6 C    3.912 --    74 C    1.322    86 N    1.224    84 C    1.181
    84   6 C    3.960 --    85 C    1.643    83 C    1.181   119 H    0.973
    85   6 C    3.961 --    84 C    1.643    87 C    1.188   120 H    0.974
    86   7 N    3.297 --    87 C    1.263    83 C    1.224    67 Zn   0.457
    87   6 C    3.903 --    86 N    1.263    88 C    1.251    85 C    1.188
    88   6 C    3.936 --    89 C    1.252    87 C    1.251   138 C    1.194
    89   6 C    3.903 --    93 N    1.263    88 C    1.252    90 C    1.189
    90   6 C    3.961 --    91 C    1.643    89 C    1.189   121 H    0.974
    91   6 C    3.960 --    90 C    1.643    92 C    1.181   122 H    0.973
    92   6 C    3.912 --    94 C    1.322    93 N    1.224    91 C    1.181
    93   7 N    3.297 --    89 C    1.263    92 C    1.224    67 Zn   0.457
    94   6 C    3.933 --    92 C    1.322   103 C    1.310    95 C    1.033
    95   6 C    3.988 --    96 C    1.385   102 C    1.375    94 C    1.033
    96   6 C    3.988 --    97 C    1.463    95 C    1.385   123 H    0.973
                           101 C    0.100
    97   6 C    3.990 --    96 C    1.463    98 C    1.355   124 H    0.970
    98   6 C    3.952 --    97 C    1.355   101 C    1.347    99 N    1.106
    99   7 N    3.176 --    98 C    1.106   100 C    0.972   125 H    0.932
   100   6 C    3.968 --   127 H    0.990   126 H    0.986   128 H    0.984
                            99 N    0.972
   101   6 C    3.989 --   102 C    1.475    98 C    1.347   129 H    0.971
                            96 C    0.100
   102   6 C    3.987 --   101 C    1.475    95 C    1.375   130 H    0.973
   103   6 C    3.916 --    94 C    1.310   107 N    1.245   104 C    1.175
   104   6 C    3.963 --   105 C    1.655   103 C    1.175   131 H    0.973
   105   6 C    3.959 --   104 C    1.655   106 C    1.173   132 H    0.976
   106   6 C    3.923 --    68 C    1.356   107 N    1.232   105 C    1.173
   107   7 N    3.293 --   103 C    1.245   106 C    1.232    67 Zn   0.460
   108   1 H    1.002 --    68 C    0.972
   109   1 H    0.998 --    70 C    0.976
   110   1 H    1.006 --    71 C    0.973
   111   1 H    1.005 --    76 C    0.973
   112   1 H    0.999 --    77 C    0.971
   113   1 H    0.966 --    79 N    0.932
   114   1 H    1.004 --    80 C    0.984
   115   1 H    1.012 --    80 C    0.986
   116   1 H    1.007 --    80 C    0.990
   117   1 H    1.001 --    81 C    0.970
   118   1 H    1.005 --    82 C    0.973
   119   1 H    1.006 --    84 C    0.973
   120   1 H    1.003 --    85 C    0.974
   121   1 H    1.003 --    90 C    0.974
   122   1 H    1.006 --    91 C    0.973
   123   1 H    1.006 --    96 C    0.973
   124   1 H    1.001 --    97 C    0.970
   125   1 H    0.966 --    99 N    0.932
   126   1 H    1.012 --   100 C    0.986
   127   1 H    1.007 --   100 C    0.990
   128   1 H    1.004 --   100 C    0.984
   129   1 H    0.999 --   101 C    0.971
   130   1 H    1.005 --   102 C    0.973
   131   1 H    1.006 --   104 C    0.973
   132   1 H    0.998 --   105 C    0.976
   133   6 C    3.925 --   134 C    2.366   137 C    1.337   136 C    0.190
   134   6 C    3.925 --   133 C    2.366   135 C    1.337   138 C    0.190
   135   6 C    3.933 --   136 C    2.445   134 C    1.337
   136   6 C    3.890 --   135 C    2.445    22 C    1.194   133 C    0.190
   137   6 C    3.933 --   138 C    2.445   133 C    1.337
   138   6 C    3.890 --   137 C    2.445    88 C    1.194   134 C    0.190
 ---------------------------------------------------------------------------

           -------------------------------------------------
          | TOTAL ENERGY             -223.158924197643 Eh   |
          | GRADIENT NORM               0.000337294239 Eh/α |
          | HOMO-LUMO GAP               1.048052332115 eV   |
           -------------------------------------------------

 * finished run on 2022/07/30 at 09:06:31.880
