   * xtb version 6.5.1 (b24c23e) compiled by 'conda@728c89f4b128' on 2022-07-12
          program call               : xtb Co_BSA_C6_3.xyz --gfn 1 --opt -T 48

   ID    Z sym.   atoms
    1   27 Co     1, 65, 141
    2    6 C      2-6, 8-12, 17-21, 23-28, 30-34, 39-44, 66-70, 72-76, 81-85,
                  87-92, 94-98, 103-108, 129-140, 142-146, 148-152, 157-161,
                  163-168, 170-174, 179-184
    3    7 N      7, 22, 29, 45, 71, 86, 93, 109, 147, 162, 169, 185
    4   16 S      13, 35, 77, 99, 153, 175
    5    8 O      14-16, 36-38, 78-80, 100-102, 154-156, 176-178
    6    1 H      46-64, 110-128, 186-203

          :  Hamiltonian                  GFN1-xTB          :
 * total energy  :  -412.3708577 Eh     change       -0.2445233E-08 Eh
 * total energy  :  -412.7056140 Eh     change       -0.3347563E+00 Eh
 * total energy  :  -412.8579690 Eh     change       -0.1523550E+00 Eh
 * total energy  :  -412.9577892 Eh     change       -0.9982022E-01 Eh
 * total energy  :  -413.0338329 Eh     change       -0.7604367E-01 Eh
 * total energy  :  -413.0877916 Eh     change       -0.5395867E-01 Eh
 * total energy  :  -413.1187411 Eh     change       -0.3094954E-01 Eh
 * total energy  :  -413.1421651 Eh     change       -0.2342401E-01 Eh
 * total energy  :  -413.1590341 Eh     change       -0.1686902E-01 Eh
 * total energy  :  -413.1698313 Eh     change       -0.1079718E-01 Eh
 * total energy  :  -413.2487681 Eh     change       -0.1077326E-04 Eh
 * total energy  :  -413.2487775 Eh     change       -0.9404836E-05 Eh
 * total energy  :  -413.2487834 Eh     change       -0.5940382E-05 Eh
 * total energy  :  -413.2487921 Eh     change       -0.8611357E-05 Eh
 * total energy  :  -413.2487987 Eh     change       -0.6617228E-05 Eh
 * total energy  :  -413.2488051 Eh     change       -0.6434848E-05 Eh
 * total energy  :  -413.2488129 Eh     change       -0.7749283E-05 Eh
 * total energy  :  -413.2488182 Eh     change       -0.5329667E-05 Eh
 * total energy  :  -413.2488227 Eh     change       -0.4541656E-05 Eh
   *** GEOMETRY OPTIMIZATION CONVERGED AFTER 82 ITERATIONS ***

 final structure:
================
203
 xtb: 6.5.1 (b24c23e)
Co          31.52609325935220        0.09027676442464        0.02663439519778
C           28.15953098205882        0.21470898324744        0.07476910841776
C           28.81023232961596       -0.36329532830724        1.14405384380654
C           28.14733243159417       -0.95312712822569        2.26723402408190
C           29.10476578234784       -1.22557214599219        3.18488589247292
C           30.35026410983426       -0.78372707736873        2.62784776251199
N           30.16698052778897       -0.32699745763266        1.34785992329542
C           31.54218998937679       -0.69949599120338        3.33565336925974
C           31.55364431540495       -1.04736788088531        4.77411434073167
C           30.73445267103595       -0.36025136461800        5.67367017643181
C           30.74645688742085       -0.68042235796554        7.02114528545467
C           31.58078242371153       -1.69752968410032        7.45575882726462
S           31.60624559936203       -2.10273343948404        9.16141446040626
O           31.16597083179285       -0.99470756395826        9.95730970279733
O           30.42494650344346       -3.21741949336966        9.15546484869351
O           32.83648161927916       -2.74962982307829        9.51024693531290
C           32.40571901982423       -2.39551608428482        6.58876295785696
C           32.38975944675214       -2.06347273301922        5.24423735135302
C           32.72295932520095       -0.28679835594818        2.73470789564173
C           33.96193430198250       -0.09714843037984        3.42743072097383
C           34.90888959137838        0.11851888938720        2.48236989810484
N           32.90023941743911       -0.11514958368226        1.38183062248800
C           34.24554590347962        0.06554544199145        1.21818049954437
C           34.91384936782305        0.02080337817312       -0.00809896149889
C           34.22099622754079       -0.01291120852153       -1.22113531485822
C           34.85684081293999       -0.11157587977818       -2.49656130436561
C           33.89684145603955        0.10768611118971       -3.42755552554420
C           32.67911586875866        0.35331465515708       -2.71478299410966
N           32.87877536998757        0.20413369908630       -1.36183323799537
C           31.50479226783699        0.80537411542641       -3.29915645177464
C           31.49415717483720        1.11468361264039       -4.74650937015372
C           30.61250892970876        0.45041435113852       -5.60303341934126
C           30.59988397474174        0.73572104987679       -6.95838055460807
C           31.47433854144183        1.69398505032480       -7.44452053186599
S           31.45500369131113        2.06823560760948       -9.15758428910005
O           31.95479053393566        3.38965000445860       -9.40243381241453
O           32.59074542372237        1.01460393408363       -9.64563046210393
O           30.20118072350909        1.69075561026884       -9.73818327600869
C           32.35488233892134        2.37469717572114       -6.61937580471223
C           32.36277246927511        2.07783676965539       -5.26660072143492
C           30.34025095255750        0.98220024796758       -2.56285942031568
C           29.11573903722894        1.50658930972517       -3.09409693363337
C           28.17206526302972        1.34276042308700       -2.13732606319247
C           28.82187362493419        0.72701876109351       -1.02021451280922
N           30.16352466681037        0.57235535958473       -1.26676048845743
H           27.07723611445606        0.26153245848964        0.09240203761210
H           27.08434130293874       -1.12308961520824        2.32910191480576
H           28.99123894983409       -1.67920109945981        4.15611906918721
H           30.09925291578895        0.44137655721119        5.31536722871052
H           30.12459778999045       -0.14665831848214        7.72879545256277
H           30.23729257135352       -3.51023096844871       10.05557493914461
H           33.04965612063916       -3.18101436467186        6.96385266700080
H           33.01959764967508       -2.60396147448577        4.54731527258581
H           34.08069191058815       -0.12633701610030        4.49827755247827
H           35.96559568102395        0.28746654313519        2.61258580062655
H           35.90543402883370       -0.31431804078332       -2.64336611407644
H           33.99428833388023        0.10890554494349       -4.50095477738009
H           29.94429388380653       -0.30387177742697       -5.20426730575653
H           29.92119506573381        0.22694340931992       -7.63131459124294
H           32.87730354055491        1.22545005827537      -10.54264853299839
H           33.01540681422004        3.12753617788805       -7.03091711123128
H           33.03452973973797        2.60809049455974       -4.60170629175673
H           29.00617396504602        1.93987242808253       -4.07500972203064
H           27.12525165140990        1.59917225326696       -2.16978457575348
Co          63.41805249981277        0.07521221955963        0.00140356084795
C           66.78552846365133        0.21254705562172       -0.00616005066473
C           66.13097802411356        0.06905801220685       -1.21078342966523
C           66.79054584150029       -0.06408870431663       -2.47411078543301
C           65.83096323328292        0.02212327495710       -3.42512923886919
C           64.58673692912726        0.22592332863421       -2.74164164704118
N           64.77353784100426        0.17751827729703       -1.38355942711331
C           63.39278912624162        0.56048989519835       -3.36601451481215
C           63.37889540297248        0.76978232942062       -4.83104953016580
C           64.19636498028056        1.74261024085153       -5.41247952528080
C           64.18364700370712        1.94454201043035       -6.78259622435029
C           63.34982000032765        1.15989403846589       -7.56280032488282
S           63.32388832847825        1.41572966551270       -9.29700875056493
O           63.74992079940537        2.74479961005662       -9.62428532003120
O           64.51662869788468        0.39052409130651       -9.70306413235219
O           62.10009172345094        0.93073972766821       -9.86379909717160
C           62.52644046056422        0.18919999535012       -7.01578936234796
C           62.54361894076870       -0.00096400215793       -5.64397464571307
C           62.21221210705638        0.71483455824291       -2.65288461817351
C           60.96946384272492        1.13677314528572       -3.22589019419640
C           60.02482216293663        0.98426917876540       -2.26654656190431
N           62.03954974502823        0.37809173936006       -1.33094904501082
C           60.69280255179307        0.47694087381726       -1.11013108637265
C           60.02978776462969       -0.01109184184660        0.01718109079480
C           60.72605133244473       -0.47907436950206        1.13302639639785
C           60.09510678580899       -1.03594755719794        2.28732899125620
C           61.05818450718146       -1.16852598926695        3.23130072687915
C           62.27328468936435       -0.67839105846257        2.65326158668582
N           62.06956878222443       -0.32552628428288        1.33951853084259
C           63.44919186763173       -0.46891359072745        3.35940238160371
C           63.46325782205964       -0.70952352936589        4.81988630428986
C           64.34265760104262       -1.64436034505718        5.37187433432242
C           64.35640648979646       -1.87595294893102        6.73743926197186
C           63.48563780782293       -1.15947720347332        7.54220353564601
S           63.50318239328550       -1.44215094258567        9.27265357285025
O           63.01607561020373       -0.29859331807265        9.98759814928676
O           62.35419111741259       -2.58841428425458        9.33942255680362
O           64.75091959971203       -2.02085919067263        9.67266191909863
C           62.60816670455034       -0.21992072857165        7.02549056723945
C           62.59897528724961       -0.00030516779265        5.65809435316222
C           64.61115305875633       -0.03560219613763        2.73541317622035
C           65.83779433504354        0.25777398369449        3.41794419298084
C           66.77918593506259        0.45306779969734        2.46499835923148
C           66.12621544989787        0.28826252683996        1.20178964759354
N           64.78449060453589        0.05657537417533        1.37819161113168
H           67.86781923404341        0.26157684543034       -0.00843200357684
H           67.85327093931809       -0.19908320701940       -2.59692698277278
H           65.94216100593228       -0.04044694358405       -4.49550129547450
H           64.83104666957743        2.35522915103777       -4.78289024335374
H           64.80448842477736        2.70319297435935       -7.24237235273087
H           64.68810203642654        0.43624459683871      -10.65153737694483
H           61.88292867130532       -0.40220245133240       -7.65492945709390
H           61.91539259074712       -0.76257195246839       -5.19694517355879
H           60.84674306105230        1.50131497431333       -4.23271098686438
H           58.96660894010345        1.18168841017106       -2.32439245356934
H           59.04717637679843       -1.28027389325140        2.35344884547060
H           60.96459015741753       -1.55817731966091        4.23186381880725
H           65.00787775950329       -2.20229783085707        4.72327341035716
H           65.03271732009848       -2.59885510508534        7.17598461286935
H           62.05726790859693       -2.71015775478287       10.24943467185771
H           61.95078696522145        0.33212153116051        7.68543677867181
H           61.92903676758291        0.73884853910647        5.23460383180866
H           65.94987341403245        0.30320346846068        4.48908378454266
H           67.82657408494410        0.67883410487417        2.58604053860332
C           40.11295089536053       -0.02567628861068       -0.03366696871110
C           38.88392921874603       -0.02047713969509       -0.03072041198069
C           37.54057608088154       -0.00879042043207       -0.02665955174051
C           36.31643109030038        0.00289718696713       -0.02023526600180
C           41.45605906774783       -0.03072769324045       -0.03394257230147
C           42.68062183386740       -0.03255559060569       -0.03565350309780
C           56.05660376133719       -0.06214911810503        0.03152675127690
C           54.82851748662203       -0.06665450378821        0.02860088358266
C           53.48375142057222       -0.06798381619156        0.02403642075484
C           52.26001429496367       -0.06205830336804        0.01361961583913
C           57.40176641643269       -0.05138248707618        0.02889486975832
C           58.62491893913453       -0.03480724206711        0.02652270299130
Co          47.46950026063472       -0.05663517020947        0.00515637027211
C           44.08203557365768       -0.03258870525900       -0.03450974822371
C           44.76465825944788        0.82769045370423        0.83178114694872
C           44.12223897855872        1.70241205934786        1.76029737200743
C           45.07736012501039        2.54557905631105        2.22459257516513
C           46.29840716020917        2.18586399186860        1.56957127620323
N           46.10512893665830        1.08466270710351        0.76994732727406
C           47.47052858123892        2.92907527062121        1.61652101028205
C           47.46782392245616        4.22685501430594        2.32715814268155
C           48.34595014646980        4.45267739749679        3.39019454342898
C           48.34486645848896        5.66686019067016        4.05683019932362
C           47.46070318724168        6.65083091111513        3.64553669574139
S           47.46588228966165        8.19631712535430        4.47481031300504
O           46.94893921974847        9.23436383455418        3.63163936013131
O           46.34095082084404        7.86807976773094        5.59869385603916
O           48.72139375353426        8.40709502276468        5.13114067155226
C           46.58201578905434        6.45859995197970        2.59178374482945
C           46.58709534610984        5.23878634411678        1.93597008282602
C           48.64338529035349        2.48965848137192        1.01663903275192
C           49.86905516610317        3.22929249239034        0.98628911361923
C           50.82459941938792        2.38214279961515        0.53150630988656
N           48.83266330048213        1.22961673452443        0.49986979323491
C           50.17748354097233        1.13502233397121        0.27345044440880
C           50.85684403834556       -0.05562727318725        0.00028630186136
C           50.17088102815443       -1.23861467069789       -0.29017134825906
C           50.80825308570870       -2.49128918379334       -0.54421579538573
C           49.85307718442346       -3.32205435984607       -1.03008825667007
C           48.63711196512057       -2.56808194596563       -1.07903650068929
N           48.83217263274066       -1.31227353429287       -0.55646706032283
C           47.46778078453093       -2.99054302196905       -1.69889560708750
C           47.46460984603967       -4.28155854528845       -2.42151782306781
C           48.35686182594710       -4.50441685981530       -3.47341874709716
C           48.35832077961019       -5.71320964431603       -4.14974794196796
C           47.46218690190346       -6.69496869006558       -3.75949364402070
S           47.47204275842888       -8.23482720884238       -4.59891213204480
O           46.93227334677404       -9.27447777039413       -3.77213476830668
O           46.37103145137960       -7.89172395088391       -5.74196351999526
O           48.73808326603884       -8.45065044862378       -5.23310719875902
C           46.56928283766477       -6.50569307088756       -2.71719050520682
C           46.57236967827951       -5.29138036407683       -2.05129719286050
C           46.29982565302299       -2.24154549101023       -1.65172986080778
C           45.07877452181870       -2.59485259354770       -2.31091001266633
C           44.12331322421451       -1.75822940755868       -1.83659621248125
C           44.76620471161262       -0.89041413163275       -0.90167300152925
N           46.10840848891925       -1.14059487668898       -0.84991482524502
H           43.07293902643222        1.67142688371297        2.00554470403644
H           44.97429216918460        3.34170959760023        2.94382250079793
H           49.02179364271589        3.66567430301362        3.70371394973459
H           49.02095685417238        5.85296092588035        4.88180999236060
H           46.05145839159701        8.68181595895462        6.02928678946527
H           45.91283310651656        7.25399026395233        2.28859621224071
H           45.91685944455410        5.07206601905759        1.10083088654264
H           49.97530996821804        4.26037267270848        1.28151539473557
H           51.87701009355560        2.56665643484286        0.38836356788420
H           51.85455063984019       -2.69071715926811       -0.37804149968410
H           49.95352302296750       -4.35186353147527       -1.33182321658105
H           49.04232709860788       -3.71926646057839       -3.77024547429009
H           49.04567966267264       -5.89703214601844       -4.96587781679136
H           46.09386413557072       -8.69974710909104       -6.19104512092943
H           45.89108621251450       -7.29943062349165       -2.43010650045909
H           45.89176412960970       -5.12788703666851       -1.22393208555091
H           44.97531003006418       -3.38508470446258       -3.03650689183332
H           43.07345973310972       -1.72630727558963       -2.07938390918661

          :  Hamiltonian                  GFN1-xTB          :
         :: total energy            -413.248822723778 Eh    ::
         :: gradient norm              0.000727420353 Eh/a0 ::
         :: HOMO-LUMO gap              0.003531983231 eV    ::
         :: SCC energy              -418.918496477187 Eh    ::
         :: repulsion energy           5.855437969898 Eh    ::

    * Orbital Energies and Occupations

         #    Occupation            Energy/Eh            Energy/eV
      -------------------------------------------------------------
         1        2.0000           -1.0390356             -28.2736
       ...           ...                  ...                  ...
       348        2.0000           -0.4150837             -11.2950
       349        2.0000           -0.4138168             -11.2605
       350        2.0000           -0.4133044             -11.2466
       351        1.9998           -0.4118384             -11.2067
       352        1.9998           -0.4117029             -11.2030
       353        1.9997           -0.4114844             -11.1971
       354        1.9996           -0.4113104             -11.1923
       355        1.9996           -0.4111253             -11.1873
       356        1.9994           -0.4109288             -11.1819
       357        1.9894           -0.4081189             -11.1055
       358        1.8335           -0.4053977             -11.0314
       359        1.1058           -0.4031902             -10.9714
       360        1.0677           -0.4031098             -10.9692 (HOMO)
       361        1.0058           -0.4029800             -10.9656 (LUMO)
       362                         -0.3602534              -9.8030
       363                         -0.3515399              -9.5659
       364                         -0.3509760              -9.5505
       365                         -0.3497304              -9.5166
       366                         -0.3491845              -9.5018
       367                         -0.3473967              -9.4531
       368                         -0.3301901              -8.9849
       369                         -0.3222845              -8.7698
       370                         -0.3211376              -8.7386
       371                         -0.3139041              -8.5418
       ...                                ...                  ...
       745                          1.5595511              42.4375
      -------------------------------------------------------------
                  HL-Gap            0.0001298 Eh            0.0035 eV

Wiberg/Mayer (AO) data.
largest (>0.10) Wiberg bond orders for each atom

     #   Z sym  total        # sym  WBO       # sym  WBO       # sym  WBO
 ---------------------------------------------------------------------------
     1  27 Co   3.045 --     7 N    0.641    45 N    0.641    29 N    0.635
                            22 N    0.634
     2   6 C    3.930 --    44 C    1.367     3 C    1.365    46 H    0.969
     3   6 C    3.922 --     2 C    1.365     7 N    1.199     4 C    1.174
     4   6 C    3.958 --     5 C    1.650     3 C    1.174    47 H    0.975
     5   6 C    3.963 --     4 C    1.650     6 C    1.175    48 H    0.973
     6   6 C    3.921 --     8 C    1.319     7 N    1.211     5 C    1.175
     7   7 N    3.347 --     6 C    1.211     3 C    1.199     1 Co   0.641
     8   6 C    3.932 --    19 C    1.328     6 C    1.319     9 C    1.033
     9   6 C    3.986 --    18 C    1.390    10 C    1.389     8 C    1.033
    10   6 C    3.986 --    11 C    1.450     9 C    1.389    49 H    0.971
                            17 C    0.106
    11   6 C    3.989 --    10 C    1.450    12 C    1.407    50 H    0.967
                            18 C    0.106
    12   6 C    3.930 --    17 C    1.407    11 C    1.407    13 S    0.754
    13  16 S    5.265 --    16 O    1.721    14 O    1.718    15 O    1.013
                            12 C    0.754
    14   8 O    2.077 --    13 S    1.718    16 O    0.139
    15   8 O    2.087 --    13 S    1.013    51 H    0.827
    16   8 O    2.080 --    13 S    1.721    14 O    0.139
    17   6 C    3.989 --    18 C    1.450    12 C    1.407    52 H    0.967
                            10 C    0.106
    18   6 C    3.985 --    17 C    1.450     9 C    1.390    53 H    0.971
                            11 C    0.106
    19   6 C    3.917 --     8 C    1.328    22 N    1.195    20 C    1.181
    20   6 C    3.958 --    21 C    1.637    19 C    1.181    54 H    0.973
    21   6 C    3.961 --    20 C    1.637    23 C    1.189    55 H    0.973
    22   7 N    3.348 --    23 C    1.226    19 C    1.195     1 Co   0.634
    23   6 C    3.901 --    24 C    1.260    22 N    1.226    21 C    1.189
    24   6 C    3.936 --    23 C    1.260    25 C    1.260   132 C    1.191
    25   6 C    3.901 --    24 C    1.260    29 N    1.228    26 C    1.190
    26   6 C    3.961 --    27 C    1.637    25 C    1.190    56 H    0.973
    27   6 C    3.958 --    26 C    1.637    28 C    1.181    57 H    0.973
    28   6 C    3.917 --    30 C    1.330    29 N    1.194    27 C    1.181
    29   7 N    3.348 --    25 C    1.228    28 C    1.194     1 Co   0.635
    30   6 C    3.932 --    28 C    1.330    41 C    1.318    31 C    1.032
    31   6 C    3.986 --    32 C    1.390    40 C    1.389    30 C    1.032
    32   6 C    3.986 --    33 C    1.450    31 C    1.390    58 H    0.971
                            39 C    0.106
    33   6 C    3.989 --    32 C    1.450    34 C    1.407    59 H    0.967
                            40 C    0.106
    34   6 C    3.930 --    33 C    1.407    39 C    1.407    35 S    0.754
    35  16 S    5.266 --    38 O    1.726    36 O    1.715    37 O    1.014
                            34 C    0.754
    36   8 O    2.074 --    35 S    1.715    38 O    0.139
    37   8 O    2.088 --    35 S    1.014    60 H    0.828
    38   8 O    2.084 --    35 S    1.726    36 O    0.139
    39   6 C    3.989 --    40 C    1.451    34 C    1.407    61 H    0.967
                            32 C    0.106
    40   6 C    3.986 --    39 C    1.451    31 C    1.389    62 H    0.971
                            33 C    0.106
    41   6 C    3.921 --    30 C    1.318    45 N    1.213    42 C    1.175
    42   6 C    3.963 --    43 C    1.651    41 C    1.175    63 H    0.973
    43   6 C    3.960 --    42 C    1.651    44 C    1.173    64 H    0.975
    44   6 C    3.922 --     2 C    1.367    45 N    1.198    43 C    1.173
    45   7 N    3.347 --    41 C    1.213    44 C    1.198     1 Co   0.641
    46   1 H    0.999 --     2 C    0.969
    47   1 H    0.997 --     4 C    0.975
    48   1 H    1.003 --     5 C    0.973
    49   1 H    1.003 --    10 C    0.971
    50   1 H    0.999 --    11 C    0.967
    51   1 H    0.854 --    15 O    0.827
    52   1 H    0.999 --    17 C    0.967
    53   1 H    1.003 --    18 C    0.971
    54   1 H    1.002 --    20 C    0.973
    55   1 H    1.000 --    21 C    0.973
    56   1 H    1.001 --    26 C    0.973
    57   1 H    1.003 --    27 C    0.973
    58   1 H    1.003 --    32 C    0.971
    59   1 H    0.999 --    33 C    0.967
    60   1 H    0.854 --    37 O    0.828
    61   1 H    0.999 --    39 C    0.967
    62   1 H    1.003 --    40 C    0.971
    63   1 H    1.002 --    42 C    0.973
    64   1 H    0.997 --    43 C    0.975
    65  27 Co   3.057 --    71 N    0.645   109 N    0.645    93 N    0.639
                            86 N    0.639
    66   6 C    3.936 --   108 C    1.367    67 C    1.366   110 H    0.969
    67   6 C    3.922 --    66 C    1.366    71 N    1.198    68 C    1.174
    68   6 C    3.958 --    69 C    1.651    67 C    1.174   111 H    0.975
    69   6 C    3.962 --    68 C    1.651    70 C    1.174   112 H    0.973
    70   6 C    3.921 --    72 C    1.322    71 N    1.209    69 C    1.174
    71   7 N    3.351 --    70 C    1.209    67 C    1.198    65 Co   0.645
    72   6 C    3.937 --    83 C    1.326    70 C    1.322    73 C    1.033
    73   6 C    3.986 --    82 C    1.390    74 C    1.389    72 C    1.033
    74   6 C    3.986 --    75 C    1.451    73 C    1.389   113 H    0.971
                            81 C    0.106
    75   6 C    3.989 --    74 C    1.451    76 C    1.407   114 H    0.967
                            82 C    0.106
    76   6 C    3.930 --    81 C    1.407    75 C    1.407    77 S    0.754
    77  16 S    5.264 --    80 O    1.721    78 O    1.718    79 O    1.013
                            76 C    0.754
    78   8 O    2.077 --    77 S    1.718    80 O    0.139
    79   8 O    2.087 --    77 S    1.013   115 H    0.828
    80   8 O    2.079 --    77 S    1.721    78 O    0.139
    81   6 C    3.989 --    82 C    1.450    76 C    1.407   116 H    0.967
                            74 C    0.106
    82   6 C    3.985 --    81 C    1.450    73 C    1.390   117 H    0.971
                            75 C    0.106
    83   6 C    3.916 --    72 C    1.326    86 N    1.196    84 C    1.181
    84   6 C    3.959 --    85 C    1.638    83 C    1.181   118 H    0.973
    85   6 C    3.961 --    84 C    1.638    87 C    1.189   119 H    0.973
    86   7 N    3.353 --    87 C    1.221    83 C    1.196    65 Co   0.639
    87   6 C    3.902 --    88 C    1.267    86 N    1.221    85 C    1.189
    88   6 C    3.943 --    87 C    1.267    89 C    1.266   140 C    1.180
    89   6 C    3.903 --    88 C    1.266    93 N    1.222    90 C    1.189
    90   6 C    3.961 --    91 C    1.638    89 C    1.189   120 H    0.973
    91   6 C    3.959 --    90 C    1.638    92 C    1.181   121 H    0.973
    92   6 C    3.917 --    94 C    1.328    93 N    1.195    91 C    1.181
    93   7 N    3.353 --    89 C    1.222    92 C    1.195    65 Co   0.639
    94   6 C    3.937 --    92 C    1.328   105 C    1.321    95 C    1.032
    95   6 C    3.986 --    96 C    1.390   104 C    1.389    94 C    1.032
    96   6 C    3.986 --    97 C    1.450    95 C    1.390   122 H    0.971
                           103 C    0.106
    97   6 C    3.989 --    96 C    1.450    98 C    1.408   123 H    0.967
                           104 C    0.106
    98   6 C    3.930 --    97 C    1.408   103 C    1.407    99 S    0.754
    99  16 S    5.266 --   102 O    1.726   100 O    1.714   101 O    1.014
                            98 C    0.754
   100   8 O    2.073 --    99 S    1.714   102 O    0.139
   101   8 O    2.088 --    99 S    1.014   124 H    0.828
   102   8 O    2.084 --    99 S    1.726   100 O    0.139
   103   6 C    3.989 --   104 C    1.451    98 C    1.407   125 H    0.967
                            96 C    0.106
   104   6 C    3.987 --   103 C    1.451    95 C    1.389   126 H    0.971
                            97 C    0.106
   105   6 C    3.921 --    94 C    1.321   109 N    1.210   106 C    1.174
   106   6 C    3.963 --   107 C    1.651   105 C    1.174   127 H    0.973
   107   6 C    3.960 --   106 C    1.651   108 C    1.173   128 H    0.975
   108   6 C    3.922 --    66 C    1.367   109 N    1.197   107 C    1.173
   109   7 N    3.351 --   105 C    1.210   108 C    1.197    65 Co   0.645
   110   1 H    0.999 --    66 C    0.969
   111   1 H    0.997 --    68 C    0.975
   112   1 H    1.003 --    69 C    0.973
   113   1 H    1.003 --    74 C    0.971
   114   1 H    0.999 --    75 C    0.967
   115   1 H    0.854 --    79 O    0.828
   116   1 H    0.999 --    81 C    0.967
   117   1 H    1.003 --    82 C    0.971
   118   1 H    1.002 --    84 C    0.973
   119   1 H    1.000 --    85 C    0.973
   120   1 H    1.000 --    90 C    0.973
   121   1 H    1.003 --    91 C    0.973
   122   1 H    1.003 --    96 C    0.971
   123   1 H    0.999 --    97 C    0.967
   124   1 H    0.854 --   101 O    0.828
   125   1 H    0.999 --   103 C    0.967
   126   1 H    1.003 --   104 C    0.971
   127   1 H    1.002 --   106 C    0.973
   128   1 H    0.997 --   107 C    0.975
   129   6 C    3.919 --   130 C    2.357   133 C    1.341   132 C    0.188
   130   6 C    3.917 --   129 C    2.357   131 C    1.340   134 C    0.188
   131   6 C    3.931 --   132 C    2.442   130 C    1.340
   132   6 C    3.881 --   131 C    2.442    24 C    1.191   129 C    0.188
   133   6 C    3.926 --   134 C    2.438   129 C    1.341
   134   6 C    3.884 --   133 C    2.438   142 C    1.197   130 C    0.188
   135   6 C    3.917 --   136 C    2.370   139 C    1.330   138 C    0.188
   136   6 C    3.921 --   135 C    2.370   137 C    1.332   140 C    0.189
   137   6 C    3.927 --   138 C    2.448   136 C    1.332
   138   6 C    3.886 --   137 C    2.448   164 C    1.189   135 C    0.188
   139   6 C    3.935 --   140 C    2.456   135 C    1.330
   140   6 C    3.883 --   139 C    2.456    88 C    1.180   136 C    0.189
   141  27 Co   3.068 --   162 N    0.637   185 N    0.636   169 N    0.631
                           147 N    0.630
   142   6 C    3.926 --   184 C    1.256   143 C    1.254   134 C    1.197
   143   6 C    3.903 --   142 C    1.254   147 N    1.229   144 C    1.192
   144   6 C    3.959 --   145 C    1.634   143 C    1.192   186 H    0.973
   145   6 C    3.959 --   144 C    1.634   146 C    1.184   187 H    0.973
   146   6 C    3.915 --   148 C    1.322   147 N    1.196   145 C    1.184
   147   7 N    3.342 --   143 C    1.229   146 C    1.196   141 Co   0.630
   148   6 C    3.928 --   159 C    1.322   146 C    1.322   149 C    1.033
   149   6 C    3.986 --   150 C    1.390   158 C    1.389   148 C    1.033
   150   6 C    3.984 --   151 C    1.449   149 C    1.390   188 H    0.971
                           157 C    0.106
   151   6 C    3.989 --   150 C    1.449   152 C    1.408   189 H    0.966
                           158 C    0.106
   152   6 C    3.931 --   151 C    1.408   157 C    1.407   153 S    0.754
   153  16 S    5.268 --   156 O    1.726   154 O    1.715   155 O    1.015
                           152 C    0.754
   154   8 O    2.074 --   153 S    1.715   156 O    0.139
   155   8 O    2.089 --   153 S    1.015   190 H    0.827
   156   8 O    2.084 --   153 S    1.726   154 O    0.139
   157   6 C    3.989 --   158 C    1.451   152 C    1.407   191 H    0.967
                           150 C    0.106
   158   6 C    3.984 --   157 C    1.451   149 C    1.389   192 H    0.971
                           151 C    0.106
   159   6 C    3.915 --   148 C    1.322   162 N    1.197   160 C    1.182
   160   6 C    3.960 --   161 C    1.636   159 C    1.182   193 H    0.973
   161   6 C    3.959 --   160 C    1.636   163 C    1.190   194 H    0.973
   162   7 N    3.342 --   163 C    1.227   159 C    1.197   141 Co   0.637
   163   6 C    3.903 --   164 C    1.260   162 N    1.227   161 C    1.190
   164   6 C    3.927 --   163 C    1.260   165 C    1.258   138 C    1.189
   165   6 C    3.903 --   164 C    1.258   169 N    1.226   166 C    1.192
   166   6 C    3.959 --   167 C    1.634   165 C    1.192   195 H    0.973
   167   6 C    3.960 --   166 C    1.634   168 C    1.184   196 H    0.973
   168   6 C    3.915 --   170 C    1.319   169 N    1.199   167 C    1.184
   169   7 N    3.343 --   165 C    1.226   168 C    1.199   141 Co   0.631
   170   6 C    3.927 --   181 C    1.325   168 C    1.319   171 C    1.034
   171   6 C    3.986 --   172 C    1.390   180 C    1.388   170 C    1.034
   172   6 C    3.984 --   173 C    1.450   171 C    1.390   197 H    0.971
                           179 C    0.106
   173   6 C    3.989 --   172 C    1.450   174 C    1.408   198 H    0.966
                           180 C    0.106
   174   6 C    3.931 --   173 C    1.408   179 C    1.407   175 S    0.754
   175  16 S    5.267 --   178 O    1.726   176 O    1.715   177 O    1.014
                           174 C    0.754
   176   8 O    2.074 --   175 S    1.715   178 O    0.139
   177   8 O    2.088 --   175 S    1.014   199 H    0.827
   178   8 O    2.084 --   175 S    1.726   176 O    0.139
   179   6 C    3.989 --   180 C    1.451   174 C    1.407   200 H    0.967
                           172 C    0.106
   180   6 C    3.984 --   179 C    1.451   171 C    1.388   201 H    0.971
                           173 C    0.106
   181   6 C    3.916 --   170 C    1.325   185 N    1.194   182 C    1.182
   182   6 C    3.959 --   183 C    1.635   181 C    1.182   202 H    0.973
   183   6 C    3.959 --   182 C    1.635   184 C    1.191   203 H    0.973
   184   6 C    3.903 --   142 C    1.256   185 N    1.230   183 C    1.191
   185   7 N    3.340 --   184 C    1.230   181 C    1.194   141 Co   0.636
   186   1 H    1.000 --   144 C    0.973
   187   1 H    1.002 --   145 C    0.973
   188   1 H    1.003 --   150 C    0.971
   189   1 H    0.999 --   151 C    0.966
   190   1 H    0.854 --   155 O    0.827
   191   1 H    0.999 --   157 C    0.967
   192   1 H    1.003 --   158 C    0.971
   193   1 H    1.002 --   160 C    0.973
   194   1 H    1.000 --   161 C    0.973
   195   1 H    1.000 --   166 C    0.973
   196   1 H    1.002 --   167 C    0.973
   197   1 H    1.003 --   172 C    0.971
   198   1 H    0.999 --   173 C    0.966
   199   1 H    0.854 --   177 O    0.827
   200   1 H    0.999 --   179 C    0.967
   201   1 H    1.003 --   180 C    0.971
   202   1 H    1.003 --   182 C    0.973
   203   1 H    1.000 --   183 C    0.973
 ---------------------------------------------------------------------------

           -------------------------------------------------
          | TOTAL ENERGY             -413.248822723778 Eh   |
          | GRADIENT NORM               0.000727420353 Eh/α |
          | HOMO-LUMO GAP               0.003531983231 eV   |
           -------------------------------------------------

 * finished run on 2022/07/30 at 07:20:24.572
