   * xtb version 6.5.1 (b24c23e) compiled by 'conda@728c89f4b128' on 2022-07-12
          program call               : xtb DMA_C6_3.xyz --gfn 1 --opt -T 48

   ID    Z sym.   atoms
    1    6 C      1-5, 7-11, 13-19, 21-26, 28-32, 34-41, 74-78, 80-84, 86-92,
                  94-99, 101-105, 107-114, 147-163, 165-169, 171-177,
                  179-184, 186-190, 192-199
    2    7 N      6, 12, 20, 27, 33, 42, 79, 85, 93, 100, 106, 115, 164, 170,
                  178, 185, 191, 200
    3    1 H      43-73, 116-146, 201-230

          :  Hamiltonian                  GFN1-xTB          :
 * total energy  :  -359.4140529 Eh     change       -0.2683009E-09 Eh
 * total energy  :  -359.7968069 Eh     change       -0.3827540E+00 Eh
 * total energy  :  -359.9358936 Eh     change       -0.1390867E+00 Eh
 * total energy  :  -360.0235677 Eh     change       -0.8767417E-01 Eh
 * total energy  :  -360.0886777 Eh     change       -0.6510996E-01 Eh
 * total energy  :  -360.1346149 Eh     change       -0.4593720E-01 Eh
 * total energy  :  -360.1627448 Eh     change       -0.2812993E-01 Eh
 * total energy  :  -360.1857444 Eh     change       -0.2299960E-01 Eh
 * total energy  :  -360.2032053 Eh     change       -0.1746086E-01 Eh
 * total energy  :  -360.2174434 Eh     change       -0.1423814E-01 Eh
 * total energy  :  -360.3054362 Eh     change       -0.1474709E-04 Eh
 * total energy  :  -360.3054497 Eh     change       -0.1355422E-04 Eh
 * total energy  :  -360.3054621 Eh     change       -0.1240261E-04 Eh
 * total energy  :  -360.3054713 Eh     change       -0.9105822E-05 Eh
 * total energy  :  -360.3054783 Eh     change       -0.7041794E-05 Eh
 * total energy  :  -360.3054840 Eh     change       -0.5673650E-05 Eh
 * total energy  :  -360.3054904 Eh     change       -0.6386718E-05 Eh
 * total energy  :  -360.3054958 Eh     change       -0.5395048E-05 Eh
 * total energy  :  -360.3054998 Eh     change       -0.4072731E-05 Eh
   *** GEOMETRY OPTIMIZATION CONVERGED AFTER 92 ITERATIONS ***

 final structure:
================
230
 xtb: 6.5.1 (b24c23e)
C           30.89193173839158        0.02810171116255        0.09812628446235
C           31.50218771833456       -0.12878528426870        1.33633451518996
C           30.85119506228117       -0.23702051792741        2.59655607701261
C           31.81290325193298       -0.39490436971095        3.55537180340438
C           33.08183405863123       -0.39867432179121        2.91028212364067
N           32.84409272796600       -0.22405698521738        1.57622356145876
C           34.34413433132843       -0.53190970062977        3.50310294943504
C           34.37335168824946       -0.75401182493005        4.96643594063874
C           35.04764362713249        0.12501234008449        5.81577774377175
C           35.06919058349127       -0.07442476580048        7.18416729232870
C           34.41748507936062       -1.17368422028089        7.76325710393711
N           34.48335056756947       -1.41456665555493        9.13259385112497
C           34.86874535978113       -0.29807984214696        9.99595786540152
C           33.45677897674867       -2.28465581954130        9.70873996186198
C           33.75425498701472       -2.06480234779777        6.90598979394004
C           33.72850347805628       -1.85147619526215        5.53991556446254
C           35.55766080865776       -0.47119368964249        2.81254210122828
C           36.85418754938718       -0.67652338066146        3.43186199635219
C           37.77306735399399       -0.53091493215407        2.45425516711269
N           35.71019285727282       -0.23236948856632        1.48016604605437
C           37.03611566445858       -0.25168513353481        1.23766874274224
C           37.67218713295689       -0.03376011492517       -0.00221662027004
C           37.03591775366334        0.17798794268002       -1.24091240435393
C           37.68105069786122        0.42425533391911       -2.48101716154195
C           36.71466204912701        0.56042164258991       -3.43960101839024
C           35.44877544775210        0.39224333248032       -2.81432518141899
N           35.69505578873932        0.17301720059983       -1.48406223793887
C           34.18710016846151        0.46099240418234       -3.41739950127383
C           34.15632413871838        0.66133165138611       -4.88283626449762
C           33.49498156149573        1.75369691317560       -5.44748369044012
C           33.47255037750601        1.94962579532813       -6.81620538407505
C           34.11018762328092        1.05042667240200       -7.68439858109664
N           34.04327284120716        1.20984530085447       -9.06509708342673
C           35.05041413149071        0.51664691487207       -9.86973385842224
C           33.68267375389075        2.53337630997084       -9.57405151832873
C           34.75933119428874       -0.05614128050162       -7.11587496575977
C           34.78620944378756       -0.23813948522127       -5.74544852190539
C           32.97147965697282        0.35541882269753       -2.73054652292723
C           31.66563284529743        0.36862414498055       -3.37049688239995
C           30.75397574191604        0.25653739481583       -2.38288077922538
C           31.50182898547015        0.15787684668341       -1.14264685243479
N           32.83386210592857        0.21133619865762       -1.39130189326458
H           29.80660565249596        0.04483620098186        0.11125071309259
H           29.78315205569616       -0.19150299704566        2.73906222438059
H           31.66152540405077       -0.48956521219372        4.61847567091399
H           33.56963337489537       -0.16728879023060        0.86934550261783
H           35.54434119076930        0.99450669469968        5.39896872124979
H           35.60314697662552        0.64109524638540        7.79603498983634
H           34.20371152947457        0.56267079155044        9.86313684962091
H           34.82711074227010       -0.62502021267958       11.03441722959095
H           35.89484572193212       -0.00275624949602        9.77507523385561
H           32.44887069871533       -1.93734249538351        9.45623210969769
H           33.59185702380334       -3.30329358472455        9.34340352066507
H           33.56984579839430       -2.29591968808563       10.79216897561828
H           33.25645888819793       -2.94321438074616        7.29622356021578
H           33.21873085428090       -2.56546146908341        4.90181427732895
H           37.01846131988901       -0.91639614528829        4.46988667922792
H           38.84619218768977       -0.61240522424675        2.52198007809467
H           38.74885660388911        0.49349680215377       -2.61264554220765
H           36.86374236948056        0.77290781180473       -4.48567146550545
H           34.97229307792430        0.04051869498215       -0.78429665877588
H           33.01120578196844        2.47757180651652       -4.80060757253595
H           32.94943623008187        2.81614136261161       -7.19958577393611
H           34.93187431978777        0.80827959055285      -10.91264038042368
H           36.06592381670741        0.76311465620004       -9.54069062702954
H           34.89757395414436       -0.56083794683830       -9.79988788584589
H           32.65788663306865        2.76915780803072       -9.28544325904016
H           33.73279658795091        2.51860455783492      -10.66225431583067
H           34.35714874289084        3.30863255241957       -9.19371747011573
H           35.24586649516176       -0.79488380660340       -7.73972103679559
H           35.28488160017274       -1.11049571942333       -5.33669218084895
H           31.49308201466926        0.43747960859468       -4.43253182796324
H           29.67797956587350        0.22752463141877       -2.45714669265883
C           69.64599012699273        0.04669205250553       -0.09352725410839
C           69.03537173028758        0.18240103038309       -1.33406601719593
C           69.68562234124086        0.37293057699534       -2.58486564557281
C           68.72352144647193        0.44099392709037       -3.55384660001283
C           67.45514325986458        0.28335440967130       -2.92722531761285
N           67.69350522461261        0.14267225264011       -1.58927593083057
C           66.19260806141673        0.28671175023376       -3.53436703932559
C           66.16183612819707        0.41132600469561       -5.00909615470540
C           65.48054678781189        1.46005673324903       -5.62943510749352
C           65.45721974096341        1.58537260161337       -7.00654880034273
C           66.11434527092476        0.65580237889387       -7.82658354635089
N           66.04765142822652        0.74067243885094       -9.21434502092401
C           65.64905237854724        2.02387624894123       -9.79307958453530
C           67.08229915323643        0.04036380884082       -9.97726218394606
C           66.78444578300986       -0.40676342663201       -7.20141520979968
C           66.81175541130767       -0.51810789280835       -5.82331522045543
C           64.97980085141131        0.18058575803551       -2.84800339023038
C           63.68345682224999        0.11703122106099       -3.49772316334531
C           62.76503972661566        0.03134478934419       -2.51262486983527
N           64.82779480818193        0.10668828291249       -1.49635008433428
C           63.50215775952941        0.02821365584053       -1.26450689644374
C           62.86627393634290       -0.04136799757181       -0.00741097612850
C           63.50281855398937       -0.11718895985195        1.24680947211210
C           62.85825863696682       -0.16249557973698        2.51059500767953
C           63.82505035985680       -0.25206885315864        3.47428267333132
C           65.09058397004814       -0.27309980752993        2.82643010884720
N           64.84375086439537       -0.17911818898354        1.48163763804617
C           66.35253856047589       -0.34783188800397        3.42824993978717
C           66.38416223576348       -0.49408368531070        4.90003315885456
C           67.04792348308787        0.43527894430203        5.70325812470567
C           67.07181260319642        0.30626621237246        7.07988380054048
C           66.43335135965083       -0.76978523407058        7.71500870960717
N           66.50208815489260       -0.93720752560225        9.09470152267535
C           65.49602548842880       -1.79948222584719        9.71647662235269
C           66.86279595700502        0.23130767991842        9.89808649930654
C           65.78155766881721       -1.71194544376695        6.90470959743234
C           65.75315891877999       -1.56893014125880        5.52970395344933
C           67.56773555504569       -0.29270415065364        2.73473897296798
C           68.87387401324759       -0.42995539425755        3.35934757447961
C           69.78499580515339       -0.30982687710945        2.37219176628412
C           69.03652476424529       -0.11651177998498        1.14351182230232
N           67.70464729077540       -0.12156113610780        1.39860480707339
H           70.73130314417122        0.06675227095761       -0.10256613325639
H           70.75343871241176        0.45307983009581       -2.71309993191517
H           68.87433456381692        0.59772858899052       -4.60966562866568
H           66.96831849065963        0.03143141793849       -0.88853102825263
H           64.97970103460233        2.20519598764691       -5.02084897926785
H           64.91781251925467        2.42065189380763       -7.43409138550109
H           66.30648062906141        2.83644715656039       -9.46396193608586
H           65.69021781640092        1.94849456879296      -10.87920424965752
H           64.62099296869968        2.24934514753988       -9.50824612856571
H           68.08684653732089        0.32841570478417       -9.64841795837752
H           66.95759714803351       -1.03688716004319       -9.86188026926097
H           66.96867011488116        0.28303989725325      -11.03315536931696
H           67.28625779960142       -1.16684596634901       -7.78637167067033
H           67.32672710987285       -1.35835016370452       -5.36986948236052
H           63.51911831638263        0.12011419807810       -4.56308642632150
H           61.69217396314010       -0.03682030765716       -2.59704817163123
H           61.79054565652972       -0.12452389042851        2.65514639416481
H           63.67646616059069       -0.28649215148321        4.54123648627051
H           65.56611786942084       -0.14783022716763        0.76971790437359
H           67.53259046627709        1.28934054486183        5.24264488706328
H           67.59695385845868        1.05842334818169        7.65431430634263
H           65.61635351263151       -1.75991888480727       10.79846715358849
H           64.48004741052547       -1.48298705475876        9.45591170971258
H           65.64848568751528       -2.83070342908326        9.39623762851606
H           67.88749715269122        0.52803068917710        9.67219367468640
H           66.81291144022305       -0.03668463722594       10.95288254752158
H           66.18815393275747        1.07374200996385        9.70901518441521
H           65.29411549368444       -2.57510603767675        7.33944315779036
H           65.25243237773989       -2.32091648144699        4.92924659100029
H           69.04691404434256       -0.61028870747470        4.40813798157656
H           70.86099382115241       -0.35624156442646        2.43693476435936
C           42.87326534865849        0.04156669857453       -0.04743381883102
C           41.64459561864706        0.01507605790109       -0.04006231371017
C           40.30124988654259       -0.00753585635231       -0.03164184833527
C           39.07694261011952       -0.02392602053882       -0.01783720725848
C           44.21639710133637        0.06902355964103       -0.04679905111032
C           45.44078745963026        0.09657560251561       -0.04591530920437
C           58.89390278515857        0.00180224595822        0.03501419470774
C           57.66520596699252        0.02725605075329        0.04399247061228
C           56.32209676637881        0.05455192898593        0.04396823596415
C           55.09772088281594        0.08257397138722        0.04522217073290
C           60.23724632240908       -0.01921596734356        0.02538087018157
C           61.46155383230025       -0.03564622023115        0.00971257230399
C           46.84434623247370        0.12139344085016       -0.03223002722146
C           47.45768860002357        0.05199730611195        1.23454310523666
C           46.79563550160445       -0.06639967383839        2.48292219045265
C           47.74840639544236       -0.06648828119354        3.46583419659030
C           49.01989359046364        0.06017414223092        2.84470938760869
N           48.79401603426079        0.11495882048345        1.49501697669246
C           50.27063636407280        0.10625766213317        3.47602488953303
C           50.26240969686782        0.10427417677852        4.95640051924066
C           49.59398240260222        1.10079445516804        5.67038994948525
C           49.58326700340653        1.10791597825247        7.05301129106598
C           50.23091205796363        0.10087691053990        7.78479901776444
N           50.25959556588226        0.13253449267327        9.17554893617790
C           49.22658860440934        0.92025898074121        9.84988851252125
C           50.61370214523541       -1.10480460685254        9.87146743434680
C           50.90610052342361       -0.89675650206085        7.06520364535494
C           50.92213051235188       -0.88904410381617        5.68238320676524
C           51.50199836138479        0.15422096287153        2.81848047245596
C           52.77981245627251        0.26327418191152        3.49832576294281
C           53.72721314488134        0.25393809326610        2.53711725460104
N           51.69288261250556        0.11182496027038        1.47062355649418
C           53.02590539929646        0.15642679057992        1.27315781272906
C           53.69424243424993        0.11039212307020        0.03253547654175
C           53.08086467656356        0.09694462317289       -1.23602084011923
C           53.74270854662724        0.02795263960997       -2.48822640287661
C           52.79002298228201        0.07019398302351       -3.47028954162975
C           51.51880763614932        0.17504396175328       -2.84450642862875
N           51.74476879647251        0.17458780079942       -1.49369243800945
C           50.26811515095183        0.24924131545574       -3.47318178171571
C           50.27561459060478        0.30277702570147       -4.95257986197527
C           50.94702693473612        1.32248139925950       -5.63012346552447
C           50.95733889932730        1.37969089230336       -7.01158116839068
C           50.30605079701475        0.40209925389891       -7.77925111766676
N           50.27777848226292        0.48479867001233       -9.16790692276537
C           49.90933555309856       -0.72189279601193       -9.90860731709023
C           51.32037763330433        1.28442096843675       -9.81300584408612
C           49.62748722026904       -0.61859411341002       -7.09616098710210
C           49.61218484268086       -0.66115479361900       -5.71397230369756
C           49.03693877047012        0.27473197541365       -2.81389142073244
C           47.75946840530025        0.41467773361901       -3.48876254940791
C           46.81197090734891        0.36938912713631       -2.52867195953956
C           47.51286323678234        0.21876675576956       -1.26972713138653
N           48.84584776646091        0.17838529917404       -1.46891122806764
H           45.72751006197257       -0.14558402729158        2.60573613278264
H           47.58549132487851       -0.15972096801954        4.52712453984673
H           49.52240986965666        0.18434949671144        0.79227376116805
H           49.09397378598746        1.89926651986866        5.13263466104663
H           49.06788299698501        1.91579236932171        7.55628091897435
H           49.31616998183044        0.77401189064247       10.92569835853673
H           49.37693327840306        1.97950213053481        9.63830544451053
H           48.22196607710801        0.62320278887816        9.52928090479051
H           51.64635754819314       -1.37022882141182        9.64320342154307
H           49.95238418971636       -1.93057909382623        9.58619255955595
H           50.53645921629295       -0.93977035435713       10.94560228902539
H           51.42968804574173       -1.69348678828188        7.57762263432397
H           51.43640757848163       -1.68434119339497        5.15375553330632
H           52.91341938406075        0.35156051712174        4.56429799530762
H           54.79805663735590        0.31922478725621        2.64613135932982
H           54.81060516588911       -0.04940920419076       -2.61413977698131
H           52.95278443356626        0.01962599601593       -4.53449147331890
H           51.01647962880872        0.21658377471360       -0.78867465322933
H           51.44963255558006        2.09938519142077       -5.06394536150194
H           51.47497564675870        2.20367572993823       -7.48561213716290
H           50.56313700323425       -1.56442318520130       -9.65697958258533
H           48.87473506770279       -0.98530074613685       -9.68693288746788
H           49.98495048291936       -0.51721629079118      -10.97602492325347
H           52.32102207126633        0.96639112992300       -9.50022645107145
H           51.23224233003549        1.17545118192347      -10.89334513004261
H           51.18038369038821        2.33744242414710       -9.56616497925641
H           49.10115489294409       -1.39456996123728       -7.63681695499360
H           49.09558982622313       -1.47352648097212       -5.21435576016679
H           47.62621714185464        0.54629147737284       -4.55030323275036
H           45.74131873980600        0.44200605343056       -2.63495462253683

          :  Hamiltonian                  GFN1-xTB          :
         :: total energy            -360.305499827834 Eh    ::
         :: gradient norm              0.000525932996 Eh/a0 ::
         :: HOMO-LUMO gap              0.793757041013 eV    ::
         :: SCC energy              -366.222230336993 Eh    ::
         :: repulsion energy           6.100468302625 Eh    ::

    * Orbital Energies and Occupations

         #    Occupation            Energy/Eh            Energy/eV
      -------------------------------------------------------------
         1        2.0000           -0.7943144             -21.6144
       ...           ...                  ...                  ...
       319        2.0000           -0.4028332             -10.9617
       320        2.0000           -0.3895834             -10.6011
       321        2.0000           -0.3891838             -10.5902
       322        2.0000           -0.3891514             -10.5893
       323        2.0000           -0.3873029             -10.5390
       324        2.0000           -0.3857058             -10.4956
       325        2.0000           -0.3843086             -10.4576
       326        2.0000           -0.3838494             -10.4451
       327        2.0000           -0.3837839             -10.4433
       328        2.0000           -0.3835641             -10.4373
       329        2.0000           -0.3738844             -10.1739
       330        2.0000           -0.3697228             -10.0607
       331        2.0000           -0.3636500              -9.8954 (HOMO)
       332        0.0000           -0.3344799              -9.1017 (LUMO)
       333                         -0.3257564              -8.8643
       334                         -0.3201781              -8.7125
       335                         -0.3196844              -8.6991
       336                         -0.3196425              -8.6979
       337                         -0.3188735              -8.6770
       338                         -0.2955444              -8.0422
       339                         -0.2869888              -7.8094
       340                         -0.2835375              -7.7154
       341                         -0.2754184              -7.4945
       342                         -0.2753340              -7.4922
       ...                                ...                  ...
       736                          1.5880124              43.2120
      -------------------------------------------------------------
                  HL-Gap            0.0291700 Eh            0.7938 eV

Wiberg/Mayer (AO) data.
largest (>0.10) Wiberg bond orders for each atom

     #   Z sym  total        # sym  WBO       # sym  WBO       # sym  WBO
 ---------------------------------------------------------------------------
     1   6 C    3.921 --    41 C    1.366     2 C    1.344    43 H    0.971
     2   6 C    3.904 --     1 C    1.344     3 C    1.233     6 N    1.169
     3   6 C    3.951 --     4 C    1.590     2 C    1.233    44 H    0.977
     4   6 C    3.959 --     3 C    1.590     5 C    1.239    45 H    0.974
     5   6 C    3.894 --     7 C    1.297     4 C    1.239     6 N    1.177
     6   7 N    3.468 --     5 C    1.177     2 C    1.169    46 H    0.873
     7   6 C    3.938 --    17 C    1.334     5 C    1.297     8 C    1.038
     8   6 C    3.987 --     9 C    1.377    16 C    1.376     7 C    1.038
     9   6 C    3.986 --    10 C    1.472     8 C    1.377    47 H    0.972
    10   6 C    3.989 --     9 C    1.472    11 C    1.342    48 H    0.968
    11   6 C    3.951 --    10 C    1.342    15 C    1.341    12 N    1.109
    12   7 N    3.219 --    11 C    1.109    13 C    0.964    14 C    0.963
    13   6 C    3.969 --    50 H    0.985    51 H    0.983    49 H    0.983
                            12 N    0.964
    14   6 C    3.969 --    54 H    0.985    52 H    0.983    53 H    0.983
                            12 N    0.963
    15   6 C    3.989 --    16 C    1.473    11 C    1.341    55 H    0.968
    16   6 C    3.987 --    15 C    1.473     8 C    1.376    56 H    0.972
    17   6 C    3.913 --     7 C    1.334    20 N    1.285    18 C    1.128
    18   6 C    3.965 --    19 C    1.706    17 C    1.128    57 H    0.973
    19   6 C    3.963 --    18 C    1.706    21 C    1.130    58 H    0.974
    20   7 N    3.020 --    21 C    1.345    17 C    1.285
    21   6 C    3.909 --    20 N    1.345    22 C    1.251    19 C    1.130
    22   6 C    3.933 --    21 C    1.251    23 C    1.248   150 C    1.195
    23   6 C    3.885 --    24 C    1.252    22 C    1.248    27 N    1.190
    24   6 C    3.957 --    25 C    1.579    23 C    1.252    59 H    0.975
    25   6 C    3.955 --    24 C    1.579    26 C    1.245    60 H    0.974
    26   6 C    3.897 --    28 C    1.305    25 C    1.245    27 N    1.164
    27   7 N    3.473 --    23 C    1.190    26 C    1.164    61 H    0.873
    28   6 C    3.924 --    38 C    1.316    26 C    1.305    29 C    1.040
    29   6 C    3.987 --    30 C    1.375    37 C    1.375    28 C    1.040
    30   6 C    3.985 --    31 C    1.473    29 C    1.375    62 H    0.972
    31   6 C    3.988 --    30 C    1.473    32 C    1.341    63 H    0.968
    32   6 C    3.950 --    31 C    1.341    36 C    1.341    33 N    1.111
    33   7 N    3.220 --    32 C    1.111    35 C    0.964    34 C    0.963
    34   6 C    3.969 --    64 H    0.985    65 H    0.983    66 H    0.983
                            33 N    0.963
    35   6 C    3.969 --    68 H    0.985    67 H    0.983    69 H    0.983
                            33 N    0.964
    36   6 C    3.989 --    37 C    1.474    32 C    1.341    70 H    0.968
    37   6 C    3.986 --    36 C    1.474    29 C    1.375    71 H    0.972
    38   6 C    3.927 --    42 N    1.320    28 C    1.316    39 C    1.120
    39   6 C    3.967 --    40 C    1.718    38 C    1.120    72 H    0.973
    40   6 C    3.965 --    39 C    1.718    41 C    1.119    73 H    0.976
    41   6 C    3.930 --     1 C    1.366    42 N    1.298    40 C    1.119
    42   7 N    3.009 --    38 C    1.320    41 C    1.298
    43   1 H    1.002 --     1 C    0.971
    44   1 H    0.998 --     3 C    0.977
    45   1 H    1.006 --     4 C    0.974
    46   1 H    0.987 --     6 N    0.873
    47   1 H    1.006 --     9 C    0.972
    48   1 H    1.002 --    10 C    0.968
    49   1 H    1.003 --    13 C    0.983
    50   1 H    1.009 --    13 C    0.985
    51   1 H    1.013 --    13 C    0.983
    52   1 H    1.003 --    14 C    0.983
    53   1 H    1.013 --    14 C    0.983
    54   1 H    1.009 --    14 C    0.985
    55   1 H    1.002 --    15 C    0.968
    56   1 H    1.005 --    16 C    0.972
    57   1 H    1.006 --    18 C    0.973
    58   1 H    1.003 --    19 C    0.974
    59   1 H    1.002 --    24 C    0.975
    60   1 H    1.006 --    25 C    0.974
    61   1 H    0.988 --    27 N    0.873
    62   1 H    1.006 --    30 C    0.972
    63   1 H    1.002 --    31 C    0.968
    64   1 H    1.009 --    34 C    0.985
    65   1 H    1.003 --    34 C    0.983
    66   1 H    1.013 --    34 C    0.983
    67   1 H    1.013 --    35 C    0.983
    68   1 H    1.009 --    35 C    0.985
    69   1 H    1.003 --    35 C    0.983
    70   1 H    1.002 --    36 C    0.968
    71   1 H    1.005 --    37 C    0.972
    72   1 H    1.006 --    39 C    0.973
    73   1 H    0.999 --    40 C    0.976
    74   6 C    3.921 --   114 C    1.366    75 C    1.344   116 H    0.971
    75   6 C    3.904 --    74 C    1.344    76 C    1.233    79 N    1.169
    76   6 C    3.951 --    77 C    1.590    75 C    1.233   117 H    0.977
    77   6 C    3.959 --    76 C    1.590    78 C    1.239   118 H    0.974
    78   6 C    3.894 --    80 C    1.297    77 C    1.239    79 N    1.177
    79   7 N    3.468 --    78 C    1.177    75 C    1.169   119 H    0.873
    80   6 C    3.938 --    90 C    1.334    78 C    1.297    81 C    1.038
    81   6 C    3.987 --    82 C    1.376    89 C    1.376    80 C    1.038
    82   6 C    3.986 --    83 C    1.472    81 C    1.376   120 H    0.972
    83   6 C    3.989 --    82 C    1.472    84 C    1.342   121 H    0.968
    84   6 C    3.951 --    83 C    1.342    88 C    1.341    85 N    1.109
    85   7 N    3.219 --    84 C    1.109    86 C    0.964    87 C    0.963
    86   6 C    3.969 --   123 H    0.985   124 H    0.983   122 H    0.983
                            85 N    0.964
    87   6 C    3.969 --   127 H    0.985   125 H    0.983   126 H    0.983
                            85 N    0.963
    88   6 C    3.989 --    89 C    1.473    84 C    1.341   128 H    0.968
    89   6 C    3.987 --    88 C    1.473    81 C    1.376   129 H    0.972
    90   6 C    3.913 --    80 C    1.334    93 N    1.285    91 C    1.128
    91   6 C    3.965 --    92 C    1.706    90 C    1.128   130 H    0.973
    92   6 C    3.963 --    91 C    1.706    94 C    1.130   131 H    0.974
    93   7 N    3.020 --    94 C    1.345    90 C    1.285
    94   6 C    3.909 --    93 N    1.345    95 C    1.251    92 C    1.130
    95   6 C    3.933 --    94 C    1.251    96 C    1.248   158 C    1.195
    96   6 C    3.885 --    97 C    1.252    95 C    1.248   100 N    1.190
    97   6 C    3.957 --    98 C    1.579    96 C    1.252   132 H    0.975
    98   6 C    3.955 --    97 C    1.579    99 C    1.245   133 H    0.974
    99   6 C    3.897 --   101 C    1.305    98 C    1.245   100 N    1.164
   100   7 N    3.473 --    96 C    1.190    99 C    1.164   134 H    0.873
   101   6 C    3.924 --   111 C    1.315    99 C    1.305   102 C    1.040
   102   6 C    3.987 --   103 C    1.375   110 C    1.375   101 C    1.040
   103   6 C    3.985 --   104 C    1.473   102 C    1.375   135 H    0.972
   104   6 C    3.988 --   103 C    1.473   105 C    1.341   136 H    0.968
   105   6 C    3.950 --   104 C    1.341   109 C    1.341   106 N    1.111
   106   7 N    3.220 --   105 C    1.111   108 C    0.964   107 C    0.963
   107   6 C    3.969 --   137 H    0.985   138 H    0.983   139 H    0.983
                           106 N    0.963
   108   6 C    3.969 --   141 H    0.985   140 H    0.983   142 H    0.983
                           106 N    0.964
   109   6 C    3.989 --   110 C    1.474   105 C    1.341   143 H    0.968
   110   6 C    3.986 --   109 C    1.474   102 C    1.375   144 H    0.972
   111   6 C    3.927 --   115 N    1.320   101 C    1.315   112 C    1.120
   112   6 C    3.967 --   113 C    1.718   111 C    1.120   145 H    0.973
   113   6 C    3.965 --   112 C    1.718   114 C    1.119   146 H    0.976
   114   6 C    3.930 --    74 C    1.366   115 N    1.298   113 C    1.119
   115   7 N    3.009 --   111 C    1.320   114 C    1.298
   116   1 H    1.002 --    74 C    0.971
   117   1 H    0.998 --    76 C    0.977
   118   1 H    1.006 --    77 C    0.974
   119   1 H    0.986 --    79 N    0.873
   120   1 H    1.006 --    82 C    0.972
   121   1 H    1.002 --    83 C    0.968
   122   1 H    1.003 --    86 C    0.983
   123   1 H    1.009 --    86 C    0.985
   124   1 H    1.013 --    86 C    0.983
   125   1 H    1.003 --    87 C    0.983
   126   1 H    1.013 --    87 C    0.983
   127   1 H    1.009 --    87 C    0.985
   128   1 H    1.002 --    88 C    0.968
   129   1 H    1.005 --    89 C    0.972
   130   1 H    1.006 --    91 C    0.973
   131   1 H    1.003 --    92 C    0.974
   132   1 H    1.002 --    97 C    0.975
   133   1 H    1.006 --    98 C    0.974
   134   1 H    0.988 --   100 N    0.873
   135   1 H    1.006 --   103 C    0.972
   136   1 H    1.002 --   104 C    0.968
   137   1 H    1.009 --   107 C    0.985
   138   1 H    1.003 --   107 C    0.983
   139   1 H    1.013 --   107 C    0.983
   140   1 H    1.013 --   108 C    0.983
   141   1 H    1.009 --   108 C    0.985
   142   1 H    1.003 --   108 C    0.983
   143   1 H    1.002 --   109 C    0.968
   144   1 H    1.005 --   110 C    0.972
   145   1 H    1.006 --   112 C    0.973
   146   1 H    0.999 --   113 C    0.976
   147   6 C    3.924 --   148 C    2.361   151 C    1.340   150 C    0.189
   148   6 C    3.923 --   147 C    2.361   149 C    1.340   152 C    0.189
   149   6 C    3.930 --   150 C    2.442   148 C    1.340
   150   6 C    3.889 --   149 C    2.442    22 C    1.195   147 C    0.189
   151   6 C    3.927 --   152 C    2.440   147 C    1.340
   152   6 C    3.889 --   151 C    2.440   159 C    1.198   148 C    0.189
   153   6 C    3.923 --   154 C    2.361   157 C    1.340   156 C    0.189
   154   6 C    3.924 --   153 C    2.361   155 C    1.341   158 C    0.189
   155   6 C    3.927 --   156 C    2.439   154 C    1.341
   156   6 C    3.889 --   155 C    2.439   180 C    1.198   153 C    0.189
   157   6 C    3.930 --   158 C    2.442   153 C    1.340
   158   6 C    3.889 --   157 C    2.442    95 C    1.195   154 C    0.189
   159   6 C    3.920 --   199 C    1.251   160 C    1.243   152 C    1.198
   160   6 C    3.886 --   161 C    1.257   159 C    1.243   164 N    1.190
   161   6 C    3.954 --   162 C    1.572   160 C    1.257   201 H    0.975
   162   6 C    3.956 --   161 C    1.572   163 C    1.251   202 H    0.974
   163   6 C    3.891 --   165 C    1.294   162 C    1.251   164 N    1.166
   164   7 N    3.470 --   160 C    1.190   163 C    1.166   203 H    0.874
   165   6 C    3.926 --   175 C    1.335   163 C    1.294   166 C    1.038
   166   6 C    3.987 --   174 C    1.376   167 C    1.375   165 C    1.038
   167   6 C    3.986 --   168 C    1.473   166 C    1.375   204 H    0.972
   168   6 C    3.989 --   167 C    1.473   169 C    1.341   205 H    0.968
   169   6 C    3.951 --   173 C    1.341   168 C    1.341   170 N    1.111
   170   7 N    3.220 --   169 C    1.111   172 C    0.964   171 C    0.963
   171   6 C    3.969 --   206 H    0.985   208 H    0.983   207 H    0.983
                           170 N    0.963
   172   6 C    3.969 --   211 H    0.985   209 H    0.983   210 H    0.983
                           170 N    0.964
   173   6 C    3.989 --   174 C    1.473   169 C    1.341   212 H    0.968
   174   6 C    3.987 --   173 C    1.473   166 C    1.376   213 H    0.972
   175   6 C    3.914 --   165 C    1.335   178 N    1.284   176 C    1.128
   176   6 C    3.966 --   177 C    1.705   175 C    1.128   214 H    0.973
   177   6 C    3.963 --   176 C    1.705   179 C    1.132   215 H    0.974
   178   7 N    3.006 --   179 C    1.344   175 C    1.284
   179   6 C    3.909 --   178 N    1.344   180 C    1.251   177 C    1.132
   180   6 C    3.920 --   179 C    1.251   181 C    1.243   156 C    1.198
   181   6 C    3.886 --   182 C    1.257   180 C    1.243   185 N    1.190
   182   6 C    3.954 --   183 C    1.572   181 C    1.257   216 H    0.975
   183   6 C    3.956 --   182 C    1.572   184 C    1.251   217 H    0.974
   184   6 C    3.891 --   186 C    1.294   183 C    1.251   185 N    1.166
   185   7 N    3.470 --   181 C    1.190   184 C    1.166   218 H    0.874
   186   6 C    3.926 --   196 C    1.335   184 C    1.294   187 C    1.038
   187   6 C    3.987 --   195 C    1.376   188 C    1.375   186 C    1.038
   188   6 C    3.986 --   189 C    1.473   187 C    1.375   219 H    0.972
   189   6 C    3.989 --   188 C    1.473   190 C    1.341   220 H    0.968
   190   6 C    3.951 --   194 C    1.341   189 C    1.341   191 N    1.111
   191   7 N    3.220 --   190 C    1.111   192 C    0.964   193 C    0.963
   192   6 C    3.969 --   223 H    0.985   222 H    0.983   221 H    0.983
                           191 N    0.964
   193   6 C    3.969 --   225 H    0.985   224 H    0.983   226 H    0.983
                           191 N    0.963
   194   6 C    3.989 --   195 C    1.473   190 C    1.341   227 H    0.968
   195   6 C    3.987 --   194 C    1.473   187 C    1.376   228 H    0.972
   196   6 C    3.914 --   186 C    1.335   200 N    1.284   197 C    1.128
   197   6 C    3.966 --   198 C    1.705   196 C    1.128   229 H    0.973
   198   6 C    3.963 --   197 C    1.705   199 C    1.132   230 H    0.974
   199   6 C    3.909 --   200 N    1.344   159 C    1.251   198 C    1.132
   200   7 N    3.006 --   199 C    1.344   196 C    1.284
   201   1 H    1.002 --   161 C    0.975
   202   1 H    1.006 --   162 C    0.974
   203   1 H    0.988 --   164 N    0.874
   204   1 H    1.005 --   167 C    0.972
   205   1 H    1.002 --   168 C    0.968
   206   1 H    1.009 --   171 C    0.985
   207   1 H    1.013 --   171 C    0.983
   208   1 H    1.003 --   171 C    0.983
   209   1 H    1.013 --   172 C    0.983
   210   1 H    1.003 --   172 C    0.983
   211   1 H    1.009 --   172 C    0.985
   212   1 H    1.002 --   173 C    0.968
   213   1 H    1.006 --   174 C    0.972
   214   1 H    1.006 --   176 C    0.973
   215   1 H    1.003 --   177 C    0.974
   216   1 H    1.002 --   182 C    0.975
   217   1 H    1.006 --   183 C    0.974
   218   1 H    0.988 --   185 N    0.874
   219   1 H    1.005 --   188 C    0.972
   220   1 H    1.002 --   189 C    0.968
   221   1 H    1.003 --   192 C    0.983
   222   1 H    1.013 --   192 C    0.983
   223   1 H    1.009 --   192 C    0.985
   224   1 H    1.003 --   193 C    0.983
   225   1 H    1.009 --   193 C    0.985
   226   1 H    1.013 --   193 C    0.983
   227   1 H    1.002 --   194 C    0.968
   228   1 H    1.006 --   195 C    0.972
   229   1 H    1.006 --   197 C    0.973
   230   1 H    1.003 --   198 C    0.974
 ---------------------------------------------------------------------------

           -------------------------------------------------
          | TOTAL ENERGY             -360.305499827834 Eh   |
          | GRADIENT NORM               0.000525932996 Eh/α |
          | HOMO-LUMO GAP               0.793757041013 eV   |
           -------------------------------------------------

 * finished run on 2022/07/28 at 19:03:12.673
