   * xtb version 6.5.1 (b24c23e) compiled by 'conda@728c89f4b128' on 2022-07-12
          program call               : xtb Cu_p-CP_C6_3.xyz --gfn 1 --opt -T 48

   ID    Z sym.   atoms
    1   29 Cu     1, 63, 137
    2    6 C      2-6, 8-11, 13-24, 27-32, 35-39, 42, 43, 64-68, 70-73,
                  75-86, 89-94, 97-101, 104, 105, 125-136, 138-142, 144-147,
                  149-160, 163-168, 171-175, 178, 179
    3    7 N      7, 12, 33, 34, 69, 74, 95, 96, 143, 148, 169, 170
    4    8 O      25, 26, 40, 41, 87, 88, 102, 103, 161, 162, 176, 177
    5    1 H      44-62, 106-124, 180-197

          :  Hamiltonian                  GFN1-xTB          :
 * total energy  :  -378.3048435 Eh     change        0.3259288E-08 Eh
 * total energy  :  -378.7481270 Eh     change       -0.4432835E+00 Eh
 * total energy  :  -378.9048695 Eh     change       -0.1567425E+00 Eh
 * total energy  :  -379.0149112 Eh     change       -0.1100417E+00 Eh
 * total energy  :  -379.0862840 Eh     change       -0.7137283E-01 Eh
 * total energy  :  -379.1236135 Eh     change       -0.3732950E-01 Eh
 * total energy  :  -379.1467508 Eh     change       -0.2313724E-01 Eh
 * total energy  :  -379.1613651 Eh     change       -0.1461432E-01 Eh
 * total energy  :  -379.1695725 Eh     change       -0.8207392E-02 Eh
 * total energy  :  -379.1767480 Eh     change       -0.7175562E-02 Eh
 * total energy  :  -379.2103529 Eh     change       -0.2363187E-04 Eh
 * total energy  :  -379.2103790 Eh     change       -0.2612432E-04 Eh
 * total energy  :  -379.2103930 Eh     change       -0.1402168E-04 Eh
 * total energy  :  -379.2104036 Eh     change       -0.1062749E-04 Eh
 * total energy  :  -379.2104133 Eh     change       -0.9692355E-05 Eh
 * total energy  :  -379.2104218 Eh     change       -0.8485823E-05 Eh
 * total energy  :  -379.2104295 Eh     change       -0.7698863E-05 Eh
 * total energy  :  -379.2104362 Eh     change       -0.6699041E-05 Eh
 * total energy  :  -379.2104406 Eh     change       -0.4404118E-05 Eh
   *** GEOMETRY OPTIMIZATION CONVERGED AFTER 57 ITERATIONS ***

 final structure:
================
197
 xtb: 6.5.1 (b24c23e)
Cu          33.38669450607969       -0.04041432363168        0.00781352052720
C           29.98187269202719       -0.13450164099812        0.02747885046091
C           30.61430768641920       -0.17424750184405        1.26068738062979
C           29.93591068053834       -0.21719485770844        2.52460106553976
C           30.89186049329445       -0.22469703026092        3.48591894963802
C           32.16453033744720       -0.19632692266130        2.81680744521475
N           31.96457812887408       -0.15878046974545        1.46698689505646
C           33.40734525640271       -0.17492619695501        3.45395057559561
C           34.64175794774996       -0.10845753405088        2.80446568334321
C           35.91815896378356       -0.13898124305819        3.46127695981915
C           36.86597000890341       -0.08253473098902        2.49196528673984
N           34.83237792220348       -0.04412814887946        1.44995058152100
C           36.17709472085954       -0.02413023603498        1.23760785232351
C           36.81495471846642        0.02806832236755       -0.01325273914703
C           36.15999438258731        0.06753447309303       -1.25570868639379
C           36.83145047178719        0.09600843652407       -2.52046491030849
C           35.87018315122620        0.12249322221691       -3.47782940458719
C           34.60305962694322        0.11692197078040       -2.80273591669052
C           33.35929417391478        0.11917984762283       -3.43777356157357
C           33.34782896474768        0.19484177474016       -4.91907257402918
C           32.80644164411324       -0.84669220173708       -5.67723137841421
C           32.79559425565186       -0.77275695194569       -7.05787132787941
C           33.32182656966028        0.34590867833600       -7.70682809860582
C           33.28319101843657        0.38096972510866       -9.18821536791131
O           33.81666587200969        1.49456585660817       -9.71328301911432
O           32.82260727366381       -0.49313261763098       -9.87778024073984
C           33.86273154972691        1.38906860176972       -6.95453230525518
C           33.87653501646434        1.31064379172072       -5.57289543135710
C           32.12498187039332        0.05432061644873       -2.78693540312412
C           30.84288117426585        0.09559319885436       -3.43702222143058
C           29.90057751563447        0.01844126812162       -2.46530171797701
C           30.59697114824142       -0.05923360216539       -1.21294621221456
N           31.94414188307113       -0.03042149304085       -1.43651288442713
N           34.81247620178205        0.07464954781334       -1.45003744254365
C           33.41631080570544       -0.22780890189867        4.93644094403799
C           32.90682119674254       -1.34220122283918        5.60795848353076
C           32.91515126894809       -1.38849574136102        6.98989081270321
C           33.42801181148503       -0.31917027141614        7.72668099783416
C           33.40868414013254       -0.41244746677040        9.20598089023019
O           33.92301870425868        0.66485843725633        9.81867654481814
O           32.97833611310195       -1.35358144371951        9.82271368047875
C           33.93710162149284        0.79632133989249        7.06093902825529
C           33.93261036322523        0.83796463132025        5.67765607603679
H           28.89694195485668       -0.15204919713731        0.03413752153045
H           28.86426980654343       -0.23159731229868        2.64591086287919
H           30.75474862989670       -0.23612891240297        4.55519503732114
H           36.06619996324823       -0.20946097962137        4.52666273529825
H           37.93818018669530       -0.08511520052270        2.60570883497055
H           37.90193275172862        0.09001247618363       -2.64932860910788
H           36.00352081604275        0.12985549115965       -4.54747504705559
H           32.40863647014174       -1.72164371032171       -5.17576189464473
H           32.38113833409998       -1.57951304473798       -7.65243786460072
H           33.75247490792922        1.43953247598527      -10.68055743463730
H           34.26960011747547        2.26051242549750       -7.45376334245760
H           34.28558237860187        2.12690808235316       -4.98815825771080
H           30.69036189815216        0.18490239975939       -4.50051556151886
H           28.82729052847989        0.02039809762656       -2.57187201349837
H           32.51855071450572       -2.17839316911487        5.03760436014620
H           32.52574125273048       -2.25235060902428        7.51738570632651
H           33.87342765759942        0.52630825662045       10.77839541911992
H           34.33385041788537        1.62963644480810        7.62869096718236
H           34.31717839893203        1.70985567434255        5.16055109945805
Cu          65.47549661352939       -0.02953993515903       -0.04157806038496
C           68.88028989710271       -0.12926042315267       -0.07539783466091
C           68.24680489600043       -0.02669011767177       -1.30443696019791
C           68.92408050054583        0.07204392025135       -2.56582114460157
C           67.96740127970325        0.17906316323659       -3.52046958420144
C           66.69538493446737        0.13700174269675       -2.85083041404582
N           66.89647506153561        0.01813168918660       -1.50592222512321
C           65.45239810897607        0.23990966699958       -3.47955934994730
C           64.21863294315324        0.23833604237408       -2.82551269952883
C           62.94190237385131        0.29521401353792       -3.47982791495086
C           61.99474002478598        0.24188616765155       -2.50964618617445
N           64.02877496068423        0.14216258832559       -1.47270606141511
C           62.68430171654322        0.14509036707450       -1.25803159322451
C           62.04705400210478        0.04757725941575       -0.00947427869918
C           62.70301512315349       -0.06805808455731        1.22776799319891
C           62.03264067358040       -0.19239551683478        2.48728741725579
C           62.99466906604030       -0.28106322707669        3.44013369515091
C           64.26126273753064       -0.20478931164278        2.76829044229184
C           65.50548407838387       -0.27507753939242        3.39861844967029
C           65.51828154652105       -0.37369254274467        4.87851767203304
C           66.06450573884298       -1.49517221169287        5.50835081841571
C           66.07759341370291       -1.58393339811835        6.88808363853344
C           65.54860394994441       -0.55122441285501        7.66469800243002
C           65.59038816476055       -0.69034917568990        9.13993340316212
O           65.05172659237081        0.35048368601008        9.79314977981109
O           66.05768478142679       -1.63674049005365        9.72099606880837
C           65.00263461669388        0.57104547037368        7.04091873694908
C           64.98677102384261        0.65556836041535        5.65963244717166
C           66.73943338105747       -0.26158795951985        2.74393480347483
C           68.02205877828828       -0.29423851134364        3.39351226857727
C           68.96360957561559       -0.25984406747110        2.41861569900880
C           68.26623448082832       -0.19416040038302        1.16611793514122
N           66.91923393161640       -0.19063256314326        1.39259430770843
N           64.05075568421199       -0.08512592438587        1.42044139318575
C           65.44287427249608        0.35866807203115       -4.95833283402933
C           65.94113435240644       -0.67635533786242       -5.75387298797670
C           65.93165611378497       -0.56407919925318       -7.13197876617618
C           65.42923670317123        0.58765637938785       -7.74064441613816
C           65.44555803833384        0.66348828606194       -9.22092327713809
O           64.94599651530061        1.81074062023026       -9.70547012249295
O           65.86155602605464       -0.20722946478656       -9.94222950525807
C           64.93226327152740        1.62481957055202       -6.95066922588297
C           64.93753042768112        1.50761736322056       -5.57169872328931
H           69.96516907063823       -0.14862475574121       -0.08514781261541
H           69.99555235991282        0.06659996355540       -2.68935756543222
H           68.10361584269215        0.28936578565416       -4.58422165011112
H           62.79308341851507        0.35395647186061       -4.54583739478892
H           60.92250049137709        0.25989994720675       -2.62176364683555
H           60.96228471199377       -0.21429342066904        2.61546687155372
H           62.86224639839483       -0.40238925448697        4.50300753042619
H           66.46447125897718       -2.30370209826007        4.90704791001253
H           66.49602458781320       -2.45342658047812        7.38309452376018
H           65.11841903181661        0.18247115600420       10.74714329830126
H           64.59358410736570        1.37626371319671        7.63966953098549
H           64.57402360506724        1.53350839201421        5.17549306077661
H           68.17554869405717       -0.32660755270639        4.46011939404272
H           70.03698044491399       -0.26981395301409        2.52389440732309
H           66.32152242560934       -1.57601457342583       -5.28357051127781
H           66.31196535048247       -1.36572294924506       -7.75558207218352
H           64.99280586287500        1.78163572153985      -10.67484561636391
H           64.54404913131327        2.52175238580070       -7.41860805432342
H           64.56206485342054        2.31841209512951       -4.95758759569597
C           42.01937720828652        0.00915128141320       -0.03609370607094
C           40.79193826375237        0.01812720472702       -0.03530482788355
C           39.44579678965262        0.02478585924756       -0.03033445547146
C           38.22282984356812        0.02904270823638       -0.02218930091638
C           43.36539179422429        0.00392508172746       -0.03539211206342
C           44.58855018774216       -0.00053891190898       -0.03480713511669
C           58.06994090798401        0.05182845643541        0.01729727262318
C           56.84243622170438        0.04396378442913        0.01959574692140
C           55.49637213540589        0.03548097687431        0.01913331547833
C           54.27318961434824        0.02586381240660        0.01715484809210
C           59.41614936259835        0.05417816846887        0.01068336861280
C           60.63916242206276        0.05436723039580        0.00139009677666
Cu          49.43087314261027        0.01095198250439       -0.00987955901428
C           45.99579872549238        0.00173050611453       -0.03039717808825
C           46.64619087921240       -1.24385193101591        0.00179135407151
C           45.97189242756735       -2.50734108953939       -0.01925776145991
C           46.92999683709128       -3.46715512576552        0.03001167277544
C           48.19673443409889       -2.79419245259201        0.09171942413716
N           47.99130051183938       -1.44100925927793        0.06387045728393
C           49.43914541295915       -3.42951489985387        0.14973748974233
C           50.67821762358236       -2.78476176670045        0.15111179088147
C           51.94774316216456       -3.44268144542632        0.27947360699753
C           52.90123266576953       -2.47757999187117        0.24274974412591
N           50.87722602747827       -1.43399277568898        0.05304901101136
C           52.22132318053765       -1.22510277137899        0.10039684976222
C           52.86591241777738        0.02078253713856        0.01081709384676
C           52.21548632218651        1.26323696179574       -0.08679683278936
C           52.89027238545818        2.51916024523314       -0.22277462846082
C           51.93205396115123        3.47895567284284       -0.27310321074673
C           50.66474270252730        2.81423234015013       -0.15936619353137
C           49.42218399001121        3.45193268231278       -0.17515349913932
C           49.41890581459490        4.93367639831784       -0.24254967857129
C           49.99698642860020        5.68872863517245        0.78142618850958
C           49.98992557784848        7.06996473073016        0.71965782922178
C           49.40953076244684        7.72259897248944       -0.36969492397562
C           49.42926963435327        9.20454261365624       -0.39225468361633
O           48.84498651212905        9.73312557409551       -1.47842315313944
O           49.91658744584682        9.89192738112422        0.46898137397381
C           48.83355130401387        6.97336661206184       -1.39616527543884
C           48.83720305640360        5.59105679076576       -1.32950103953785
C           48.18266831178196        2.80980242099691       -0.13161108639764
C           46.91162388445532        3.47568668856982       -0.08656237390382
C           45.95838817057262        2.51053371026838       -0.04631875996184
C           46.63999298887668        1.25090229681957       -0.05695787674484
N           47.98443326344931        1.45554006037374       -0.10389967043918
N           50.86992630512287        1.46471453389162       -0.05665755502724
C           49.44334688223313       -4.91145541364323        0.21574407614757
C           48.85503191725186       -5.57328366098136        1.29674417701724
C           48.86238515205130       -6.95460104888617        1.35743359802311
C           49.45293549253633       -7.70069946403349        0.33565618136172
C           49.43319500866195       -9.17901332192705        0.44425714867233
O           50.02480117182288       -9.80121473548440       -0.58680395908176
O           48.93964764782593       -9.78745030630819        1.35958210635078
C           50.03910695023337       -7.04486376087784       -0.74735163930939
C           50.03563046998319       -5.66202697822950       -0.80298251904473
H           44.90244619581970       -2.63343963877722       -0.07365476807283
H           46.79529582038233       -4.53650624816432        0.01276629139170
H           52.08727135491503       -4.50507732540422        0.39704698135276
H           53.97095098017567       -2.59301054154448        0.31329687649741
H           53.96006911371524        2.64080216554776       -0.28006310897126
H           52.06756521301718        4.54182324152039       -0.39093138601406
H           50.43747860372983        5.18402014596968        1.63376363526522
H           50.43182494666826        7.66205636343822        1.51356077278995
H           48.90023301674051       10.70054510464280       -1.41684696473599
H           48.38507564790292        7.47547394737653       -2.24523617020759
H           48.40020474592479        5.00879783061290       -2.13292255435391
H           46.77027769199977        4.54423503898557       -0.07320242799334
H           44.88773872270341        2.63115232351370       -0.00498663194415
H           48.40629131247625       -4.99542917313706        2.09671560610006
H           48.41270881013345       -7.47437377961189        2.19633230685308
H           49.96926324533905      -10.75949183792770       -0.44055262038558
H           50.49543503395940       -7.61985754005300       -1.54442359984734
H           50.48108877302541       -5.15290666396707       -1.65025405879199

          :  Hamiltonian                  GFN1-xTB          :
         :: total energy            -379.210440623910 Eh    ::
         :: gradient norm              0.000658223575 Eh/a0 ::
         :: HOMO-LUMO gap              0.000029063391 eV    ::
         :: SCC energy              -384.788055602467 Eh    ::
         :: repulsion energy           5.752389341774 Eh    ::

    * Orbital Energies and Occupations

         #    Occupation            Energy/Eh            Energy/eV
      -------------------------------------------------------------
         1        2.0000           -0.8329147             -22.6648
       ...           ...                  ...                  ...
       327        2.0000           -0.4181911             -11.3796
       328        2.0000           -0.4181901             -11.3795
       329        2.0000           -0.4177393             -11.3673
       330        2.0000           -0.4176270             -11.3642
       331        2.0000           -0.4169640             -11.3462
       332        2.0000           -0.4057482             -11.0410
       333        2.0000           -0.4056867             -11.0393
       334        2.0000           -0.4056865             -11.0393
       335        2.0000           -0.3956096             -10.7651
       336        2.0000           -0.3953982             -10.7593
       337        2.0000           -0.3921087             -10.6698
       338        1.0228           -0.3658621              -9.9556
       339        0.9889           -0.3657896              -9.9536 (HOMO)
       340        0.9884           -0.3657885              -9.9536 (LUMO)
       341                         -0.3464231              -9.4267
       342                         -0.3426631              -9.3243
       343                         -0.3424502              -9.3185
       344                         -0.3396665              -9.2428
       345                         -0.3396596              -9.2426
       346                         -0.3396283              -9.2418
       347                         -0.3186509              -8.6709
       348                         -0.3151975              -8.5770
       349                         -0.3151728              -8.5763
       350                         -0.3087537              -8.4016
       ...                                ...                  ...
       691                          1.5719590              42.7752
      -------------------------------------------------------------
                  HL-Gap            0.0000011 Eh            0.0000 eV

Wiberg/Mayer (AO) data.
largest (>0.10) Wiberg bond orders for each atom

     #   Z sym  total        # sym  WBO       # sym  WBO       # sym  WBO
 ---------------------------------------------------------------------------
     1  29 Cu   2.191 --     7 N    0.506    33 N    0.506    12 N    0.503
                            34 N    0.503
     2   6 C    3.932 --     3 C    1.362    32 C    1.362    44 H    0.971
     3   6 C    3.916 --     2 C    1.362     7 N    1.228     4 C    1.169
     4   6 C    3.955 --     5 C    1.657     3 C    1.169    45 H    0.975
     5   6 C    3.958 --     4 C    1.657     6 C    1.171    46 H    0.973
     6   6 C    3.913 --     8 C    1.319     7 N    1.239     5 C    1.171
     7   7 N    3.245 --     6 C    1.239     3 C    1.228     1 Cu   0.506
     8   6 C    3.935 --     9 C    1.325     6 C    1.319    35 C    1.029
     9   6 C    3.908 --     8 C    1.325    12 N    1.224    10 C    1.178
    10   6 C    3.955 --    11 C    1.644     9 C    1.178    47 H    0.973
    11   6 C    3.957 --    10 C    1.644    13 C    1.185    48 H    0.974
    12   7 N    3.249 --    13 C    1.253     9 C    1.224     1 Cu   0.503
    13   6 C    3.898 --    14 C    1.264    12 N    1.253    11 C    1.185
    14   6 C    3.942 --    13 C    1.264    15 C    1.264   128 C    1.180
    15   6 C    3.898 --    14 C    1.264    34 N    1.253    16 C    1.185
    16   6 C    3.957 --    17 C    1.644    15 C    1.185    49 H    0.974
    17   6 C    3.955 --    16 C    1.644    18 C    1.178    50 H    0.973
    18   6 C    3.908 --    19 C    1.324    34 N    1.224    17 C    1.178
    19   6 C    3.935 --    18 C    1.324    29 C    1.319    20 C    1.030
    20   6 C    3.986 --    28 C    1.387    21 C    1.385    19 C    1.030
    21   6 C    3.987 --    22 C    1.464    20 C    1.385    51 H    0.972
                            27 C    0.102
    22   6 C    3.990 --    21 C    1.464    23 C    1.385    52 H    0.968
                            28 C    0.102
    23   6 C    3.983 --    27 C    1.388    22 C    1.385    24 C    1.010
    24   6 C    3.836 --    26 O    1.689    25 O    1.088    23 C    1.010
    25   8 O    2.096 --    24 C    1.088    53 H    0.838    26 O    0.128
    26   8 O    1.957 --    24 C    1.689    25 O    0.128
    27   6 C    3.991 --    28 C    1.462    23 C    1.388    54 H    0.970
                            21 C    0.102
    28   6 C    3.988 --    27 C    1.462    20 C    1.387    55 H    0.972
                            22 C    0.102
    29   6 C    3.913 --    19 C    1.319    33 N    1.239    30 C    1.171
    30   6 C    3.958 --    31 C    1.657    29 C    1.171    56 H    0.973
    31   6 C    3.955 --    30 C    1.657    32 C    1.170    57 H    0.975
    32   6 C    3.916 --     2 C    1.362    33 N    1.229    31 C    1.170
    33   7 N    3.245 --    29 C    1.239    32 C    1.229     1 Cu   0.506
    34   7 N    3.249 --    15 C    1.253    18 C    1.224     1 Cu   0.503
    35   6 C    3.986 --    43 C    1.387    36 C    1.386     8 C    1.029
    36   6 C    3.987 --    37 C    1.464    35 C    1.386    58 H    0.972
                            42 C    0.103
    37   6 C    3.990 --    36 C    1.464    38 C    1.385    59 H    0.968
                            43 C    0.103
    38   6 C    3.983 --    42 C    1.388    37 C    1.385    39 C    1.010
    39   6 C    3.836 --    41 O    1.690    40 O    1.088    38 C    1.010
    40   8 O    2.096 --    39 C    1.088    60 H    0.838    41 O    0.128
    41   8 O    1.958 --    39 C    1.690    40 O    0.128
    42   6 C    3.991 --    43 C    1.461    38 C    1.388    61 H    0.970
                            36 C    0.103
    43   6 C    3.988 --    42 C    1.461    35 C    1.387    62 H    0.972
                            37 C    0.103
    44   1 H    1.001 --     2 C    0.971
    45   1 H    0.997 --     4 C    0.975
    46   1 H    1.004 --     5 C    0.973
    47   1 H    1.004 --    10 C    0.973
    48   1 H    1.002 --    11 C    0.974
    49   1 H    1.002 --    16 C    0.974
    50   1 H    1.004 --    17 C    0.973
    51   1 H    1.004 --    21 C    0.972
    52   1 H    1.005 --    22 C    0.968
    53   1 H    0.873 --    25 O    0.838
    54   1 H    1.005 --    27 C    0.970
    55   1 H    1.004 --    28 C    0.972
    56   1 H    1.004 --    30 C    0.973
    57   1 H    0.997 --    31 C    0.975
    58   1 H    1.004 --    36 C    0.972
    59   1 H    1.005 --    37 C    0.968
    60   1 H    0.873 --    40 O    0.838
    61   1 H    1.005 --    42 C    0.970
    62   1 H    1.004 --    43 C    0.972
    63  29 Cu   2.191 --    69 N    0.506    95 N    0.506    96 N    0.503
                            74 N    0.503
    64   6 C    3.932 --    65 C    1.362    94 C    1.362   106 H    0.971
    65   6 C    3.916 --    64 C    1.362    69 N    1.228    66 C    1.169
    66   6 C    3.955 --    67 C    1.657    65 C    1.169   107 H    0.975
    67   6 C    3.958 --    66 C    1.657    68 C    1.171   108 H    0.973
    68   6 C    3.913 --    70 C    1.319    69 N    1.239    67 C    1.171
    69   7 N    3.245 --    68 C    1.239    65 C    1.228    63 Cu   0.506
    70   6 C    3.935 --    71 C    1.325    68 C    1.319    97 C    1.028
    71   6 C    3.908 --    70 C    1.325    74 N    1.224    72 C    1.178
    72   6 C    3.955 --    73 C    1.644    71 C    1.178   109 H    0.973
    73   6 C    3.957 --    72 C    1.644    75 C    1.185   110 H    0.974
    74   7 N    3.249 --    75 C    1.254    71 C    1.224    63 Cu   0.503
    75   6 C    3.898 --    76 C    1.264    74 N    1.254    73 C    1.185
    76   6 C    3.942 --    77 C    1.264    75 C    1.264   136 C    1.180
    77   6 C    3.898 --    76 C    1.264    96 N    1.253    78 C    1.185
    78   6 C    3.957 --    79 C    1.644    77 C    1.185   111 H    0.974
    79   6 C    3.955 --    78 C    1.644    80 C    1.178   112 H    0.973
    80   6 C    3.908 --    81 C    1.324    96 N    1.224    79 C    1.178
    81   6 C    3.935 --    80 C    1.324    91 C    1.319    82 C    1.030
    82   6 C    3.986 --    90 C    1.387    83 C    1.385    81 C    1.030
    83   6 C    3.987 --    84 C    1.464    82 C    1.385   113 H    0.972
                            89 C    0.102
    84   6 C    3.990 --    83 C    1.464    85 C    1.385   114 H    0.968
                            90 C    0.102
    85   6 C    3.983 --    89 C    1.388    84 C    1.385    86 C    1.010
    86   6 C    3.836 --    88 O    1.689    87 O    1.088    85 C    1.010
    87   8 O    2.096 --    86 C    1.088   115 H    0.838    88 O    0.128
    88   8 O    1.958 --    86 C    1.689    87 O    0.128
    89   6 C    3.991 --    90 C    1.461    85 C    1.388   116 H    0.970
                            83 C    0.102
    90   6 C    3.988 --    89 C    1.461    82 C    1.387   117 H    0.972
                            84 C    0.102
    91   6 C    3.913 --    81 C    1.319    95 N    1.239    92 C    1.171
    92   6 C    3.958 --    93 C    1.657    91 C    1.171   118 H    0.973
    93   6 C    3.955 --    92 C    1.657    94 C    1.170   119 H    0.975
    94   6 C    3.916 --    64 C    1.362    95 N    1.229    93 C    1.170
    95   7 N    3.245 --    91 C    1.239    94 C    1.229    63 Cu   0.506
    96   7 N    3.249 --    77 C    1.253    80 C    1.224    63 Cu   0.503
    97   6 C    3.986 --   105 C    1.387    98 C    1.386    70 C    1.028
    98   6 C    3.987 --    99 C    1.464    97 C    1.386   120 H    0.972
                           104 C    0.103
    99   6 C    3.990 --    98 C    1.464   100 C    1.385   121 H    0.968
                           105 C    0.103
   100   6 C    3.983 --   104 C    1.388    99 C    1.385   101 C    1.010
   101   6 C    3.836 --   103 O    1.690   102 O    1.088   100 C    1.010
   102   8 O    2.096 --   101 C    1.088   122 H    0.838   103 O    0.128
   103   8 O    1.958 --   101 C    1.690   102 O    0.128
   104   6 C    3.991 --   105 C    1.461   100 C    1.388   123 H    0.970
                            98 C    0.103
   105   6 C    3.988 --   104 C    1.461    97 C    1.387   124 H    0.972
                            99 C    0.103
   106   1 H    1.001 --    64 C    0.971
   107   1 H    0.997 --    66 C    0.975
   108   1 H    1.004 --    67 C    0.973
   109   1 H    1.004 --    72 C    0.973
   110   1 H    1.002 --    73 C    0.974
   111   1 H    1.002 --    78 C    0.974
   112   1 H    1.004 --    79 C    0.973
   113   1 H    1.004 --    83 C    0.972
   114   1 H    1.005 --    84 C    0.968
   115   1 H    0.873 --    87 O    0.838
   116   1 H    1.005 --    89 C    0.970
   117   1 H    1.004 --    90 C    0.972
   118   1 H    1.004 --    92 C    0.973
   119   1 H    0.997 --    93 C    0.975
   120   1 H    1.004 --    98 C    0.972
   121   1 H    1.005 --    99 C    0.968
   122   1 H    0.873 --   102 O    0.838
   123   1 H    1.005 --   104 C    0.970
   124   1 H    1.004 --   105 C    0.972
   125   6 C    3.925 --   126 C    2.380   129 C    1.326   128 C    0.190
   126   6 C    3.924 --   125 C    2.380   127 C    1.325   130 C    0.190
   127   6 C    3.936 --   128 C    2.461   126 C    1.325
   128   6 C    3.889 --   127 C    2.461    14 C    1.180   125 C    0.190
   129   6 C    3.933 --   130 C    2.459   125 C    1.326
   130   6 C    3.890 --   129 C    2.459   138 C    1.182   126 C    0.190
   131   6 C    3.924 --   132 C    2.379   135 C    1.325   134 C    0.190
   132   6 C    3.925 --   131 C    2.379   133 C    1.326   136 C    0.190
   133   6 C    3.933 --   134 C    2.459   132 C    1.326
   134   6 C    3.890 --   133 C    2.459   150 C    1.182   131 C    0.190
   135   6 C    3.936 --   136 C    2.461   131 C    1.325
   136   6 C    3.889 --   135 C    2.461    76 C    1.180   132 C    0.190
   137  29 Cu   2.158 --   148 N    0.498   143 N    0.497   170 N    0.497
                           169 N    0.497
   138   6 C    3.932 --   139 C    1.261   168 C    1.261   130 C    1.182
   139   6 C    3.898 --   138 C    1.261   143 N    1.257   140 C    1.185
   140   6 C    3.955 --   141 C    1.643   139 C    1.185   180 H    0.974
   141   6 C    3.956 --   140 C    1.643   142 C    1.179   181 H    0.973
   142   6 C    3.906 --   144 C    1.322   143 N    1.225   141 C    1.179
   143   7 N    3.242 --   139 C    1.257   142 C    1.225   137 Cu   0.497
   144   6 C    3.931 --   142 C    1.322   145 C    1.322   171 C    1.030
   145   6 C    3.906 --   144 C    1.322   148 N    1.225   146 C    1.179
   146   6 C    3.956 --   147 C    1.643   145 C    1.179   182 H    0.973
   147   6 C    3.955 --   146 C    1.643   149 C    1.186   183 H    0.974
   148   7 N    3.242 --   149 C    1.256   145 C    1.225   137 Cu   0.498
   149   6 C    3.898 --   150 C    1.261   148 N    1.256   147 C    1.186
   150   6 C    3.932 --   149 C    1.261   151 C    1.261   134 C    1.182
   151   6 C    3.898 --   150 C    1.261   170 N    1.257   152 C    1.186
   152   6 C    3.955 --   153 C    1.643   151 C    1.186   184 H    0.974
   153   6 C    3.956 --   152 C    1.643   154 C    1.179   185 H    0.973
   154   6 C    3.906 --   155 C    1.322   170 N    1.225   153 C    1.179
   155   6 C    3.931 --   165 C    1.322   154 C    1.322   156 C    1.030
   156   6 C    3.986 --   164 C    1.386   157 C    1.385   155 C    1.030
   157   6 C    3.987 --   158 C    1.464   156 C    1.385   186 H    0.972
                           163 C    0.102
   158   6 C    3.990 --   157 C    1.464   159 C    1.385   187 H    0.968
                           164 C    0.102
   159   6 C    3.982 --   163 C    1.388   158 C    1.385   160 C    1.010
   160   6 C    3.836 --   162 O    1.689   161 O    1.088   159 C    1.010
   161   8 O    2.096 --   160 C    1.088   188 H    0.838   162 O    0.128
   162   8 O    1.957 --   160 C    1.689   161 O    0.128
   163   6 C    3.991 --   164 C    1.462   159 C    1.388   189 H    0.970
                           157 C    0.102
   164   6 C    3.987 --   163 C    1.462   156 C    1.386   190 H    0.972
                           158 C    0.102
   165   6 C    3.907 --   155 C    1.322   169 N    1.225   166 C    1.179
   166   6 C    3.956 --   167 C    1.643   165 C    1.179   191 H    0.973
   167   6 C    3.955 --   166 C    1.643   168 C    1.186   192 H    0.974
   168   6 C    3.898 --   138 C    1.261   169 N    1.257   167 C    1.186
   169   7 N    3.242 --   168 C    1.257   165 C    1.225   137 Cu   0.497
   170   7 N    3.242 --   151 C    1.257   154 C    1.225   137 Cu   0.497
   171   6 C    3.986 --   179 C    1.387   172 C    1.385   144 C    1.030
   172   6 C    3.987 --   173 C    1.464   171 C    1.385   193 H    0.972
                           178 C    0.103
   173   6 C    3.990 --   172 C    1.464   174 C    1.385   194 H    0.968
                           179 C    0.103
   174   6 C    3.983 --   178 C    1.389   173 C    1.385   175 C    1.009
   175   6 C    3.836 --   177 O    1.690   176 O    1.088   174 C    1.009
   176   8 O    2.096 --   175 C    1.088   195 H    0.838   177 O    0.128
   177   8 O    1.958 --   175 C    1.690   176 O    0.128
   178   6 C    3.991 --   179 C    1.461   174 C    1.389   196 H    0.970
                           172 C    0.103
   179   6 C    3.987 --   178 C    1.461   171 C    1.387   197 H    0.972
                           173 C    0.103
   180   1 H    1.001 --   140 C    0.974
   181   1 H    1.004 --   141 C    0.973
   182   1 H    1.004 --   146 C    0.973
   183   1 H    1.001 --   147 C    0.974
   184   1 H    1.002 --   152 C    0.974
   185   1 H    1.004 --   153 C    0.973
   186   1 H    1.004 --   157 C    0.972
   187   1 H    1.005 --   158 C    0.968
   188   1 H    0.873 --   161 O    0.838
   189   1 H    1.005 --   163 C    0.970
   190   1 H    1.004 --   164 C    0.972
   191   1 H    1.004 --   166 C    0.973
   192   1 H    1.002 --   167 C    0.974
   193   1 H    1.004 --   172 C    0.972
   194   1 H    1.005 --   173 C    0.968
   195   1 H    0.873 --   176 O    0.838
   196   1 H    1.005 --   178 C    0.970
   197   1 H    1.004 --   179 C    0.972
 ---------------------------------------------------------------------------

           -------------------------------------------------
          | TOTAL ENERGY             -379.210440623910 Eh   |
          | GRADIENT NORM               0.000658223575 Eh/α |
          | HOMO-LUMO GAP               0.000029063391 eV   |
           -------------------------------------------------

 * finished run on 2022/07/30 at 09:58:50.714
