   * xtb version 6.5.1 (b24c23e) compiled by 'conda@728c89f4b128' on 2022-07-12
          program call               : xtb Zn_Py_C4_2.xyz --gfn 1 --opt -T 48

   ID    Z sym.   atoms
    1   30 Zn     1, 55
    2    6 C      2-6, 8-11, 13-17, 19-24, 26-29, 31-36, 56-60, 62-65, 67-71,
                  73-78, 80-83, 85-90, 109-112
    3    7 N      7, 12, 18, 25, 30, 37, 61, 66, 72, 79, 84, 91
    4    1 H      38-54, 92-108
########################################################################
[WARNING] Please study the warnings concerning your input carefully
-1- prog_main_parseArguments: Unknown option '-T' provided
########################################################################

          :  Hamiltonian                  GFN1-xTB          :
 * total energy  :  -193.0927523 Eh     change       -0.7593712E-09 Eh
 * total energy  :  -193.2271220 Eh     change       -0.1343697E+00 Eh
 * total energy  :  -193.2740598 Eh     change       -0.4693779E-01 Eh
 * total energy  :  -193.2973863 Eh     change       -0.2332652E-01 Eh
 * total energy  :  -193.3091041 Eh     change       -0.1171785E-01 Eh
 * total energy  :  -193.3188353 Eh     change       -0.9731139E-02 Eh
 * total energy  :  -193.3228009 Eh     change       -0.3965603E-02 Eh
 * total energy  :  -193.3283974 Eh     change       -0.5596547E-02 Eh
 * total energy  :  -193.3306424 Eh     change       -0.2244971E-02 Eh
 * total energy  :  -193.3340206 Eh     change       -0.3378167E-02 Eh
 * total energy  :  -193.3432632 Eh     change       -0.3999380E-04 Eh
 * total energy  :  -193.3432951 Eh     change       -0.3186045E-04 Eh
 * total energy  :  -193.3433312 Eh     change       -0.3611986E-04 Eh
 * total energy  :  -193.3433519 Eh     change       -0.2075312E-04 Eh
 * total energy  :  -193.3433782 Eh     change       -0.2622786E-04 Eh
 * total energy  :  -193.3433920 Eh     change       -0.1387474E-04 Eh
 * total energy  :  -193.3434017 Eh     change       -0.9680946E-05 Eh
 * total energy  :  -193.3434086 Eh     change       -0.6844204E-05 Eh
 * total energy  :  -193.3434119 Eh     change       -0.3339379E-05 Eh
   *** GEOMETRY OPTIMIZATION CONVERGED AFTER 39 ITERATIONS ***

 final structure:
================
112
 xtb: 6.5.1 (b24c23e)
Zn          12.35496902811221       -0.04579489812590        0.00291949819845
C            8.94505733580747       -0.06971264657505       -0.02286438634096
C            9.57166412082463       -1.30403288079926        0.09981766149895
C            8.89404230285631       -2.56188542567626        0.24729669666860
C            9.85013849608991       -3.51778926549155        0.35522246640845
C           11.12504528919751       -2.85603040914253        0.26550408895920
N           10.92047188631026       -1.51531055278196        0.11742136839717
C           12.37455219431170       -3.48173093712493        0.35104598344299
C           12.38268353265682       -4.95635742821727        0.50922762113258
C           12.92204736046408       -5.55939555485034        1.64513360167698
C           12.90178132011056       -6.94098064698471        1.75212084069103
N           12.39295385259404       -7.73290197027777        0.81351875907125
C           11.88029148801010       -7.16664606791072       -0.27448121625215
C           11.84976222225826       -5.79485743515202       -0.46941163394240
C           13.61610584138144       -2.83818941713112        0.30359366532274
C           14.89362562747779       -3.49481301088148        0.34188174687510
C           15.84288452045616       -2.52864422904127        0.25134348700438
N           13.81358688933681       -1.48911495503288        0.17878995414543
C           15.15618474012213       -1.27447424392992        0.14934318221162
C           15.79007376174724       -0.02211228896978        0.02293497540627
C           15.13978275948189        1.22135339778726       -0.10764096364913
C           15.81091336644128        2.47801875310336       -0.26593552156317
C           14.84996054239011        3.43131855673945       -0.36835582242430
C           13.58054735127746        2.76606671323852       -0.26457373530278
N           13.79463604757850        1.42190561976687       -0.11488418745840
C           12.33096153518421        3.39159736922904       -0.33782479493886
C           12.32118648235518        4.86670147282606       -0.48825654225038
C           11.76016656651261        5.47618606234361       -1.61007962891392
C           11.77841968660395        6.85836722979118       -1.70972671984844
N           12.30637458694285        7.64515304206969       -0.77747257419321
C           12.84142039189972        7.07278467320140        0.29645333622620
C           12.87406841193989        5.70013904493579        0.48384424873442
C           11.08920226072292        2.74654772911981       -0.28567343807235
C            9.80617711929912        3.39810698750441       -0.31524904808666
C            8.86221758947260        2.42785165662284       -0.23010167980013
C            9.55557845935760        1.17334966544504       -0.13803379375386
N           10.90166956177797        1.40047892932079       -0.16904062281814
H            7.85942111321805       -0.07637974172857       -0.01783626560773
H            7.82253010994430       -2.68446369372400        0.27134592919299
H            9.70986114385954       -4.57764969923365        0.49519876229192
H           13.33726407722695       -4.95306005874135        2.44143914646456
H           13.31129943104713       -7.43260905571586        2.62989482356006
H           11.47592252118767       -7.83971328584624       -1.02485146045230
H           11.43196503529184       -5.37874683587359       -1.37847069514133
H           15.04345681974442       -4.55998556359582        0.41464941214541
H           16.91474816476794       -2.64728900942222        0.24622255944158
H           16.88110382308216        2.60627041248599       -0.30052225914029
H           14.98764923219013        4.49047980165389       -0.51486116125700
H           11.33044753533274        4.87457051716036       -2.40230039680934
H           11.35188358004706        7.35462284015148       -2.57669387946423
H           13.26271524717110        7.74171151197183        1.04141664410170
H           13.30987834151885        5.27907501545597        1.38215712787587
H            9.65231896194067        4.46340439234065       -0.37965666893156
H            7.78933421663055        2.54032919545533       -0.22201508690817
Zn          25.83098284818707        0.04551514293954       -0.00995158213733
C           29.24096178029834        0.06005921035995       -0.04189060187445
C           28.61455034250139        1.27786436910421       -0.27810536661230
C           29.29238156574841        2.52520073805547       -0.49665610161900
C           28.33645807633957        3.47152567097434       -0.67048798714448
C           27.06146014236559        2.81153053859388       -0.56960931178134
N           27.26577361981057        1.48507678474088       -0.32455336085296
C           25.81201004598660        3.43462815969046       -0.67382490511792
C           25.80428062698024        4.89119598026354       -0.95267415244807
C           25.25759950561611        5.79929313314610       -0.04639622169538
C           25.27810856283330        7.15181757743078       -0.34793072529125
N           25.79397859112791        7.63544636388011       -1.47352665176432
C           26.31392351101398        6.77655121621560       -2.34482746688364
C           26.34469424226850        5.40777207606894       -2.12998023286030
C           24.57023924876258        2.80452203336856       -0.53633186978536
C           23.29287502560578        3.44299989686299       -0.69559902351441
C           22.34347537942656        2.49227370364742       -0.50185924811695
N           24.37253990238313        1.47781128692993       -0.26188803697199
C           23.02991092595656        1.26348202085165       -0.23032323747556
C           22.39581336283067        0.02912835541651        0.01550171529687
C           23.04589377074739       -1.19818849155478        0.25486109606189
C           22.37461014148309       -2.44579933628042        0.47289066721401
C           23.33549012861892       -3.38776262329806        0.65212347601461
C           24.60499943186819       -2.72195390137119        0.55339879290849
N           24.39105066887621       -1.39264254407758        0.30408660493254
C           25.85439698974863       -3.34272359841068        0.66124414338165
C           25.86360980547862       -4.79780420988024        0.94696069818242
C           26.41535515169427       -5.70890909188053        0.04699682739755
C           26.39666382120318       -7.06007578593371        0.35480218569837
N           25.87714806232803       -7.53973850148975        1.48033844888504
C           25.35111828383636       -6.67804639008856        2.34514988988442
C           25.31927981887701       -5.31036395506828        2.12430871571880
C           27.09624358087285       -2.71162524154893        0.51961425924761
C           28.37915269626475       -3.34534130753937        0.67471360752327
C           29.32333980774286       -2.39235349191366        0.47469514729021
C           28.63024898120811       -1.16369563540485        0.20435035236780
N           27.28409552075429       -1.38918849013055        0.24296320700084
H           30.32660029366421        0.06768299377306       -0.03927203504834
H           30.36389116666207        2.64983293588476       -0.50603575496746
H           28.47692903925157        4.52697997456391       -0.84038158154200
H           24.83637914253172        5.45178890855002        0.88958198377737
H           24.86243847554170        7.87803882431149        0.34480729741897
H           26.72416887858601        7.20137659724447       -3.25633308118179
H           26.76845748580789        4.74463407333036       -2.87480908894217
H           23.14313752974024        4.48266533984903       -0.93847699757020
H           21.27168506255983        2.60376230811213       -0.54449616835698
H           21.30435256043548       -2.57798685803191        0.47975371904446
H           23.19784452095496       -4.44330493856445        0.82286785997596
H           26.83822544079029       -5.36522276707416       -0.88962318546878
H           26.81567910314381       -7.78849696488811       -0.33342639232270
H           24.93670158504716       -7.09980938017363        3.25635008587782
H           24.89068724116021       -4.64470612852733        2.86415451712616
H           28.53270594190509       -4.38445301132075        0.91833326324379
H           30.39624156217991       -2.49866834411827        0.51155246794866
C           18.41809755793617       -0.00350767102955        0.01584550148645
C           17.19605175455719       -0.01266989665850        0.01801058778590
C           19.76779311674172        0.00772081849441        0.01407835933204
C           20.98984068957227        0.01874014187065        0.01263848750807

          :  Hamiltonian                  GFN1-xTB          :
         :: total energy            -193.343411916158 Eh    ::
         :: gradient norm              0.000605482351 Eh/a0 ::
         :: HOMO-LUMO gap              1.107651282308 eV    ::
         :: SCC energy              -196.412472730934 Eh    ::
         :: repulsion energy           3.169982465742 Eh    ::

    * Orbital Energies and Occupations

         #    Occupation            Energy/Eh            Energy/eV
      -------------------------------------------------------------
         1        2.0000           -0.7641544             -20.7937
       ...           ...                  ...                  ...
       165        2.0000           -0.4252271             -11.5710
       166        2.0000           -0.4251051             -11.5677
       167        2.0000           -0.4250421             -11.5660
       168        2.0000           -0.4236552             -11.5282
       169        2.0000           -0.4223877             -11.4938
       170        2.0000           -0.4180556             -11.3759
       171        2.0000           -0.4180443             -11.3756
       172        2.0000           -0.4180283             -11.3751
       173        2.0000           -0.4179523             -11.3731
       174        2.0000           -0.3976488             -10.8206
       175        2.0000           -0.3976486             -10.8206
       176        2.0000           -0.3934532             -10.7064
       177        2.0000           -0.3809904             -10.3673 (HOMO)
       178                         -0.3402850              -9.2596 (LUMO)
       179                         -0.3314177              -9.0183
       180                         -0.3314107              -9.0181
       181                         -0.3263668              -8.8809
       182                         -0.3015142              -8.2046
       183                         -0.2950489              -8.0287
       184                         -0.2790851              -7.5943
       185                         -0.2790482              -7.5933
       186                         -0.2775811              -7.5534
       187                         -0.2758524              -7.5063
       188                         -0.2685679              -7.3081
       ...                                ...                  ...
       380                          1.5164405              41.2644
      -------------------------------------------------------------
                  HL-Gap            0.0407054 Eh            1.1077 eV

Wiberg/Mayer (AO) data.
largest (>0.10) Wiberg bond orders for each atom

     #   Z sym  total        # sym  WBO       # sym  WBO       # sym  WBO
 ---------------------------------------------------------------------------
     1  30 Zn   1.996 --     7 N    0.460    37 N    0.459    25 N    0.456
                            18 N    0.456
     2   6 C    3.928 --    36 C    1.358     3 C    1.357    38 H    0.971
     3   6 C    3.921 --     2 C    1.357     7 N    1.233     4 C    1.170
     4   6 C    3.960 --     5 C    1.660     3 C    1.170    39 H    0.976
     5   6 C    3.963 --     4 C    1.660     6 C    1.171    40 H    0.973
     6   6 C    3.919 --     8 C    1.314     7 N    1.244     5 C    1.171
     7   7 N    3.293 --     6 C    1.244     3 C    1.233     1 Zn   0.460
     8   6 C    3.933 --    15 C    1.322     6 C    1.314     9 C    1.029
     9   6 C    3.985 --    14 C    1.392    10 C    1.392     8 C    1.029
                            12 N    0.107
    10   6 C    3.987 --    11 C    1.443     9 C    1.392    41 H    0.973
                            13 C    0.108
    11   6 C    3.972 --    10 C    1.443    12 N    1.415    42 H    0.972
                            14 C    0.108
    12   7 N    3.029 --    13 C    1.415    11 C    1.415     9 C    0.107
    13   6 C    3.972 --    14 C    1.443    12 N    1.415    43 H    0.972
                            10 C    0.108
    14   6 C    3.987 --    13 C    1.443     9 C    1.392    44 H    0.973
                            11 C    0.108
    15   6 C    3.913 --     8 C    1.322    18 N    1.226    16 C    1.179
    16   6 C    3.959 --    17 C    1.646    15 C    1.179    45 H    0.973
    17   6 C    3.962 --    16 C    1.646    19 C    1.186    46 H    0.974
    18   7 N    3.297 --    19 C    1.262    15 C    1.226     1 Zn   0.456
    19   6 C    3.902 --    18 N    1.262    20 C    1.255    17 C    1.186
    20   6 C    3.939 --    21 C    1.255    19 C    1.255   110 C    1.189
    21   6 C    3.902 --    25 N    1.262    20 C    1.255    22 C    1.186
    22   6 C    3.962 --    23 C    1.646    21 C    1.186    47 H    0.974
    23   6 C    3.959 --    22 C    1.646    24 C    1.179    48 H    0.973
    24   6 C    3.913 --    26 C    1.322    25 N    1.226    23 C    1.179
    25   7 N    3.297 --    21 C    1.262    24 C    1.226     1 Zn   0.456
    26   6 C    3.933 --    24 C    1.322    33 C    1.313    27 C    1.030
    27   6 C    3.985 --    28 C    1.392    32 C    1.391    26 C    1.030
                            30 N    0.107
    28   6 C    3.987 --    29 C    1.443    27 C    1.392    49 H    0.973
                            31 C    0.108
    29   6 C    3.972 --    28 C    1.443    30 N    1.415    50 H    0.972
                            32 C    0.108
    30   7 N    3.029 --    29 C    1.415    31 C    1.415    27 C    0.107
    31   6 C    3.972 --    32 C    1.443    30 N    1.415    51 H    0.972
                            28 C    0.108
    32   6 C    3.987 --    31 C    1.443    27 C    1.391    52 H    0.973
                            29 C    0.108
    33   6 C    3.919 --    26 C    1.313    37 N    1.245    34 C    1.171
    34   6 C    3.963 --    35 C    1.660    33 C    1.171    53 H    0.973
    35   6 C    3.960 --    34 C    1.660    36 C    1.170    54 H    0.976
    36   6 C    3.921 --     2 C    1.358    37 N    1.233    35 C    1.170
    37   7 N    3.293 --    33 C    1.245    36 C    1.233     1 Zn   0.459
    38   1 H    1.001 --     2 C    0.971
    39   1 H    0.998 --     4 C    0.976
    40   1 H    1.005 --     5 C    0.973
    41   1 H    1.004 --    10 C    0.973
    42   1 H    1.013 --    11 C    0.972
    43   1 H    1.013 --    13 C    0.972
    44   1 H    1.004 --    14 C    0.973
    45   1 H    1.004 --    16 C    0.973
    46   1 H    1.002 --    17 C    0.974
    47   1 H    1.002 --    22 C    0.974
    48   1 H    1.005 --    23 C    0.973
    49   1 H    1.004 --    28 C    0.973
    50   1 H    1.013 --    29 C    0.972
    51   1 H    1.013 --    31 C    0.972
    52   1 H    1.004 --    32 C    0.973
    53   1 H    1.005 --    34 C    0.973
    54   1 H    0.998 --    35 C    0.976
    55  30 Zn   1.996 --    61 N    0.460    91 N    0.459    79 N    0.456
                            72 N    0.456
    56   6 C    3.928 --    90 C    1.358    57 C    1.357    92 H    0.971
    57   6 C    3.921 --    56 C    1.357    61 N    1.233    58 C    1.170
    58   6 C    3.960 --    59 C    1.660    57 C    1.170    93 H    0.976
    59   6 C    3.963 --    58 C    1.660    60 C    1.171    94 H    0.973
    60   6 C    3.919 --    62 C    1.314    61 N    1.244    59 C    1.171
    61   7 N    3.293 --    60 C    1.244    57 C    1.233    55 Zn   0.460
    62   6 C    3.933 --    69 C    1.322    60 C    1.314    63 C    1.029
    63   6 C    3.985 --    64 C    1.392    68 C    1.392    62 C    1.029
                            66 N    0.107
    64   6 C    3.987 --    65 C    1.443    63 C    1.392    95 H    0.973
                            67 C    0.108
    65   6 C    3.972 --    64 C    1.443    66 N    1.415    96 H    0.972
                            68 C    0.108
    66   7 N    3.029 --    65 C    1.415    67 C    1.415    63 C    0.107
    67   6 C    3.972 --    68 C    1.443    66 N    1.415    97 H    0.972
                            64 C    0.108
    68   6 C    3.987 --    67 C    1.443    63 C    1.392    98 H    0.973
                            65 C    0.108
    69   6 C    3.913 --    62 C    1.322    72 N    1.226    70 C    1.179
    70   6 C    3.959 --    71 C    1.646    69 C    1.179    99 H    0.973
    71   6 C    3.962 --    70 C    1.646    73 C    1.186   100 H    0.974
    72   7 N    3.297 --    73 C    1.262    69 C    1.226    55 Zn   0.456
    73   6 C    3.902 --    72 N    1.262    74 C    1.255    71 C    1.186
    74   6 C    3.939 --    73 C    1.255    75 C    1.255   112 C    1.189
    75   6 C    3.902 --    79 N    1.262    74 C    1.255    76 C    1.186
    76   6 C    3.962 --    77 C    1.646    75 C    1.186   101 H    0.974
    77   6 C    3.959 --    76 C    1.646    78 C    1.179   102 H    0.973
    78   6 C    3.913 --    80 C    1.322    79 N    1.226    77 C    1.179
    79   7 N    3.297 --    75 C    1.262    78 C    1.226    55 Zn   0.456
    80   6 C    3.933 --    78 C    1.322    87 C    1.314    81 C    1.029
    81   6 C    3.985 --    82 C    1.392    86 C    1.392    80 C    1.029
                            84 N    0.107
    82   6 C    3.987 --    83 C    1.442    81 C    1.392   103 H    0.973
                            85 C    0.108
    83   6 C    3.972 --    82 C    1.442    84 N    1.415   104 H    0.972
                            86 C    0.108
    84   7 N    3.029 --    83 C    1.415    85 C    1.415    81 C    0.107
    85   6 C    3.972 --    86 C    1.443    84 N    1.415   105 H    0.972
                            82 C    0.108
    86   6 C    3.987 --    85 C    1.443    81 C    1.392   106 H    0.973
                            83 C    0.108
    87   6 C    3.919 --    80 C    1.314    91 N    1.245    88 C    1.171
    88   6 C    3.963 --    89 C    1.660    87 C    1.171   107 H    0.973
    89   6 C    3.960 --    88 C    1.660    90 C    1.170   108 H    0.976
    90   6 C    3.921 --    56 C    1.358    91 N    1.233    89 C    1.170
    91   7 N    3.293 --    87 C    1.245    90 C    1.233    55 Zn   0.459
    92   1 H    1.001 --    56 C    0.971
    93   1 H    0.998 --    58 C    0.976
    94   1 H    1.005 --    59 C    0.973
    95   1 H    1.004 --    64 C    0.973
    96   1 H    1.013 --    65 C    0.972
    97   1 H    1.013 --    67 C    0.972
    98   1 H    1.004 --    68 C    0.973
    99   1 H    1.004 --    70 C    0.973
   100   1 H    1.002 --    71 C    0.974
   101   1 H    1.002 --    76 C    0.974
   102   1 H    1.005 --    77 C    0.973
   103   1 H    1.004 --    82 C    0.973
   104   1 H    1.013 --    83 C    0.972
   105   1 H    1.013 --    85 C    0.972
   106   1 H    1.004 --    86 C    0.973
   107   1 H    1.005 --    88 C    0.973
   108   1 H    0.998 --    89 C    0.976
   109   6 C    3.935 --   110 C    2.476   111 C    1.308
   110   6 C    3.926 --   109 C    2.476    20 C    1.189   112 C    0.199
   111   6 C    3.935 --   112 C    2.476   109 C    1.308
   112   6 C    3.926 --   111 C    2.476    74 C    1.189   110 C    0.199
 ---------------------------------------------------------------------------

           -------------------------------------------------
          | TOTAL ENERGY             -193.343411916158 Eh   |
          | GRADIENT NORM               0.000605482351 Eh/α |
          | HOMO-LUMO GAP               1.107651282308 eV   |
           -------------------------------------------------

 * finished run on 2022/07/30 at 07:15:01.263
