   * xtb version 6.5.1 (b24c23e) compiled by 'conda@728c89f4b128' on 2022-07-12
          program call               : xtb Zn_C2Py_C8_2.xyz --gfn 1 --opt -T 48

   ID    Z sym.   atoms
    1   30 Zn     1, 59
    2    6 C      2-6, 8-13, 15-19, 21-26, 28-33, 35-40, 60-64, 66-71, 73-77,
                  79-84, 86-91, 93-98, 117-124
    3    7 N      7, 14, 20, 27, 34, 41, 65, 72, 78, 85, 92, 99
    4    1 H      42-58, 100-116
########################################################################
[WARNING] Please study the warnings concerning your input carefully
-1- prog_main_parseArguments: Unknown option '-T' provided
########################################################################

          :  Hamiltonian                  GFN1-xTB          :
 * total energy  :  -218.0004825 Eh     change       -0.2835066E-09 Eh
 * total energy  :  -218.2631772 Eh     change       -0.2626947E+00 Eh
 * total energy  :  -218.3380933 Eh     change       -0.7491612E-01 Eh
 * total energy  :  -218.3619655 Eh     change       -0.2387216E-01 Eh
 * total energy  :  -218.3696558 Eh     change       -0.7690292E-02 Eh
 * total energy  :  -218.3735884 Eh     change       -0.3932618E-02 Eh
 * total energy  :  -218.3762862 Eh     change       -0.2697798E-02 Eh
 * total energy  :  -218.3773197 Eh     change       -0.1033463E-02 Eh
 * total energy  :  -218.3785130 Eh     change       -0.1193301E-02 Eh
 * total energy  :  -218.3792008 Eh     change       -0.6878643E-03 Eh
 * total energy  :  -218.3823966 Eh     change       -0.2444632E-04 Eh
 * total energy  :  -218.3824073 Eh     change       -0.1068424E-04 Eh
 * total energy  :  -218.3824154 Eh     change       -0.8121869E-05 Eh
 * total energy  :  -218.3824233 Eh     change       -0.7889223E-05 Eh
 * total energy  :  -218.3824301 Eh     change       -0.6833574E-05 Eh
 * total energy  :  -218.3824376 Eh     change       -0.7470997E-05 Eh
 * total energy  :  -218.3824377 Eh     change       -0.1014167E-06 Eh
 * total energy  :  -218.3824469 Eh     change       -0.9202145E-05 Eh
 * total energy  :  -218.3824492 Eh     change       -0.2313879E-05 Eh
   *** GEOMETRY OPTIMIZATION CONVERGED AFTER 44 ITERATIONS ***

 final structure:
================
124
 xtb: 6.5.1 (b24c23e)
Zn          13.58192413570644        0.04353132251611        0.01562961963767
C           10.16087653333893        0.08340891880109        0.03174083163431
C           10.79373842170163        0.95526142340424        0.90927571721156
C           10.12829419569133        1.85587289222457        1.80855780355225
C           11.09497385851338        2.52882513885217        2.48336833699938
C           12.35834100982423        2.04487703366482        2.00164051533109
N           12.14673305410493        1.09495167333071        1.05337618173161
C           13.61803063620050        2.49111828085312        2.44352941890401
C           13.63439362020420        3.49767585449906        3.43441928411710
C           13.64879195385360        4.36680826170453        4.28138354204308
C           13.67487854658335        5.38010993192911        5.26632249810310
C           14.88590030226045        5.90370947206213        5.73499430798069
C           14.85939352697455        6.89511806209705        6.69920913370530
N           13.73170938672637        7.38279466126421        7.21079880739416
C           12.57646822720789        6.89028611993485        6.77076339761241
C           12.49351088879138        5.89870011970211        5.80963883701761
C           14.86235683168398        2.02459143564865        1.98294906084063
C           16.13580369022907        2.49101912587810        2.44777708451794
C           17.08521404638452        1.79920508869813        1.76534658634285
N           15.05275534985832        1.06401878310581        1.03284247319713
C           16.39716218024591        0.90648577554577        0.87996618602335
C           17.02616395654664        0.00785614707286       -0.00546238957344
C           16.36903552588090       -0.87902771325998       -0.88183464964496
C           17.02781876192600       -1.78713436015503       -1.77381498531940
C           16.05609855396547       -2.46152058741840       -2.44226928050670
C           14.79815722625849       -1.96828790449404       -1.96279764431103
N           15.01986497882101       -1.00980890084390       -1.01748597713601
C           13.53874283036996       -2.40973791039442       -2.40681249595308
C           13.51909019834417       -3.42174573141878       -3.39212156645870
C           13.49873112517767       -4.29674165988045       -4.23294800426822
C           13.46945465510747       -5.31701941662755       -5.21062302909887
C           14.64864120251391       -5.89244165069616       -5.69842392434725
C           14.56267700358854       -6.88997572558391       -6.65317259752577
N           13.40655989652433       -7.33602965908215       -7.13806726804412
C           12.28083451420693       -6.79398245785710       -6.67961007900706
C           12.25737706482913       -5.79240728681960       -5.72588297537460
C           12.29407647748046       -1.93337750938975       -1.95339534327626
C           11.01518626565490       -2.38926541757783       -2.42141659633144
C           10.07091371399015       -1.69117520287248       -1.74046120574708
C           10.76560082721372       -0.80381149240770       -0.85022112059287
N           12.11360892283280       -0.97571182420987       -1.00645836270306
H            9.07522359070680        0.09604042608775        0.03632144127859
H            9.05798863239995        1.95202282056921        1.90295523852805
H           10.97475993868257        3.28663613228991        3.24145119605578
H           15.82729592862003        5.53558515842376        5.34523978557676
H           15.78393956585656        7.31975557150021        7.07981556145891
H           11.67576141161874        7.31021581056195        7.20942944274667
H           11.53084338714956        5.52667277226744        5.48022296787892
H           16.27737202792673        3.25048909530219        3.20025612327504
H           18.15725344651109        1.88028702781452        1.84900805092809
H           18.09694575719660       -1.88970401163799       -1.87062426511368
H           16.17265145098541       -3.22520258204573       -3.19479552973730
H           15.61205221297345       -5.55985053775895       -5.33122283578379
H           15.46174173758425       -7.35403417807220       -7.04858718285794
H           11.35543040453330       -7.18091067639308       -7.09664322348109
H           11.31752015966567       -5.37906198922844       -5.38016236383159
H           10.86965146756024       -3.14671334244713       -3.17541888724940
H            8.99781197131375       -1.76222095081662       -1.82474202495421
Zn          32.21614484285122       -0.03956168670558       -0.03004694831510
C           35.63764230158955       -0.07315454056559       -0.05410304424206
C           35.00505953290157       -1.27339979037103       -0.35399312255311
C           35.67078387846872       -2.50653980754180       -0.66832410102873
C           34.70432750366930       -3.43105764284855       -0.90050870822898
C           33.44080521999629       -2.77014571687812       -0.72991426993770
N           33.65210054126975       -1.46924229134879       -0.39934456415173
C           32.18123941152736       -3.37907453682189       -0.88457230712897
C           32.16549992732008       -4.74597893804695       -1.24026541717651
C           32.15276094136469       -5.91889444873793       -1.55175042137688
C           32.12805639730883       -7.28412462069275       -1.91644890020687
C           30.91748621631475       -7.95900925114234       -2.11503575630832
C           30.94536591872829       -9.29534199164721       -2.47099783779193
N           32.07396483827844       -9.98101778885396       -2.63642883720023
C           33.22878107950621       -9.34678915225904       -2.44950845520655
C           33.31039933769044       -8.01269154816297       -2.09257566530500
C           30.93664044829668       -2.74539686070732       -0.71859924643681
C           29.66353363206936       -3.38505630991990       -0.87799918357833
C           28.71358810143734       -2.44459918695899       -0.63535622161999
N           30.74554959830966       -1.43669418832112       -0.38352072383690
C           29.40094919756514       -1.22551435653991       -0.32620392847959
C           28.77167401308404       -0.00415993515205       -0.01120203727894
C           29.42877599397939        1.20368843758247        0.29853148107632
C           28.76953603536750        2.43549444667205        0.61851163762331
C           29.74093603822079        3.35573661644717        0.85386060080869
C           30.99905427353320        2.69115414037487        0.67798342617454
N           30.77781811360432        1.38753345752475        0.34157702164281
C           32.25824829228939        3.29895535965366        0.82944842771506
C           32.27711960606661        4.66427549241169        1.19112703729464
C           32.29874855591247        5.83504841938912        1.51015351943083
C           32.32751220225435        7.19780037148562        1.88380821883532
C           31.14775665815750        7.91394758725622        2.11793729939403
C           31.23341104343881        9.24482494657250        2.48600881831427
N           32.38970875558666        9.88731714774412        2.63041871492597
C           33.51596685891382        9.21363110554387        2.40908032796178
C           33.53977342075977        7.88140634468262        2.03780905468550
C           33.50321979548411        2.66522123105846        0.65578845227444
C           34.78181185906330        3.30114478170847        0.80827499462667
C           35.72655206150276        2.35839725203826        0.56052220879032
C           35.03243411039678        1.13875128603165        0.25528726711414
N           33.68430399176720        1.36085212237085        0.32093284640075
H           36.72329635513691       -0.08334362951407       -0.06211171675991
H           36.74111860732932       -2.63627943598019       -0.70379624840472
H           34.82481518363782       -4.46998609170377       -1.16418234163089
H           29.97544499916918       -7.43854397159810       -1.99122104665436
H           30.02121696190115       -9.84296060447459       -2.63231738921174
H           34.13024992684722       -9.93584653146121       -2.59241833030112
H           34.27271400401770       -7.53580487340784       -1.95050528164475
H           29.52262869896185       -4.42133522774739       -1.14134360457968
H           27.64160888276783       -2.55887576759867       -0.66105216773897
H           27.70035469430275        2.57100028942334        0.65606537985786
H           29.62394418365299        4.39367631756492        1.12232570456547
H           30.18421956819314        7.43010894214453        2.01239221319838
H           30.33394411918226        9.82404688314219        2.67438182027126
H           34.44147823854102        9.76810385411416        2.53550739333859
H           34.47995819371720        7.37066820070098        1.86780897985432
H           34.92676619720621        4.33719998832575        1.07093362875267
H           36.79961110681929        2.46736407997251        0.57974893803777
C           18.43159739228397       -0.00214654879307       -0.01364172972984
C           19.65627770963925       -0.00319262170588       -0.01175202106699
C           20.99915504110581       -0.00082954676987       -0.01741786538230
C           22.22986259852606        0.00869015410680       -0.01390016212741
C           23.56798927161635        0.01172086899776       -0.01146543244967
C           24.79869633543338        0.01192650047278       -0.00701875378696
C           26.14157334455475        0.00926984887296       -0.00650541836604
C           27.36626165091611        0.00875730842745       -0.00582782916653

          :  Hamiltonian                  GFN1-xTB          :
         :: total energy            -218.382449229401 Eh    ::
         :: gradient norm              0.000813741223 Eh/a0 ::
         :: HOMO-LUMO gap              1.110323782764 eV    ::
         :: SCC energy              -222.253084391339 Eh    ::
         :: repulsion energy           3.971900243456 Eh    ::

    * Orbital Energies and Occupations

         #    Occupation            Energy/Eh            Energy/eV
      -------------------------------------------------------------
         1        2.0000           -0.7677608             -20.8918
       ...           ...                  ...                  ...
       189        2.0000           -0.4280001             -11.6465
       190        2.0000           -0.4238122             -11.5325
       191        2.0000           -0.4238079             -11.5324
       192        2.0000           -0.4184825             -11.3875
       193        2.0000           -0.4184802             -11.3874
       194        2.0000           -0.4184779             -11.3874
       195        2.0000           -0.4184751             -11.3873
       196        2.0000           -0.4157410             -11.3129
       197        2.0000           -0.4112431             -11.1905
       198        2.0000           -0.4007847             -10.9059
       199        2.0000           -0.4007843             -10.9059
       200        2.0000           -0.3902737             -10.6199
       201        2.0000           -0.3839933             -10.4490 (HOMO)
       202                         -0.3431896              -9.3387 (LUMO)
       203                         -0.3420478              -9.3076
       204                         -0.3420477              -9.3076
       205                         -0.3341527              -9.0928
       206                         -0.3151221              -8.5749
       207                         -0.3122888              -8.4978
       208                         -0.3012729              -8.1981
       209                         -0.2893997              -7.8750
       210                         -0.2868044              -7.8043
       211                         -0.2867984              -7.8042
       212                         -0.2802682              -7.6265
       ...                                ...                  ...
       428                          1.6018384              43.5882
      -------------------------------------------------------------
                  HL-Gap            0.0408036 Eh            1.1103 eV

Wiberg/Mayer (AO) data.
largest (>0.10) Wiberg bond orders for each atom

     #   Z sym  total        # sym  WBO       # sym  WBO       # sym  WBO
 ---------------------------------------------------------------------------
     1  30 Zn   1.990 --    41 N    0.457     7 N    0.456    20 N    0.455
                            27 N    0.454
     2   6 C    3.928 --    40 C    1.360     3 C    1.360    42 H    0.971
     3   6 C    3.912 --     2 C    1.360     7 N    1.223     4 C    1.173
     4   6 C    3.960 --     5 C    1.653     3 C    1.173    43 H    0.976
     5   6 C    3.962 --     4 C    1.653     6 C    1.179    44 H    0.974
     6   6 C    3.909 --     7 N    1.265     8 C    1.263     5 C    1.179
     7   7 N    3.292 --     6 C    1.265     3 C    1.223     1 Zn   0.456
     8   6 C    3.931 --    17 C    1.272     6 C    1.263     9 C    1.162
     9   6 C    3.957 --    10 C    2.622     8 C    1.162
    10   6 C    3.931 --     9 C    2.622    11 C    1.143
    11   6 C    3.987 --    16 C    1.350    12 C    1.349    10 C    1.143
    12   6 C    3.973 --    13 C    1.458    11 C    1.349    45 H    0.974
                            15 C    0.103
    13   6 C    3.973 --    12 C    1.458    14 N    1.406    46 H    0.972
                            16 C    0.103
    14   7 N    2.993 --    15 C    1.407    13 C    1.406
    15   6 C    3.973 --    16 C    1.457    14 N    1.407    47 H    0.972
                            12 C    0.103
    16   6 C    3.973 --    15 C    1.457    11 C    1.350    48 H    0.974
                            13 C    0.103
    17   6 C    3.902 --     8 C    1.272    20 N    1.243    18 C    1.187
    18   6 C    3.959 --    19 C    1.640    17 C    1.187    49 H    0.974
    19   6 C    3.961 --    18 C    1.640    21 C    1.189    50 H    0.974
    20   7 N    3.295 --    21 C    1.252    17 C    1.243     1 Zn   0.455
    21   6 C    3.891 --    22 C    1.255    20 N    1.252    19 C    1.189
    22   6 C    3.936 --    23 C    1.256    21 C    1.255   117 C    1.192
    23   6 C    3.891 --    22 C    1.256    27 N    1.252    24 C    1.189
    24   6 C    3.961 --    25 C    1.640    23 C    1.189    51 H    0.974
    25   6 C    3.959 --    24 C    1.640    26 C    1.187    52 H    0.974
    26   6 C    3.902 --    28 C    1.272    27 N    1.243    25 C    1.187
    27   7 N    3.294 --    23 C    1.252    26 C    1.243     1 Zn   0.454
    28   6 C    3.930 --    26 C    1.272    37 C    1.263    29 C    1.162
    29   6 C    3.957 --    30 C    2.622    28 C    1.162
    30   6 C    3.931 --    29 C    2.622    31 C    1.143
    31   6 C    3.987 --    32 C    1.350    36 C    1.349    30 C    1.143
    32   6 C    3.973 --    33 C    1.457    31 C    1.350    53 H    0.974
                            35 C    0.103
    33   6 C    3.973 --    32 C    1.457    34 N    1.407    54 H    0.972
                            36 C    0.103
    34   7 N    2.993 --    33 C    1.407    35 C    1.406
    35   6 C    3.973 --    36 C    1.458    34 N    1.406    55 H    0.972
                            32 C    0.103
    36   6 C    3.973 --    35 C    1.458    31 C    1.349    56 H    0.974
                            33 C    0.103
    37   6 C    3.909 --    41 N    1.265    28 C    1.263    38 C    1.179
    38   6 C    3.962 --    39 C    1.653    37 C    1.179    57 H    0.974
    39   6 C    3.960 --    38 C    1.653    40 C    1.173    58 H    0.976
    40   6 C    3.912 --     2 C    1.360    41 N    1.223    39 C    1.173
    41   7 N    3.292 --    37 C    1.265    40 C    1.223     1 Zn   0.457
    42   1 H    1.001 --     2 C    0.971
    43   1 H    0.998 --     4 C    0.976
    44   1 H    1.003 --     5 C    0.974
    45   1 H    1.002 --    12 C    0.974
    46   1 H    1.013 --    13 C    0.972
    47   1 H    1.013 --    15 C    0.972
    48   1 H    1.002 --    16 C    0.974
    49   1 H    1.003 --    18 C    0.974
    50   1 H    1.002 --    19 C    0.974
    51   1 H    1.002 --    24 C    0.974
    52   1 H    1.003 --    25 C    0.974
    53   1 H    1.002 --    32 C    0.974
    54   1 H    1.013 --    33 C    0.972
    55   1 H    1.013 --    35 C    0.972
    56   1 H    1.002 --    36 C    0.974
    57   1 H    1.003 --    38 C    0.974
    58   1 H    0.998 --    39 C    0.976
    59  30 Zn   1.990 --    99 N    0.457    65 N    0.456    78 N    0.455
                            85 N    0.454
    60   6 C    3.928 --    98 C    1.360    61 C    1.360   100 H    0.971
    61   6 C    3.912 --    60 C    1.360    65 N    1.223    62 C    1.173
    62   6 C    3.960 --    63 C    1.654    61 C    1.173   101 H    0.976
    63   6 C    3.962 --    62 C    1.654    64 C    1.179   102 H    0.974
    64   6 C    3.909 --    65 N    1.265    66 C    1.263    63 C    1.179
    65   7 N    3.292 --    64 C    1.265    61 C    1.223    59 Zn   0.456
    66   6 C    3.930 --    75 C    1.272    64 C    1.263    67 C    1.162
    67   6 C    3.957 --    68 C    2.622    66 C    1.162
    68   6 C    3.931 --    67 C    2.622    69 C    1.143
    69   6 C    3.987 --    74 C    1.350    70 C    1.349    68 C    1.143
    70   6 C    3.973 --    71 C    1.458    69 C    1.349   103 H    0.974
                            73 C    0.103
    71   6 C    3.973 --    70 C    1.458    72 N    1.406   104 H    0.972
                            74 C    0.103
    72   7 N    2.993 --    73 C    1.407    71 C    1.406
    73   6 C    3.973 --    74 C    1.457    72 N    1.407   105 H    0.972
                            70 C    0.103
    74   6 C    3.973 --    73 C    1.457    69 C    1.350   106 H    0.974
                            71 C    0.103
    75   6 C    3.902 --    66 C    1.272    78 N    1.243    76 C    1.187
    76   6 C    3.959 --    77 C    1.640    75 C    1.187   107 H    0.974
    77   6 C    3.961 --    76 C    1.640    79 C    1.189   108 H    0.974
    78   7 N    3.295 --    79 C    1.252    75 C    1.243    59 Zn   0.455
    79   6 C    3.891 --    80 C    1.255    78 N    1.252    77 C    1.189
    80   6 C    3.936 --    81 C    1.255    79 C    1.255   124 C    1.192
    81   6 C    3.891 --    80 C    1.255    85 N    1.252    82 C    1.189
    82   6 C    3.961 --    83 C    1.640    81 C    1.189   109 H    0.974
    83   6 C    3.959 --    82 C    1.640    84 C    1.187   110 H    0.974
    84   6 C    3.902 --    86 C    1.272    85 N    1.243    83 C    1.187
    85   7 N    3.294 --    81 C    1.252    84 C    1.243    59 Zn   0.454
    86   6 C    3.930 --    84 C    1.272    95 C    1.263    87 C    1.162
    87   6 C    3.957 --    88 C    2.622    86 C    1.162
    88   6 C    3.931 --    87 C    2.622    89 C    1.143
    89   6 C    3.987 --    90 C    1.350    94 C    1.349    88 C    1.143
    90   6 C    3.973 --    91 C    1.457    89 C    1.350   111 H    0.974
                            93 C    0.103
    91   6 C    3.973 --    90 C    1.457    92 N    1.407   112 H    0.972
                            94 C    0.103
    92   7 N    2.993 --    91 C    1.407    93 C    1.406
    93   6 C    3.973 --    94 C    1.458    92 N    1.406   113 H    0.972
                            90 C    0.103
    94   6 C    3.973 --    93 C    1.458    89 C    1.349   114 H    0.974
                            91 C    0.103
    95   6 C    3.909 --    99 N    1.265    86 C    1.263    96 C    1.179
    96   6 C    3.962 --    97 C    1.653    95 C    1.179   115 H    0.974
    97   6 C    3.960 --    96 C    1.653    98 C    1.173   116 H    0.976
    98   6 C    3.912 --    60 C    1.360    99 N    1.223    97 C    1.173
    99   7 N    3.292 --    95 C    1.265    98 C    1.223    59 Zn   0.457
   100   1 H    1.001 --    60 C    0.971
   101   1 H    0.998 --    62 C    0.976
   102   1 H    1.003 --    63 C    0.974
   103   1 H    1.002 --    70 C    0.974
   104   1 H    1.013 --    71 C    0.972
   105   1 H    1.013 --    73 C    0.972
   106   1 H    1.002 --    74 C    0.974
   107   1 H    1.003 --    76 C    0.974
   108   1 H    1.002 --    77 C    0.974
   109   1 H    1.002 --    82 C    0.974
   110   1 H    1.003 --    83 C    0.974
   111   1 H    1.002 --    90 C    0.974
   112   1 H    1.013 --    91 C    0.972
   113   1 H    1.013 --    93 C    0.972
   114   1 H    1.002 --    94 C    0.974
   115   1 H    1.003 --    96 C    0.974
   116   1 H    0.998 --    97 C    0.976
   117   6 C    3.877 --   118 C    2.440    22 C    1.192   120 C    0.187
   118   6 C    3.934 --   117 C    2.440   119 C    1.343
   119   6 C    3.893 --   120 C    2.337   118 C    1.343   122 C    0.182
   120   6 C    3.925 --   119 C    2.337   121 C    1.368   117 C    0.187
   121   6 C    3.925 --   122 C    2.337   120 C    1.368   124 C    0.187
   122   6 C    3.893 --   121 C    2.337   123 C    1.343   119 C    0.182
   123   6 C    3.934 --   124 C    2.440   122 C    1.343
   124   6 C    3.877 --   123 C    2.440    80 C    1.192   121 C    0.187
 ---------------------------------------------------------------------------

           -------------------------------------------------
          | TOTAL ENERGY             -218.382449229401 Eh   |
          | GRADIENT NORM               0.000813741223 Eh/α |
          | HOMO-LUMO GAP               1.110323782764 eV   |
           -------------------------------------------------

 * finished run on 2022/07/30 at 11:07:24.418
