   * xtb version 6.5.1 (b24c23e) compiled by 'conda@728c89f4b128' on 2022-07-12
          program call               : xtb Ni_m-CP_C2_2.xyz --gfn 1 --opt -T 48

   ID    Z sym.   atoms
    1   28 Ni     1, 63
    2    6 C      2-6, 8-12, 15-20, 22-27, 29-35, 38-42, 64-68, 70-74, 77-82,
                  84-89, 91-97, 100-104, 125, 126
    3    7 N      7, 21, 28, 43, 69, 83, 90, 105
    4    8 O      13, 14, 36, 37, 75, 76, 98, 99
    5    1 H      44-62, 106-124
########################################################################
[WARNING] Please study the warnings concerning your input carefully
-1- prog_main_parseArguments: Unknown option '-T' provided
########################################################################

          :  Hamiltonian                  GFN1-xTB          :
 * total energy  :  -239.3730048 Eh     change       -0.1225089E-08 Eh
 * total energy  :  -239.7109580 Eh     change       -0.3379532E+00 Eh
 * total energy  :  -239.8153589 Eh     change       -0.1044009E+00 Eh
 * total energy  :  -239.8627100 Eh     change       -0.4735112E-01 Eh
 * total energy  :  -239.8830237 Eh     change       -0.2031369E-01 Eh
 * total energy  :  -239.8935623 Eh     change       -0.1053859E-01 Eh
 * total energy  :  -239.8998253 Eh     change       -0.6263022E-02 Eh
 * total energy  :  -239.9038324 Eh     change       -0.4007085E-02 Eh
 * total energy  :  -239.9064244 Eh     change       -0.2591985E-02 Eh
 * total energy  :  -239.9083561 Eh     change       -0.1931732E-02 Eh
 * total energy  :  -239.9131251 Eh     change       -0.1431380E-04 Eh
 * total energy  :  -239.9131347 Eh     change       -0.9655814E-05 Eh
 * total energy  :  -239.9131426 Eh     change       -0.7922437E-05 Eh
 * total energy  :  -239.9131506 Eh     change       -0.7975317E-05 Eh
 * total energy  :  -239.9131597 Eh     change       -0.9049520E-05 Eh
 * total energy  :  -239.9131691 Eh     change       -0.9423988E-05 Eh
 * total energy  :  -239.9131798 Eh     change       -0.1075371E-04 Eh
 * total energy  :  -239.9131865 Eh     change       -0.6628599E-05 Eh
 * total energy  :  -239.9131905 Eh     change       -0.4071249E-05 Eh
   *** GEOMETRY OPTIMIZATION CONVERGED AFTER 57 ITERATIONS ***

 final structure:
================
126
 xtb: 6.5.1 (b24c23e)
Ni          17.04573831535976        0.01673323342089        0.05951717944813
C           13.66014509537965        0.00700665813118        0.20590629387528
C           14.30519952194984        1.22647667100354        0.19012277461786
C           13.62635874522837        2.48663030591867        0.18784826588589
C           14.58066476240029        3.44249797614635        0.27410856780450
C           15.84196211411000        2.76408651450197        0.35033910807875
N           15.66443393756932        1.40668190559966        0.24988170378582
C           17.05585641420335        3.39700179963018        0.58304596954548
C           17.07132212343592        4.86458305905932        0.79121939304330
C           16.36881360967542        5.44057363072405        1.84566987863140
C           16.39051938637525        6.82134931868519        2.03857427788140
C           15.62421513200099        7.37488172679088        3.18336445673131
O           15.72149893899450        8.70728922874400        3.29949114304401
O           14.96981305139570        6.71234866934642        3.94706490473936
C           17.11566214728376        7.63767319011445        1.17066651928420
C           17.81468479730360        7.06643383451707        0.11883801727203
C           17.79646701489477        5.69187679719964       -0.06998276586191
C           18.26055361785065        2.70728155506951        0.64247021817638
C           19.51143573742748        3.31211047188112        0.98638894074606
C           20.46065456591591        2.35597735905312        0.84167577991549
N           18.43819528546632        1.37872044947465        0.33380851178167
C           19.78951913948299        1.17241872010134        0.40802572105143
C           20.45437314968740        0.00934710734287        0.01245254269745
C           19.77431198574147       -1.14358698571277       -0.38823147428570
C           20.42754080890589       -2.31550840047384       -0.87697671735751
C           19.46740502133933       -3.25737046582390       -1.04286203543424
C           18.22960028322237       -2.65940656034068       -0.64391906242892
N           18.42388670684783       -1.34311995447119       -0.29256033195875
C           17.02717163999326       -3.34909857615334       -0.55254385002571
C           17.02164751035323       -4.80696099760331       -0.82128465000314
C           17.79211466173753       -5.67283437141605       -0.04171683411145
C           17.78831013855503       -7.03866529550916       -0.28806877769723
C           17.01921841865467       -7.55661744797402       -1.31668072694794
C           16.24576183075114       -6.70155886787064       -2.10325182855306
C           15.43655369523253       -7.29528797409192       -3.19713979068982
O           14.71990245461588       -6.39438531912110       -3.88473290553107
O           15.40873047946839       -8.47022097006508       -3.46043315447236
C           16.24650761196225       -5.33068252704135       -1.85368501858265
C           15.83265178788750       -2.72811771792832       -0.21027096591824
C           14.58632381590617       -3.41731653977342       -0.04267759079191
C           13.64157417294070       -2.47214703629979        0.17285083227178
C           14.31158742009656       -1.20767416479090        0.14547246034800
N           15.65995661290559       -1.37644904157263       -0.04873326609764
H           12.57775034688961        0.00309222071512        0.25896914962585
H           12.55620986450568        2.60401203640814        0.12615597075113
H           14.45515402032235        4.51290224642338        0.28893120484921
H           15.81117271330632        4.82045738643482        2.53894329812644
H           15.19636882889846        8.98937895535676        4.06606424160744
H           17.12915991557121        8.71033953829044        1.32110797250426
H           18.37821603018607        7.69522468061364       -0.56120818597361
H           18.33728612396474        5.25188196657970       -0.90046125440001
H           19.63590578519601        4.33354173035509        1.30702648015093
H           21.52244079474542        2.43262643659812        1.01011634332809
H           21.48504142404010       -2.39267057498556       -1.07044834363514
H           19.57771315734099       -4.26585618666876       -1.40683474923032
H           18.38540133105876       -5.27047203251903        0.77179330176054
H           18.38785057103584       -7.69890861565683        0.32820609784697
H           17.00544506918794       -8.62070119545975       -1.52382350018972
H           14.22274810575483       -6.85948569818733       -4.57707920863215
H           15.65522072166921       -4.66759428263223       -2.47402246400431
H           14.46408478798024       -4.48747921878380       -0.08363592805209
H           12.58296982807373       -2.59928361166778        0.33408370021905
Ni          27.89708461173249       -0.03543794123423        0.05196649266767
C           31.28273860427073       -0.07376415195958        0.19251399966180
C           30.63765964758690       -1.22135620257494       -0.22023418661482
C           31.31651188534651       -2.41186265707349       -0.63335359941739
C           30.36221183409910       -3.34357893194936       -0.86364448175023
C           29.10090006118372       -2.72712697239277       -0.57038693400622
N           29.27841307057421       -1.41119981066825       -0.22251085072788
C           27.88702463796266       -3.40136812635430       -0.55688133245287
C           27.87158434394163       -4.85658305883477       -0.83881965226198
C           28.57395743927172       -5.74505929825402       -0.02986107985810
C           28.55236857280908       -7.11320992193821       -0.29803171622720
C           29.31915255348513       -8.00995803706637        0.60331661163729
O           29.22147569590684       -9.30731720041394        0.27858894810936
O           29.97296749614087       -7.63277154620678        1.54172027873755
C           27.82727454025290       -7.60174593002403       -1.38478465735408
C           27.12836261997729       -6.71861875021466       -2.19279520441900
C           27.14657348387788       -5.35766232974455       -1.92288090865007
C           26.68230062477280       -2.76879507770055       -0.27578334985093
C           25.43141960832560       -3.45274015422679       -0.14799920948305
C           24.48219486010725       -2.50170395088909        0.02708113729813
N           26.50465725458761       -1.41224344606889       -0.13406171563779
C           25.15333250423297       -1.24142829745204        0.00326563486584
C           24.48851155919220       -0.01292764125252        0.00872524600573
C           25.16860587257672        1.20762788964525        0.00595963503163
C           24.51536844382965        2.47486770746274       -0.07377933416065
C           25.47549716377457        3.41933391213030        0.07659363849570
C           26.71331717188625        2.72396506554994        0.25862505195072
N           26.51904449604403        1.36503064710865        0.16151858199474
C           27.91571718481014        3.34616422305503        0.57000463442288
C           27.92122118685802        4.81195458810272        0.79147021418898
C           27.15076045785588        5.37619977764026        1.81083557516288
C           27.15454637360190        6.74769003200005        2.02343620712148
C           27.92361958762932        7.57281997432868        1.22000134224371
C           28.69709722887659        7.02107748548755        0.19756714842967
C           29.50639330889438        7.93912510574401       -0.64276968913182
O           30.22297364231475        7.31177933118752       -1.58666225718784
O           29.53409843458650        9.13569198023690       -0.50851530653543
C           28.69635275423117        5.64377153523822       -0.01365332235683
C           29.11025054818442        2.64754153696339        0.69105550349483
C           30.35655210293547        3.24439294167307        1.07435234410205
C           31.30130726771257        2.28060826222300        0.96989212296978
C           30.63131914348826        1.09422166864859        0.53153177056769
N           29.28295625193570        1.31709384035330        0.40300559058967
H           32.36512924787657       -0.08741496840531        0.24401721247336
H           32.38666747152136       -2.50272139766470       -0.72986855949060
H           30.48773865765271       -4.36028813362156       -1.19872953894288
H           29.13160732787206       -5.38504077327693        0.82778914771624
H           29.74626608452094       -9.82401906190213        0.91145741789057
H           27.81385490854388       -8.66480554121697       -1.59253075204728
H           26.56485375270767       -7.09116192536809       -3.04078228591371
H           26.60575385363896       -4.67082189873537       -2.56440282299618
H           25.30695249354229       -4.52289383047099       -0.17810577213706
H           23.42040740825510       -2.62910924014510        0.16129827302642
H           23.45785540306726        2.61090820827030       -0.23143276553824
H           25.36516989335542        4.49138120849282        0.06151374408024
H           26.55749086603122        4.73049512646370        2.44862826020274
H           26.55503462364031        7.17081125690479        2.82137858396923
H           27.93741183542788        8.64627121715776        1.37127493496366
H           30.72007742022536        7.97727544799776       -2.08947293582073
H           29.28764723941819        5.21928190773852       -0.81634021927066
H           30.47876430734073        4.26938695534202        1.38470589849390
H           32.35989415252965        2.34819624439437        1.16387392034994
C           21.86346876063122        0.00221423587068        0.00714991642721
C           23.07941510930668       -0.00442087083089        0.00602158341926

          :  Hamiltonian                  GFN1-xTB          :
         :: total energy            -239.913190549329 Eh    ::
         :: gradient norm              0.000618056575 Eh/a0 ::
         :: HOMO-LUMO gap              1.227121686155 eV    ::
         :: SCC energy              -243.265341836216 Eh    ::
         :: repulsion energy           3.467519914733 Eh    ::

    * Orbital Energies and Occupations

         #    Occupation            Energy/Eh            Energy/eV
      -------------------------------------------------------------
         1        2.0000           -0.8347859             -22.7157
       ...           ...                  ...                  ...
       201        2.0000           -0.4356049             -11.8534
       202        2.0000           -0.4056507             -11.0383
       203        2.0000           -0.4051799             -11.0255
       204        2.0000           -0.4051570             -11.0249
       205        2.0000           -0.4049417             -11.0190
       206        2.0000           -0.4047715             -11.0144
       207        2.0000           -0.4039279             -10.9914
       208        2.0000           -0.4039254             -10.9914
       209        2.0000           -0.4028330             -10.9616
       210        2.0000           -0.4028314             -10.9616
       211        2.0000           -0.4027414             -10.9592
       212        2.0000           -0.4027407             -10.9591
       213        2.0000           -0.3918183             -10.6619 (HOMO)
       214                         -0.3467224              -9.4348 (LUMO)
       215                         -0.3374104              -9.1814
       216                         -0.3374000              -9.1811
       217                         -0.3340171              -9.0891
       218                         -0.3339596              -9.0875
       219                         -0.3302171              -8.9857
       220                         -0.3137938              -8.5388
       221                         -0.3132949              -8.5252
       222                         -0.3126983              -8.5090
       223                         -0.3126695              -8.5082
       224                         -0.3042894              -8.2801
       ...                                ...                  ...
       438                          1.3372029              36.3871
      -------------------------------------------------------------
                  HL-Gap            0.0450959 Eh            1.2271 eV

Wiberg/Mayer (AO) data.
largest (>0.10) Wiberg bond orders for each atom

     #   Z sym  total        # sym  WBO       # sym  WBO       # sym  WBO
 ---------------------------------------------------------------------------
     1  28 Ni   3.021 --     7 N    0.665    43 N    0.665    21 N    0.662
                            28 N    0.661
     2   6 C    3.936 --    42 C    1.364     3 C    1.364    44 H    0.970
     3   6 C    3.922 --     2 C    1.364     7 N    1.213     4 C    1.174
     4   6 C    3.960 --     5 C    1.651     3 C    1.174    45 H    0.975
     5   6 C    3.963 --     4 C    1.651     6 C    1.175    46 H    0.972
     6   6 C    3.921 --     8 C    1.326     7 N    1.220     5 C    1.175
     7   7 N    3.402 --     6 C    1.220     3 C    1.213     1 Ni   0.665
     8   6 C    3.938 --     6 C    1.326    18 C    1.324     9 C    1.027
     9   6 C    3.988 --    10 C    1.408    17 C    1.387     8 C    1.027
                            15 C    0.102
    10   6 C    3.984 --     9 C    1.408    11 C    1.396    47 H    0.968
                            16 C    0.104
    11   6 C    3.988 --    10 C    1.396    15 C    1.391    12 C    1.005
                            17 C    0.100
    12   6 C    3.836 --    14 O    1.693    13 O    1.090    11 C    1.005
    13   8 O    2.099 --    12 C    1.090    48 H    0.838    14 O    0.129
    14   8 O    1.962 --    12 C    1.693    13 O    0.129
    15   6 C    3.987 --    16 C    1.447    11 C    1.391    49 H    0.970
                             9 C    0.102
    16   6 C    3.994 --    15 C    1.447    17 C    1.442    50 H    0.972
                            10 C    0.104
    17   6 C    3.987 --    16 C    1.442     9 C    1.387    51 H    0.973
                            11 C    0.100
    18   6 C    3.916 --     8 C    1.324    21 N    1.210    19 C    1.184
    19   6 C    3.959 --    20 C    1.634    18 C    1.184    52 H    0.973
    20   6 C    3.962 --    19 C    1.634    22 C    1.192    53 H    0.970
    21   7 N    3.405 --    22 C    1.233    18 C    1.210     1 Ni   0.662
    22   6 C    3.909 --    23 C    1.270    21 N    1.233    20 C    1.192
    23   6 C    3.945 --    22 C    1.270    24 C    1.268   125 C    1.170
    24   6 C    3.909 --    23 C    1.268    28 N    1.236    25 C    1.192
    25   6 C    3.962 --    26 C    1.634    24 C    1.192    54 H    0.970
    26   6 C    3.959 --    25 C    1.634    27 C    1.184    55 H    0.973
    27   6 C    3.917 --    29 C    1.326    28 N    1.208    26 C    1.184
    28   7 N    3.405 --    24 C    1.236    27 C    1.208     1 Ni   0.661
    29   6 C    3.938 --    27 C    1.326    39 C    1.324    30 C    1.027
    30   6 C    3.988 --    38 C    1.406    31 C    1.388    29 C    1.027
                            33 C    0.102
    31   6 C    3.987 --    32 C    1.440    30 C    1.388    56 H    0.972
                            34 C    0.100
    32   6 C    3.994 --    33 C    1.450    31 C    1.440    57 H    0.972
                            38 C    0.104
    33   6 C    3.985 --    32 C    1.450    34 C    1.388    58 H    0.969
                            30 C    0.102
    34   6 C    3.988 --    38 C    1.400    33 C    1.388    35 C    1.005
                            31 C    0.100
    35   6 C    3.836 --    37 O    1.693    36 O    1.090    34 C    1.005
    36   8 O    2.099 --    35 C    1.090    59 H    0.838    37 O    0.129
    37   8 O    1.961 --    35 C    1.693    36 O    0.129
    38   6 C    3.985 --    30 C    1.406    34 C    1.400    60 H    0.969
                            32 C    0.104
    39   6 C    3.921 --    29 C    1.324    43 N    1.221    40 C    1.176
    40   6 C    3.963 --    41 C    1.650    39 C    1.176    61 H    0.973
    41   6 C    3.960 --    40 C    1.650    42 C    1.174    62 H    0.975
    42   6 C    3.922 --     2 C    1.364    43 N    1.212    41 C    1.174
    43   7 N    3.402 --    39 C    1.221    42 C    1.212     1 Ni   0.665
    44   1 H    1.000 --     2 C    0.970
    45   1 H    0.997 --     4 C    0.975
    46   1 H    1.003 --     5 C    0.972
    47   1 H    1.007 --    10 C    0.968
    48   1 H    0.873 --    13 O    0.838
    49   1 H    1.005 --    15 C    0.970
    50   1 H    1.002 --    16 C    0.972
    51   1 H    1.004 --    17 C    0.973
    52   1 H    1.004 --    19 C    0.973
    53   1 H    1.005 --    20 C    0.970
    54   1 H    1.005 --    25 C    0.970
    55   1 H    1.004 --    26 C    0.973
    56   1 H    1.004 --    31 C    0.972
    57   1 H    1.002 --    32 C    0.972
    58   1 H    1.005 --    33 C    0.969
    59   1 H    0.873 --    36 O    0.838
    60   1 H    1.007 --    38 C    0.969
    61   1 H    1.003 --    40 C    0.973
    62   1 H    0.997 --    41 C    0.975
    63  28 Ni   3.021 --    69 N    0.665   105 N    0.665    83 N    0.662
                            90 N    0.661
    64   6 C    3.936 --   104 C    1.364    65 C    1.364   106 H    0.970
    65   6 C    3.922 --    64 C    1.364    69 N    1.213    66 C    1.174
    66   6 C    3.960 --    67 C    1.651    65 C    1.174   107 H    0.975
    67   6 C    3.963 --    66 C    1.651    68 C    1.175   108 H    0.972
    68   6 C    3.921 --    70 C    1.326    69 N    1.220    67 C    1.175
    69   7 N    3.402 --    68 C    1.220    65 C    1.213    63 Ni   0.665
    70   6 C    3.938 --    68 C    1.326    80 C    1.324    71 C    1.027
    71   6 C    3.988 --    72 C    1.408    79 C    1.387    70 C    1.027
                            77 C    0.102
    72   6 C    3.984 --    71 C    1.408    73 C    1.396   109 H    0.968
                            78 C    0.104
    73   6 C    3.988 --    72 C    1.396    77 C    1.392    74 C    1.004
                            79 C    0.100
    74   6 C    3.836 --    76 O    1.693    75 O    1.090    73 C    1.004
    75   8 O    2.099 --    74 C    1.090   110 H    0.838    76 O    0.129
    76   8 O    1.962 --    74 C    1.693    75 O    0.129
    77   6 C    3.987 --    78 C    1.447    73 C    1.392   111 H    0.970
                            71 C    0.102
    78   6 C    3.994 --    77 C    1.447    79 C    1.442   112 H    0.972
                            72 C    0.104
    79   6 C    3.987 --    78 C    1.442    71 C    1.387   113 H    0.973
                            73 C    0.100
    80   6 C    3.916 --    70 C    1.324    83 N    1.210    81 C    1.184
    81   6 C    3.959 --    82 C    1.634    80 C    1.184   114 H    0.973
    82   6 C    3.962 --    81 C    1.634    84 C    1.192   115 H    0.970
    83   7 N    3.405 --    84 C    1.233    80 C    1.210    63 Ni   0.662
    84   6 C    3.909 --    85 C    1.270    83 N    1.233    82 C    1.192
    85   6 C    3.945 --    84 C    1.270    86 C    1.268   126 C    1.170
    86   6 C    3.909 --    85 C    1.268    90 N    1.236    87 C    1.192
    87   6 C    3.962 --    88 C    1.634    86 C    1.192   116 H    0.970
    88   6 C    3.959 --    87 C    1.634    89 C    1.184   117 H    0.973
    89   6 C    3.917 --    91 C    1.326    90 N    1.207    88 C    1.184
    90   7 N    3.405 --    86 C    1.236    89 C    1.207    63 Ni   0.661
    91   6 C    3.938 --    89 C    1.326   101 C    1.324    92 C    1.027
    92   6 C    3.988 --   100 C    1.406    93 C    1.388    91 C    1.027
                            95 C    0.102
    93   6 C    3.987 --    94 C    1.440    92 C    1.388   118 H    0.972
                            96 C    0.100
    94   6 C    3.994 --    95 C    1.450    93 C    1.440   119 H    0.972
                           100 C    0.104
    95   6 C    3.985 --    94 C    1.450    96 C    1.388   120 H    0.969
                            92 C    0.102
    96   6 C    3.988 --   100 C    1.400    95 C    1.388    97 C    1.005
                            93 C    0.100
    97   6 C    3.836 --    99 O    1.693    98 O    1.090    96 C    1.005
    98   8 O    2.099 --    97 C    1.090   121 H    0.838    99 O    0.129
    99   8 O    1.961 --    97 C    1.693    98 O    0.129
   100   6 C    3.985 --    92 C    1.406    96 C    1.400   122 H    0.969
                            94 C    0.104
   101   6 C    3.921 --    91 C    1.324   105 N    1.221   102 C    1.176
   102   6 C    3.963 --   103 C    1.650   101 C    1.176   123 H    0.973
   103   6 C    3.960 --   102 C    1.650   104 C    1.174   124 H    0.975
   104   6 C    3.922 --    64 C    1.364   105 N    1.212   103 C    1.174
   105   7 N    3.402 --   101 C    1.221   104 C    1.212    63 Ni   0.665
   106   1 H    1.000 --    64 C    0.970
   107   1 H    0.997 --    66 C    0.975
   108   1 H    1.003 --    67 C    0.972
   109   1 H    1.007 --    72 C    0.968
   110   1 H    0.873 --    75 O    0.838
   111   1 H    1.005 --    77 C    0.970
   112   1 H    1.002 --    78 C    0.972
   113   1 H    1.004 --    79 C    0.973
   114   1 H    1.004 --    81 C    0.973
   115   1 H    1.005 --    82 C    0.970
   116   1 H    1.005 --    87 C    0.970
   117   1 H    1.004 --    88 C    0.973
   118   1 H    1.004 --    93 C    0.972
   119   1 H    1.002 --    94 C    0.972
   120   1 H    1.005 --    95 C    0.969
   121   1 H    0.873 --    98 O    0.838
   122   1 H    1.007 --   100 C    0.969
   123   1 H    1.003 --   102 C    0.973
   124   1 H    0.997 --   103 C    0.975
   125   6 C    3.937 --   126 C    2.588    23 C    1.170
   126   6 C    3.937 --   125 C    2.588    85 C    1.170
 ---------------------------------------------------------------------------

           -------------------------------------------------
          | TOTAL ENERGY             -239.913190549329 Eh   |
          | GRADIENT NORM               0.000618056575 Eh/α |
          | HOMO-LUMO GAP               1.227121686155 eV   |
           -------------------------------------------------

 * finished run on 2022/07/30 at 04:41:56.793
