   * xtb version 6.5.1 (b24c23e) compiled by 'conda@728c89f4b128' on 2022-07-12
          program call               : xtb Cu_BSA_C4_3.xyz --gfn 1 --opt -T 48

   ID    Z sym.   atoms
    1   29 Cu     1, 65, 137
    2    6 C      2-6, 8-12, 17-21, 23-28, 30-34, 39-44, 66-70, 72-76, 81-85,
                  87-92, 94-98, 103-108, 129-136, 138-142, 144-148, 153-157,
                  159-164, 166-170, 175-180
    3    7 N      7, 22, 29, 45, 71, 86, 93, 109, 143, 158, 165, 181
    4   16 S      13, 35, 77, 99, 149, 171
    5    8 O      14-16, 36-38, 78-80, 100-102, 150-152, 172-174
    6    1 H      46-64, 110-128, 182-199

          :  Hamiltonian                  GFN1-xTB          :
 * total energy  :  -407.0461362 Eh     change       -0.1299554E-08 Eh
 * total energy  :  -407.3656662 Eh     change       -0.3195300E+00 Eh
 * total energy  :  -407.5236693 Eh     change       -0.1580031E+00 Eh
 * total energy  :  -407.6033860 Eh     change       -0.7971679E-01 Eh
 * total energy  :  -407.6693410 Eh     change       -0.6595500E-01 Eh
 * total energy  :  -407.7196724 Eh     change       -0.5033138E-01 Eh
 * total energy  :  -407.7453401 Eh     change       -0.2566767E-01 Eh
 * total energy  :  -407.7636910 Eh     change       -0.1835093E-01 Eh
 * total energy  :  -407.7763743 Eh     change       -0.1268326E-01 Eh
 * total energy  :  -407.7917882 Eh     change       -0.1541389E-01 Eh
 * total energy  :  -407.8981953 Eh     change       -0.2943702E-04 Eh
 * total energy  :  -407.8982122 Eh     change       -0.1683353E-04 Eh
 * total energy  :  -407.8982082 Eh     change        0.3983447E-05 Eh
 * total energy  :  -407.8982299 Eh     change       -0.2175192E-04 Eh
 * total energy  :  -407.8982383 Eh     change       -0.8317327E-05 Eh
 * total energy  :  -407.8982502 Eh     change       -0.1196070E-04 Eh
 * total energy  :  -407.8982558 Eh     change       -0.5553930E-05 Eh
 * total energy  :  -407.8982614 Eh     change       -0.5619068E-05 Eh
 * total energy  :  -407.8982648 Eh     change       -0.3422265E-05 Eh
   *** GEOMETRY OPTIMIZATION CONVERGED AFTER 66 ITERATIONS ***

 final structure:
================
199
 xtb: 6.5.1 (b24c23e)
Cu          33.99704259076855        0.05315311915893        0.01471849745625
C           30.59243394374565        0.11619022240599        0.05964108332305
C           31.22639966848020       -0.19512393523144        1.25296157366912
C           30.55040045987130       -0.52607789033151        2.47516975844704
C           31.50823479214936       -0.76296439294168        3.40485996299711
C           32.77936862162461       -0.56622752819435        2.76124262284953
N           32.57700793553632       -0.23166192374889        1.45353378215534
C           34.02473020368913       -0.71337555311030        3.37594126760955
C           34.04197864725790       -1.05553304868470        4.81952319258510
C           33.49509483318996       -0.18025381999065        5.76095652487822
C           33.51978663662407       -0.49347805461753        7.11013792689712
C           34.09056352482263       -1.69280537464020        7.50412002970048
S           34.13800828294787       -2.08977094011923        9.21104169583742
O           34.06134994673655       -0.90346291623725       10.01196144242033
O           32.71423763353214       -2.86512882093612        9.31313196379427
O           35.18081532214379       -3.03418582146262        9.48630981847873
C           34.64005789761249       -2.58176028391985        6.59454892420889
C           34.61441319054237       -2.25575075795324        5.24872735871070
C           35.25901442474630       -0.56502053384828        2.73909783609287
C           36.53592295357967       -0.64685902446420        3.39122184595414
C           37.48173812150593       -0.44111950213853        2.44053006672137
N           35.44652887553299       -0.29718121240600        1.41012799279591
C           36.79085506089967       -0.22569525845061        1.20426280165919
C           37.42486114480002        0.00367317838656       -0.02738615733868
C           36.76811271619646        0.24745333548976       -1.24419380357300
C           37.43454476916982        0.43983204156210       -2.49751145656934
C           36.47183719419094        0.66717826483737       -3.42622448197610
C           35.20942679892135        0.62358337177762       -2.74304804372265
N           35.42171991725165        0.35521689409210       -1.41786836523790
C           33.96455168125576        0.80732596922459       -3.34919597965587
C           33.95353401855342        1.13635852111185       -4.79593220418490
C           33.34883509228789        0.27197133612159       -5.71173727081545
C           33.34045594932643        0.57314607908541       -7.06384329918376
C           33.93961403639033        1.74836254786639       -7.48701501685875
S           33.92405731286762        2.14141939394251       -9.19570769853184
O           34.05503528160799        3.55468555271092       -9.40089803167191
O           35.33490243839739        1.45378163601592       -9.61495568675354
O           32.86133380784656        1.44716630890913       -9.85914259328630
C           34.54086961998402        2.62912415491960       -6.60243251816689
C           34.54724482807749        2.31556967669566       -5.25337618151107
C           32.73139835703470        0.70771667458795       -2.70110211121679
C           31.45188529892064        0.95009051917294       -3.31185933409910
C           30.51091818662082        0.75440329177138       -2.35584022012959
C           31.20610642915710        0.40183772587414       -1.15053716793543
N           32.55138820477486        0.38623213352538       -1.38687131785191
H           29.50767601279286        0.13716135661384        0.07392969181979
H           29.47919879186002       -0.57634272262596        2.59010137549005
H           31.37383129943975       -1.05581643943580        4.43370963465834
H           33.06535938176793        0.75904750093795        5.43295564781920
H           33.11057865843594        0.18337074701965        7.84958793590664
H           32.57121013941159       -3.18361990312428       10.21266116551241
H           35.08296692558623       -3.50817430730593        6.93796615435657
H           35.03110770347774       -2.94068436495373        4.51947317094032
H           36.68536353135580       -0.82370155081125        4.44398236752328
H           38.55350832011218       -0.42821090645503        2.55723853089711
H           38.50250456433466        0.39705882743048       -2.63960670952723
H           36.60048544048422        0.83645364819210       -4.48300790154940
H           32.89560046642627       -0.64789983242507       -5.36108148791620
H           32.87496793199600       -0.08986162347401       -7.78221344682324
H           35.61587137162125        1.77412273240371      -10.48050798167655
H           34.98876682300530        3.54535205197315       -6.96623721066984
H           35.00223203978647        2.99625669243883       -4.54328604297837
H           31.30126737218293        1.24407896849483       -4.33810562794119
H           29.43978260112228        0.84565297557824       -2.44251714052947
Cu          60.94403697281880        0.03839719460722       -0.01119453026728
C           64.34881305861506        0.12651815249893       -0.02941169295767
C           63.71415926420745        0.27465112287304       -1.25320274896265
C           64.38986942756530        0.42419162441340       -2.51059401726407
C           63.43175553238165        0.53574921986373       -3.46316145429581
C           62.16076139506715        0.46636306711807       -2.79379493263109
N           62.36321523673131        0.30106290313101       -1.45404302063026
C           60.91590686366385        0.53239286918333       -3.42293627078588
C           60.89971344637407        0.74486160390978       -4.89146514215047
C           61.41900791228826        1.92033177037882       -5.43923203547220
C           61.39439442965744        2.12893512198673       -6.80844464327124
C           60.85201597864619        1.14658310673069       -7.62094922152871
S           60.80462007899038        1.40996802949177       -9.35360303879363
O           60.84432830856749        2.81051358085148       -9.65544231695847
O           62.24708722750503        0.76516280709132       -9.73042315445182
O           59.78615026383589        0.60735885790009       -9.96506399048957
C           60.33101234326321       -0.03014115946176       -7.10779610387445
C           60.35586344552533       -0.22550848661058       -5.73677439229666
C           59.68210135313072        0.41787677189081       -2.77901302216120
C           58.40449884672744        0.55017120886995       -3.42118180369210
C           57.45892767923041        0.39394720568157       -2.46101855988518
N           59.49521968983147        0.19517871110114       -1.44136562665120
C           58.15057834437256        0.17298910411474       -1.22621317901052
C           57.51653496992508       -0.03111025974866        0.00965751445024
C           58.17338948183918       -0.21528187769329        1.23667255698222
C           57.50622165546589       -0.46912330131639        2.47851400532689
C           58.46911616660774       -0.59431879795570        3.42610403516229
C           59.73243114120670       -0.40679290475240        2.76963429261336
N           59.52038406324522       -0.18565049964501        1.43546604478670
C           60.97775008379859       -0.46844063540247        3.39867643223073
C           60.99065761697238       -0.69002993110389        4.86577149490335
C           61.58380871911348       -1.83669843843346        5.39952974184483
C           61.59492364127432       -2.05117880793290        6.76801561492070
C           61.00992054390517       -1.10530977451911        7.59402319868955
S           61.03082693339781       -1.36457359591362        9.32808567406917
O           60.91626161803791       -0.12310397805590       10.03663668995507
O           59.61252715078140       -2.14311192866540        9.47453292931395
O           62.08637491844709       -2.26420568111592        9.68584320230596
C           60.42016662969018        0.04494914362138        7.09525692685022
C           60.41117767423981        0.24698323720739        5.72501393657941
C           62.21071861606867       -0.33691113726225        2.75616430102539
C           63.49074910080051       -0.34047355968371        3.41199603440695
C           64.43134798774730       -0.17355836938330        2.45022274290499
C           63.73545657198607       -0.05687373281960        1.20039183175481
N           62.38996858336566       -0.15629475910994        1.41508099451511
H           65.43342574769090        0.15601337536087       -0.03475404049931
H           65.46119189328503        0.43154080243986       -2.63468961952646
H           63.56565208859558        0.64392764851326       -4.52745517577928
H           61.82695171112755        2.68160124318240       -4.78454919532402
H           61.78181380041028        3.04196761819556       -7.24274923690350
H           62.37734433915659        0.77420517665050      -10.68646297431214
H           59.91001222180100       -0.77449140393832       -7.77192400729363
H           59.96087802880626       -1.14233539305903       -5.31491851851939
H           58.25430684410382        0.75201530117603       -4.46931118234160
H           56.38672593610482        0.43112446656467       -2.56795413316219
H           56.43761815959321       -0.54912781848881        2.59768880872712
H           58.33985823057160       -0.80805747091153        4.47469681452253
H           62.02612084769923       -2.56966367703948        4.73494271768202
H           62.05184464912153       -2.93636469796304        7.19226740279563
H           59.33244724858383       -2.15008551280870       10.39795906368902
H           59.98324596373326        0.76975695850144        7.77066264712584
H           59.96555266951683        1.14576944305489        5.31496351729117
H           63.64185807828477       -0.44440511195762        4.47436548950624
H           65.50270229989557       -0.12309206533354        2.56339090641424
C           40.05511197062980       -0.02294712709731       -0.05029451429244
C           38.83463260298096       -0.01090159154288       -0.04197213944696
C           41.40769957176683       -0.03064976767302       -0.05427657564957
C           42.62834982804680       -0.03577536598277       -0.05570615103652
C           53.53362609076645       -0.06817911037199        0.01867892833855
C           52.31297904859255       -0.07115201202710        0.01467786491812
C           54.88623084091234       -0.05943969373284        0.01820143171237
C           56.10670339235141       -0.04999414654378        0.01801175831434
Cu          47.47100915394994       -0.05307597120900       -0.02272561491605
C           44.03786273667966       -0.03977865535668       -0.04940829450375
C           44.68267667405840        1.02370935123919        0.60339374746011
C           44.00302967931904        2.08522589739497        1.28451419215964
C           44.95771891440567        2.91966368134841        1.76763841319764
C           46.22806924682496        2.37569505687167        1.37716383207504
N           46.02804553243559        1.21718211876444        0.67715083776142
C           47.46908402540544        2.93595528114126        1.68798938791497
C           47.46756036016867        4.22937676243631        2.41538775740539
C           48.03351247812376        4.32452597417004        3.68902390193933
C           48.03600953720071        5.53117668023038        4.36944417067204
C           47.46976505767256        6.63917693386705        3.76043652371154
S           47.48456114732497        8.17404568685045        4.60819804090559
O           47.41353072974683        9.27180217596772        3.68818397015704
O           46.04110238862349        8.05959162069092        5.34444397982415
O           48.50988951882574        8.18237557463863        5.60831804989002
C           46.90497753663292        6.57744520085478        2.49673520274196
C           46.90406311504713        5.36479315259251        1.82757349195303
C           48.71085743302663        2.38281454379757        1.36798054690379
C           49.98095329550409        2.99517871969601        1.64045031422783
C           50.93634110486248        2.15340778332620        1.17193018330419
N           48.91194434880078        1.19012156484082        0.72787969155985
C           50.25750427632435        1.02784886522803        0.60181944468154
C           50.90342915782411       -0.06825872467428        0.00660900139557
C           50.25832269687719       -1.15909053081937       -0.59881855788854
C           50.93682600336577       -2.28938960971272       -1.15981857204246
C           49.98220051721849       -3.12091037125704       -1.64790565770758
C           48.71311234970267       -2.49774894691189       -1.39585999573450
N           48.91368820033542       -1.30920534975483       -0.74802110464678
C           47.47229165517893       -3.03784701502511       -1.74081285017669
C           47.47245510270848       -4.32615866154305       -2.47739547280834
C           48.05710591386411       -4.41477977339158       -3.74303981020190
C           48.06004435561094       -5.61526169639100       -4.43421032709922
C           47.47548949049166       -6.72378221872353       -3.84371348940582
S           47.48912878394049       -8.25053110089303       -4.70580163226175
O           47.38563733463452       -9.35606776658820       -3.79831591556622
O           46.06270817108536       -8.10972922082210       -5.47069461254851
O           48.53426426936304       -8.26300207720414       -5.68523864215799
C           46.89264233690313       -6.66872500824411       -2.58793819876592
C           46.89139421556576       -5.46203564911164       -1.90800423925811
C           46.23092999686628       -2.46813448465503       -1.44920905137579
C           44.96258551896737       -3.00084440292615       -1.86114121742961
C           44.00697434444749       -2.16081333869202       -1.38953739509983
C           44.68426342255340       -1.10653177867732       -0.69507272098188
N           46.02908411786557       -1.31003528948766       -0.74898813770444
H           42.93242245551287        2.16888690899187        1.38097334905425
H           44.81835403607806        3.81670245170369        2.34892790959002
H           48.46242283231923        3.44337315638697        4.15177255775916
H           48.47297669676897        5.61638941298373        5.35642756003506
H           45.76188240161057        8.92640082416574        5.66365549499192
H           46.48179797903016        7.46600370499434        2.04527071311406
H           46.47855416275302        5.29741055333405        0.83310014756345
H           50.12001698755956        3.95244399009407        2.11606443060837
H           52.00691276605377        2.27879635908391        1.19687239783991
H           52.00651866722622       -2.42444661860615       -1.16619448830891
H           50.12079616114224       -4.07783689403523       -2.12437657593885
H           48.50022808990784       -3.53306950335509       -4.19108560342632
H           48.51101283046825       -5.69535486496272       -5.41529814323054
H           45.78625638217769       -8.96669212548520       -5.81768973688426
H           46.45564454351370       -7.55780497401183       -2.15091626073367
H           46.45149486246326       -5.39994677171010       -0.91947511054190
H           44.82521606833759       -3.89505179577883       -2.44726079465605
H           42.93732573334764       -2.23573686909768       -1.50267135672504

          :  Hamiltonian                  GFN1-xTB          :
         :: total energy            -407.898264820720 Eh    ::
         :: gradient norm              0.000689094315 Eh/a0 ::
         :: HOMO-LUMO gap              0.000880650033 eV    ::
         :: SCC energy              -413.247028024817 Eh    ::
         :: repulsion energy           5.532985144800 Eh    ::

    * Orbital Energies and Occupations

         #    Occupation            Energy/Eh            Energy/eV
      -------------------------------------------------------------
         1        2.0000           -1.0367386             -28.2111
       ...           ...                  ...                  ...
       343        2.0000           -0.4263857             -11.6025
       344        2.0000           -0.4263414             -11.6013
       345        2.0000           -0.4257027             -11.5840
       346        2.0000           -0.4256842             -11.5835
       347        2.0000           -0.4254467             -11.5770
       348        2.0000           -0.4143605             -11.2753
       349        2.0000           -0.4142946             -11.2735
       350        2.0000           -0.4141679             -11.2701
       351        2.0000           -0.4070917             -11.0775
       352        2.0000           -0.4054341             -11.0324
       353        2.0000           -0.4008797             -10.9085
       354        1.0299           -0.3740246             -10.1777
       355        0.9926           -0.3739448             -10.1756 (HOMO)
       356        0.9775           -0.3739124             -10.1747 (LUMO)
       357                         -0.3547594              -9.6535
       358                         -0.3499716              -9.5232
       359                         -0.3486919              -9.4884
       360                         -0.3484083              -9.4807
       361                         -0.3483348              -9.4787
       362                         -0.3478231              -9.4647
       363                         -0.3227032              -8.7812
       364                         -0.3192674              -8.6877
       365                         -0.3188604              -8.6766
       366                         -0.3097214              -8.4279
       ...                                ...                  ...
       729                          1.5020044              40.8716
      -------------------------------------------------------------
                  HL-Gap            0.0000324 Eh            0.0009 eV

Wiberg/Mayer (AO) data.
largest (>0.10) Wiberg bond orders for each atom

     #   Z sym  total        # sym  WBO       # sym  WBO       # sym  WBO
 ---------------------------------------------------------------------------
     1  29 Cu   2.185 --    45 N    0.505     7 N    0.505    22 N    0.502
                            29 N    0.501
     2   6 C    3.934 --    44 C    1.363     3 C    1.362    46 H    0.971
     3   6 C    3.915 --     2 C    1.362     7 N    1.229     4 C    1.169
     4   6 C    3.956 --     5 C    1.659     3 C    1.169    47 H    0.975
     5   6 C    3.958 --     4 C    1.659     6 C    1.170    48 H    0.973
     6   6 C    3.915 --     8 C    1.321     7 N    1.240     5 C    1.170
     7   7 N    3.245 --     6 C    1.240     3 C    1.229     1 Cu   0.505
     8   6 C    3.934 --    19 C    1.323     6 C    1.321     9 C    1.029
     9   6 C    3.986 --    10 C    1.391    18 C    1.390     8 C    1.029
    10   6 C    3.987 --    11 C    1.450     9 C    1.391    49 H    0.971
                            17 C    0.106
    11   6 C    3.989 --    10 C    1.450    12 C    1.407    50 H    0.967
                            18 C    0.106
    12   6 C    3.930 --    11 C    1.407    17 C    1.407    13 S    0.754
    13  16 S    5.264 --    14 O    1.720    16 O    1.718    15 O    1.012
                            12 C    0.754
    14   8 O    2.078 --    13 S    1.720    16 O    0.139
    15   8 O    2.087 --    13 S    1.012    51 H    0.828
    16   8 O    2.077 --    13 S    1.718    14 O    0.139
    17   6 C    3.989 --    18 C    1.450    12 C    1.407    52 H    0.967
                            10 C    0.106
    18   6 C    3.987 --    17 C    1.450     9 C    1.390    53 H    0.971
                            11 C    0.106
    19   6 C    3.909 --     8 C    1.323    22 N    1.227    20 C    1.177
    20   6 C    3.955 --    21 C    1.646    19 C    1.177    54 H    0.973
    21   6 C    3.957 --    20 C    1.646    23 C    1.184    55 H    0.974
    22   7 N    3.249 --    23 C    1.251    19 C    1.227     1 Cu   0.502
    23   6 C    3.900 --    24 C    1.268    22 N    1.251    21 C    1.184
    24   6 C    3.942 --    23 C    1.268    25 C    1.268   130 C    1.170
    25   6 C    3.900 --    24 C    1.268    29 N    1.252    26 C    1.184
    26   6 C    3.957 --    27 C    1.645    25 C    1.184    56 H    0.974
    27   6 C    3.955 --    26 C    1.645    28 C    1.177    57 H    0.973
    28   6 C    3.909 --    30 C    1.323    29 N    1.227    27 C    1.177
    29   7 N    3.248 --    25 C    1.252    28 C    1.227     1 Cu   0.501
    30   6 C    3.934 --    28 C    1.323    41 C    1.321    31 C    1.028
    31   6 C    3.986 --    32 C    1.392    40 C    1.390    30 C    1.028
    32   6 C    3.987 --    33 C    1.449    31 C    1.392    58 H    0.971
                            39 C    0.106
    33   6 C    3.989 --    32 C    1.449    34 C    1.408    59 H    0.967
                            40 C    0.106
    34   6 C    3.930 --    33 C    1.408    39 C    1.407    35 S    0.754
    35  16 S    5.266 --    38 O    1.726    36 O    1.714    37 O    1.013
                            34 C    0.754
    36   8 O    2.073 --    35 S    1.714    38 O    0.139
    37   8 O    2.088 --    35 S    1.013    60 H    0.828
    38   8 O    2.084 --    35 S    1.726    36 O    0.139
    39   6 C    3.989 --    40 C    1.451    34 C    1.407    61 H    0.967
                            32 C    0.106
    40   6 C    3.987 --    39 C    1.451    31 C    1.390    62 H    0.971
                            33 C    0.106
    41   6 C    3.915 --    30 C    1.321    45 N    1.240    42 C    1.169
    42   6 C    3.958 --    43 C    1.659    41 C    1.169    63 H    0.973
    43   6 C    3.956 --    42 C    1.659    44 C    1.168    64 H    0.975
    44   6 C    3.915 --     2 C    1.363    45 N    1.229    43 C    1.168
    45   7 N    3.245 --    41 C    1.240    44 C    1.229     1 Cu   0.505
    46   1 H    1.001 --     2 C    0.971
    47   1 H    0.997 --     4 C    0.975
    48   1 H    1.003 --     5 C    0.973
    49   1 H    1.003 --    10 C    0.971
    50   1 H    0.999 --    11 C    0.967
    51   1 H    0.854 --    15 O    0.828
    52   1 H    1.000 --    17 C    0.967
    53   1 H    1.003 --    18 C    0.971
    54   1 H    1.003 --    20 C    0.973
    55   1 H    1.001 --    21 C    0.974
    56   1 H    1.001 --    26 C    0.974
    57   1 H    1.003 --    27 C    0.973
    58   1 H    1.003 --    32 C    0.971
    59   1 H    0.999 --    33 C    0.967
    60   1 H    0.855 --    37 O    0.828
    61   1 H    1.000 --    39 C    0.967
    62   1 H    1.003 --    40 C    0.971
    63   1 H    1.003 --    42 C    0.973
    64   1 H    0.997 --    43 C    0.975
    65  29 Cu   2.194 --   109 N    0.507    71 N    0.507    86 N    0.504
                            93 N    0.503
    66   6 C    3.934 --   108 C    1.363    67 C    1.362   110 H    0.971
    67   6 C    3.915 --    66 C    1.362    71 N    1.228    68 C    1.169
    68   6 C    3.955 --    69 C    1.658    67 C    1.169   111 H    0.975
    69   6 C    3.958 --    68 C    1.658    70 C    1.170   112 H    0.973
    70   6 C    3.915 --    72 C    1.321    71 N    1.239    69 C    1.170
    71   7 N    3.246 --    70 C    1.239    67 C    1.228    65 Cu   0.507
    72   6 C    3.934 --    83 C    1.324    70 C    1.321    73 C    1.028
    73   6 C    3.986 --    74 C    1.392    82 C    1.391    72 C    1.028
    74   6 C    3.987 --    75 C    1.450    73 C    1.392   113 H    0.971
                            81 C    0.106
    75   6 C    3.989 --    74 C    1.450    76 C    1.407   114 H    0.967
                            82 C    0.106
    76   6 C    3.930 --    75 C    1.407    81 C    1.407    77 S    0.754
    77  16 S    5.264 --    78 O    1.721    80 O    1.718    79 O    1.013
                            76 C    0.754
    78   8 O    2.079 --    77 S    1.721    80 O    0.139
    79   8 O    2.087 --    77 S    1.013   115 H    0.828
    80   8 O    2.076 --    77 S    1.718    78 O    0.139
    81   6 C    3.989 --    82 C    1.450    76 C    1.407   116 H    0.967
                            74 C    0.106
    82   6 C    3.987 --    81 C    1.450    73 C    1.391   117 H    0.971
                            75 C    0.106
    83   6 C    3.909 --    72 C    1.324    86 N    1.226    84 C    1.177
    84   6 C    3.955 --    85 C    1.646    83 C    1.177   118 H    0.973
    85   6 C    3.957 --    84 C    1.646    87 C    1.184   119 H    0.973
    86   7 N    3.249 --    87 C    1.251    83 C    1.226    65 Cu   0.504
    87   6 C    3.900 --    88 C    1.268    86 N    1.251    85 C    1.184
    88   6 C    3.942 --    89 C    1.269    87 C    1.268   136 C    1.170
    89   6 C    3.900 --    88 C    1.269    93 N    1.251    90 C    1.184
    90   6 C    3.957 --    91 C    1.645    89 C    1.184   120 H    0.974
    91   6 C    3.955 --    90 C    1.645    92 C    1.177   121 H    0.973
    92   6 C    3.909 --    94 C    1.324    93 N    1.226    91 C    1.177
    93   7 N    3.249 --    89 C    1.251    92 C    1.226    65 Cu   0.503
    94   6 C    3.934 --    92 C    1.324   105 C    1.321    95 C    1.028
    95   6 C    3.986 --    96 C    1.392   104 C    1.391    94 C    1.028
    96   6 C    3.987 --    97 C    1.449    95 C    1.392   122 H    0.971
                           103 C    0.106
    97   6 C    3.989 --    96 C    1.449    98 C    1.408   123 H    0.967
                           104 C    0.106
    98   6 C    3.930 --    97 C    1.408   103 C    1.407    99 S    0.754
    99  16 S    5.266 --   102 O    1.726   100 O    1.714   101 O    1.013
                            98 C    0.754
   100   8 O    2.073 --    99 S    1.714   102 O    0.139
   101   8 O    2.088 --    99 S    1.013   124 H    0.828
   102   8 O    2.084 --    99 S    1.726   100 O    0.139
   103   6 C    3.989 --   104 C    1.450    98 C    1.407   125 H    0.967
                            96 C    0.106
   104   6 C    3.987 --   103 C    1.450    95 C    1.391   126 H    0.971
                            97 C    0.106
   105   6 C    3.915 --    94 C    1.321   109 N    1.239   106 C    1.170
   106   6 C    3.958 --   107 C    1.659   105 C    1.170   127 H    0.973
   107   6 C    3.955 --   106 C    1.659   108 C    1.169   128 H    0.975
   108   6 C    3.915 --    66 C    1.363   109 N    1.228   107 C    1.169
   109   7 N    3.246 --   105 C    1.239   108 C    1.228    65 Cu   0.507
   110   1 H    1.001 --    66 C    0.971
   111   1 H    0.997 --    68 C    0.975
   112   1 H    1.003 --    69 C    0.973
   113   1 H    1.003 --    74 C    0.971
   114   1 H    0.999 --    75 C    0.967
   115   1 H    0.854 --    79 O    0.828
   116   1 H    0.999 --    81 C    0.967
   117   1 H    1.003 --    82 C    0.971
   118   1 H    1.003 --    84 C    0.973
   119   1 H    1.001 --    85 C    0.973
   120   1 H    1.001 --    90 C    0.974
   121   1 H    1.003 --    91 C    0.973
   122   1 H    1.003 --    96 C    0.971
   123   1 H    0.999 --    97 C    0.967
   124   1 H    0.855 --   101 O    0.828
   125   1 H    0.999 --   103 C    0.967
   126   1 H    1.003 --   104 C    0.971
   127   1 H    1.003 --   106 C    0.973
   128   1 H    0.997 --   107 C    0.975
   129   6 C    3.935 --   130 C    2.494   131 C    1.292
   130   6 C    3.920 --   129 C    2.494    24 C    1.170   132 C    0.197
   131   6 C    3.933 --   132 C    2.493   129 C    1.292
   132   6 C    3.921 --   131 C    2.493   138 C    1.172   130 C    0.197
   133   6 C    3.933 --   134 C    2.493   135 C    1.291
   134   6 C    3.921 --   133 C    2.493   160 C    1.172   136 C    0.197
   135   6 C    3.935 --   136 C    2.495   133 C    1.291
   136   6 C    3.920 --   135 C    2.495    88 C    1.170   134 C    0.197
   137  29 Cu   2.154 --   158 N    0.497   165 N    0.497   143 N    0.496
                           181 N    0.496
   138   6 C    3.934 --   180 C    1.266   139 C    1.266   132 C    1.172
   139   6 C    3.901 --   138 C    1.266   143 N    1.254   140 C    1.184
   140   6 C    3.956 --   141 C    1.645   139 C    1.184   182 H    0.974
   141   6 C    3.956 --   140 C    1.645   142 C    1.177   183 H    0.973
   142   6 C    3.908 --   144 C    1.322   143 N    1.227   141 C    1.177
   143   7 N    3.243 --   139 C    1.254   142 C    1.227   137 Cu   0.496
   144   6 C    3.931 --   155 C    1.323   142 C    1.322   145 C    1.028
   145   6 C    3.986 --   146 C    1.392   154 C    1.390   144 C    1.028
   146   6 C    3.987 --   147 C    1.449   145 C    1.392   184 H    0.971
                           153 C    0.106
   147   6 C    3.989 --   146 C    1.449   148 C    1.408   185 H    0.967
                           154 C    0.106
   148   6 C    3.930 --   147 C    1.408   153 C    1.407   149 S    0.754
   149  16 S    5.266 --   152 O    1.726   150 O    1.714   151 O    1.014
                           148 C    0.754
   150   8 O    2.072 --   149 S    1.714   152 O    0.139
   151   8 O    2.088 --   149 S    1.014   186 H    0.828
   152   8 O    2.084 --   149 S    1.726   150 O    0.139
   153   6 C    3.989 --   154 C    1.451   148 C    1.407   187 H    0.967
                           146 C    0.106
   154   6 C    3.987 --   153 C    1.451   145 C    1.390   188 H    0.971
                           147 C    0.106
   155   6 C    3.908 --   144 C    1.323   158 N    1.227   156 C    1.177
   156   6 C    3.956 --   157 C    1.646   155 C    1.177   189 H    0.973
   157   6 C    3.956 --   156 C    1.646   159 C    1.184   190 H    0.974
   158   7 N    3.243 --   159 C    1.255   155 C    1.227   137 Cu   0.497
   159   6 C    3.900 --   160 C    1.266   158 N    1.255   157 C    1.184
   160   6 C    3.934 --   161 C    1.267   159 C    1.266   134 C    1.172
   161   6 C    3.900 --   160 C    1.267   165 N    1.255   162 C    1.184
   162   6 C    3.956 --   163 C    1.646   161 C    1.184   191 H    0.974
   163   6 C    3.956 --   162 C    1.646   164 C    1.177   192 H    0.973
   164   6 C    3.908 --   166 C    1.323   165 N    1.227   163 C    1.177
   165   7 N    3.243 --   161 C    1.255   164 C    1.227   137 Cu   0.497
   166   6 C    3.931 --   164 C    1.323   177 C    1.322   167 C    1.028
   167   6 C    3.986 --   168 C    1.392   176 C    1.391   166 C    1.028
   168   6 C    3.987 --   169 C    1.449   167 C    1.392   193 H    0.971
                           175 C    0.106
   169   6 C    3.989 --   168 C    1.449   170 C    1.407   194 H    0.967
                           176 C    0.106
   170   6 C    3.930 --   169 C    1.407   175 C    1.407   171 S    0.754
   171  16 S    5.265 --   174 O    1.726   172 O    1.714   173 O    1.013
                           170 C    0.754
   172   8 O    2.073 --   171 S    1.714   174 O    0.139
   173   8 O    2.088 --   171 S    1.013   195 H    0.828
   174   8 O    2.084 --   171 S    1.726   172 O    0.139
   175   6 C    3.989 --   176 C    1.450   170 C    1.407   196 H    0.967
                           168 C    0.106
   176   6 C    3.987 --   175 C    1.450   167 C    1.391   197 H    0.971
                           169 C    0.106
   177   6 C    3.908 --   166 C    1.322   181 N    1.227   178 C    1.177
   178   6 C    3.956 --   179 C    1.645   177 C    1.177   198 H    0.973
   179   6 C    3.956 --   178 C    1.645   180 C    1.184   199 H    0.974
   180   6 C    3.901 --   138 C    1.266   181 N    1.255   179 C    1.184
   181   7 N    3.242 --   180 C    1.255   177 C    1.227   137 Cu   0.496
   182   1 H    1.001 --   140 C    0.974
   183   1 H    1.003 --   141 C    0.973
   184   1 H    1.003 --   146 C    0.971
   185   1 H    0.999 --   147 C    0.967
   186   1 H    0.855 --   151 O    0.828
   187   1 H    0.999 --   153 C    0.967
   188   1 H    1.003 --   154 C    0.971
   189   1 H    1.003 --   156 C    0.973
   190   1 H    1.001 --   157 C    0.974
   191   1 H    1.001 --   162 C    0.974
   192   1 H    1.003 --   163 C    0.973
   193   1 H    1.003 --   168 C    0.971
   194   1 H    0.999 --   169 C    0.967
   195   1 H    0.855 --   173 O    0.828
   196   1 H    0.999 --   175 C    0.967
   197   1 H    1.003 --   176 C    0.971
   198   1 H    1.003 --   178 C    0.973
   199   1 H    1.001 --   179 C    0.974
 ---------------------------------------------------------------------------

           -------------------------------------------------
          | TOTAL ENERGY             -407.898264820720 Eh   |
          | GRADIENT NORM               0.000689094315 Eh/α |
          | HOMO-LUMO GAP               0.000880650033 eV   |
           -------------------------------------------------

 * finished run on 2022/07/30 at 13:35:11.093
