   * xtb version 6.5.1 (b24c23e) compiled by 'conda@728c89f4b128' on 2022-07-12
          program call               : xtb NMA_C6_3.xyz --gfn 1 --opt -T 48

   ID    Z sym.   atoms
    1    6 C      1-5, 7-11, 13-18, 20-25, 27-31, 33-39, 68-72, 74-78, 80-85,
                  87-92, 94-98, 100-106, 135-151, 153-157, 159-164, 166-171,
                  173-177, 179-185
    2    7 N      6, 12, 19, 26, 32, 40, 73, 79, 86, 93, 99, 107, 152, 158,
                  165, 172, 178, 186
    3    1 H      41-67, 108-134, 187-212

          :  Hamiltonian                  GFN1-xTB          :
 * total energy  :  -340.2345302 Eh     change       -0.4044978E-09 Eh
 * total energy  :  -340.7064832 Eh     change       -0.4719531E+00 Eh
 * total energy  :  -340.8583288 Eh     change       -0.1518456E+00 Eh
 * total energy  :  -340.9587516 Eh     change       -0.1004228E+00 Eh
 * total energy  :  -341.0190831 Eh     change       -0.6033147E-01 Eh
 * total energy  :  -341.0557990 Eh     change       -0.3671595E-01 Eh
 * total energy  :  -341.0818841 Eh     change       -0.2608511E-01 Eh
 * total energy  :  -341.1003455 Eh     change       -0.1846139E-01 Eh
 * total energy  :  -341.1174662 Eh     change       -0.1712070E-01 Eh
 * total energy  :  -341.1302709 Eh     change       -0.1280469E-01 Eh
 * total energy  :  -341.2228875 Eh     change       -0.3645014E-04 Eh
 * total energy  :  -341.2229006 Eh     change       -0.1313300E-04 Eh
 * total energy  :  -341.2229110 Eh     change       -0.1042825E-04 Eh
 * total energy  :  -341.2229227 Eh     change       -0.1165612E-04 Eh
 * total energy  :  -341.2229313 Eh     change       -0.8566390E-05 Eh
 * total energy  :  -341.2229373 Eh     change       -0.5998940E-05 Eh
 * total energy  :  -341.2229430 Eh     change       -0.5752690E-05 Eh
 * total energy  :  -341.2229486 Eh     change       -0.5608634E-05 Eh
 * total energy  :  -341.2229527 Eh     change       -0.4113443E-05 Eh
   *** GEOMETRY OPTIMIZATION CONVERGED AFTER 117 ITERATIONS ***

 final structure:
================
212
 xtb: 6.5.1 (b24c23e)
C           30.99974032348450        0.53841665266942        0.03139560128177
C           31.60261962991387        0.60418298532972       -1.21840580579864
C           30.94334790706346        0.73437533178842       -2.47240698192456
C           31.89517722347940        0.71012389782997       -3.45327036696944
C           33.16797290865518        0.57874349114268       -2.82921311327054
N           32.94029859612051        0.51673218059899       -1.48329103223272
C           34.42154726284966        0.49495837877002       -3.44796477832848
C           34.44587458012067        0.59432686531560       -4.92581716400562
C           34.96667400116463       -0.44440681463741       -5.69986391847889
C           34.98457226293133       -0.36850139460505       -7.08199295603568
C           34.47897092767658        0.76257305585821       -7.72941662819193
N           34.52182565432711        0.91591645047838       -9.10729104311790
C           34.57299224789834       -0.26230034260411       -9.96252290576442
C           33.96919871619664        1.81355924676474       -6.95708370464281
C           33.94778603564975        1.72575384963578       -5.57793513205001
C           35.63376604423425        0.32919354731311       -2.77259515395582
C           36.93059145391882        0.34478052653973       -3.42451757232773
C           37.85129658859024        0.19618064402200       -2.44927294528231
N           35.78941840762866        0.17900009895319       -1.42795165399001
C           37.11614855107403        0.09179030403128       -1.20426504466477
C           37.75464113685285       -0.06309358214115        0.04356706121344
C           37.12204788083844       -0.16291605034471        1.29807430498790
C           37.77087010273400       -0.30852108992028        2.55207911939543
C           36.80800408785669       -0.35104443982411        3.52281958600256
C           35.54013145779676       -0.23723921649926        2.88930248067557
N           35.78242809784720       -0.12455440255133        1.54515296306821
C           34.28412846190042       -0.19616054086536        3.50640913454786
C           34.25588896563890       -0.37578824502597        4.97570804364720
C           33.71700619006962        0.60745291354105        5.80782789019706
C           33.69315286707808        0.44820700310263        7.18281749469525
C           34.21149807841285       -0.71250474623841        7.76450716358911
N           34.16270755397099       -0.94937971739860        9.12995703380194
C           34.08493649254047        0.17319347632430       10.05501701843196
C           34.74208193922119       -1.70718185306011        6.93367308722966
C           34.76906748738801       -1.53629511347677        5.56270576592719
C           33.07358857960239        0.00612024380092        2.83324473523032
C           31.76838970136830       -0.00373899156488        3.47475845540682
C           30.86142433811580        0.21586434867076        2.50114486620638
C           31.60978342401414        0.34287983354541        1.26355800172385
N           32.93789209426292        0.20908174769861        1.50114248674268
H           29.91772039081776        0.62570303764428        0.03273658499150
H           29.87556804098855        0.82216648293894       -2.59581157171518
H           31.73288405047156        0.76499616091839       -4.51754210241726
H           33.66773330502662        0.40201478415891       -0.78542378234067
H           35.34518820636132       -1.33499623032746       -5.20998932190801
H           35.39377267460309       -1.19385392833575       -7.65157069834949
H           33.86389635815070        1.60843110042205       -9.44431752712896
H           33.77312499420133       -0.97147494431867       -9.72019794899797
H           34.46204434384003        0.06668087226205      -10.99577056964826
H           35.53793828294557       -0.75963025012295       -9.85654107992115
H           33.59049006925976        2.70278999726711       -7.45005152974507
H           33.56108536199422        2.55345803289851       -4.99329241633317
H           37.09502608711073        0.47676409776695       -4.48165549644405
H           38.92547820895001        0.16370805715721       -2.53776675915525
H           38.83911435025982       -0.36610650993699        2.68584487131112
H           36.96168387072950       -0.43608375924397        4.58623164902996
H           35.05921486754013       -0.00969877039006        0.84266259941901
H           33.33065440394815        1.52193632135204        5.37098224944885
H           33.26975133528851        1.23230527428475        7.79845642653169
H           34.82820470797977       -1.65156424891017        9.42991422230881
H           33.11119810040564        0.65793168604687        9.97365167524625
H           34.87227938222934        0.91066549461743        9.86113699676856
H           34.19712083510350       -0.21605799550272       11.06695045923732
H           35.13256794517338       -2.61829273989744        7.37475493718526
H           35.17247239256902       -2.32091780802860        4.93177965793613
H           31.59168596341472       -0.17522005714151        4.52440952506206
H           29.78706588659594        0.27650220178551        2.57986444826316
C           69.69395433619528        0.54158048826056       -0.06444507704952
C           69.09175013996808        0.67075919385050        1.18074413798389
C           69.75206641072765        0.86814191100175        2.42545559065510
C           68.80172555385268        0.89010382738599        3.40781347418332
C           67.52864803674564        0.72172359961043        2.79330292024131
N           67.75478438552886        0.59215153491720        1.45188141870967
C           66.27567833349215        0.66421700309778        3.41636301011747
C           66.24989343829655        0.83065105031175        4.88799106086235
C           65.72604439903110       -0.17277026199193        5.70562645708998
C           65.70497505299093       -0.03696015848822        7.08299538587179
C           66.21074117948297        1.12052191393710        7.68187522297303
N           66.16474366321755        1.33364961270277        9.05140984499115
C           66.10242348634682        0.19493916373086        9.95758931134227
C           66.72385165265945        2.13614748045755        6.86557146895683
C           66.74806892681583        1.98866909378277        5.49150905711527
C           65.06417292950627        0.46117148759733        2.74968638830681
C           63.76693551649561        0.50742589654779        3.39928547090225
C           62.84738935815266        0.30188512810851        2.43334705308661
N           64.90979661542319        0.23881795917987        1.41494209747093
C           63.58365432557703        0.13255753639042        1.19619051960988
C           62.94637204365841       -0.09661677251558       -0.04072074150373
C           63.57838641893982       -0.25570275749553       -1.28943487512926
C           62.92891521183478       -0.46936048962510       -2.53332914731975
C           63.89080939308834       -0.55548351816739       -3.50213181868285
C           65.15871061144456       -0.40207415509775       -2.87713447871314
N           64.91730445561704       -0.22064518164825       -1.54037922651220
C           66.41419677497316       -0.38922758408690       -3.49663554041914
C           66.44248018765778       -0.65209919802216       -4.95327101133378
C           66.98025219497133        0.28127260061392       -5.84161616858075
C           67.00428313160531        0.04167183408821       -7.20495945493305
C           66.48708733781277       -1.15160987639332       -7.71769602853073
N           66.53644503267327       -1.46841700650429       -9.06671538098490
C           66.61489861651442       -0.40276740518804      -10.05667933197825
C           65.95708266936698       -2.09621924283713       -6.83003593434282
C           65.93013924623530       -1.84535310783219       -5.47149829283477
C           67.62378807913556       -0.14636518901649       -2.83525227680731
C           68.92950357353796       -0.18598646720774       -3.47441512759420
C           69.83484835541311        0.08854764497768       -2.51333191685274
C           69.08505741087342        0.27891266908789       -1.28470522716570
N           67.75771082653436        0.12811911712027       -1.51575299865446
H           70.77569174339934        0.63228668632505       -0.07077670447136
H           70.81963033773353        0.96677153660516        2.54253980874053
H           68.96538853068380        1.00022060397011        4.46758416987676
H           67.02666913551850        0.43777758705843        0.76236242647748
H           65.34745252281881       -1.08334627994837        5.25406729525865
H           65.29323827660740       -0.83628847630866        7.68680547978878
H           66.82363240241503        2.03787609857239        9.36088501213595
H           66.89998695560448       -0.52830978492946        9.75207141233908
H           66.20879472412713        0.56883360852921       10.97594927458337
H           65.13556297573577       -0.30182850501313        9.86775814617562
H           67.10254758864079        3.04551360167339        7.32033352009926
H           67.13652494348656        2.79021656479205        4.87259010008897
H           63.60138308717268        0.69721793628967        4.44739724151405
H           61.77329153080810        0.27064651311950        2.52300186722070
H           61.86087611324948       -0.53993135543295       -2.66236100806354
H           63.73634264007764       -0.69526985426280       -4.55961379163521
H           65.64087122809325       -0.06645211637973       -0.84582580888293
H           67.36546164441326        1.22031154619008       -5.45930561051172
H           67.42688685765427        0.78864961716962       -7.86564537280902
H           65.87181616094513       -2.18767828922690       -9.32515116418691
H           67.59005166275581        0.08333041228368      -10.00635830833337
H           65.82996459360464        0.34696484962443       -9.90506394755332
H           66.49924048176685       -0.85090371883677      -11.04354083734112
H           65.56716771590037       -3.03182667228584       -7.21694965271291
H           65.52748245853149       -2.59205994541269       -4.79570758239583
H           69.10771631737337       -0.41276408228404       -4.51327229858697
H           70.90904896532892        0.14844673252347       -2.59452699556485
C           42.95568203446881       -0.14733165911798        0.06422170427245
C           41.72673944987891       -0.14417565868281        0.06393155584045
C           40.38316895652349       -0.12923614169291        0.06118089242568
C           39.15889146785730       -0.10921223901842        0.05194080806686
C           44.29915028268956       -0.14486854958751        0.05898217289989
C           45.52371361847252       -0.13961522871428        0.04808129370843
C           58.97663112495128       -0.25243353703349       -0.04855162763610
C           57.74800489020848       -0.27983659069545       -0.04546826185245
C           56.40472669127328       -0.29631450661173       -0.03902609975417
C           55.18023400818924       -0.29931405886982       -0.02749779302856
C           60.31956401344738       -0.21143451958794       -0.04947435290105
C           61.54300417520053       -0.16304546332182       -0.04421584815914
C           46.92768025868873       -0.13217626746827        0.03670350045526
C           47.56294644502798       -0.07919130832033        1.29317173111243
C           46.92005092332622       -0.05316836599892        2.55707712476844
C           47.89033438107710       -0.02066293982707        3.52190246974071
C           49.15439700476113       -0.01835350424589        2.87313320389244
N           48.90535647969558       -0.05870456591122        1.52683115589461
C           50.41737758235614       -0.01519005102105        3.48009688584776
C           50.43936294630475        0.07432417912679        4.95899357486402
C           51.03064579975261       -0.93120073843308        5.72912314907713
C           51.04532739234496       -0.84857253491869        7.10841020194219
C           50.47406195776468        0.25044901637342        7.76194006167643
N           50.56491844962616        0.31856186868330        9.14376187379077
C           49.61467147763172        1.13181621137755        9.89027657394646
C           49.89433031839377        1.26597064681746        6.99591482732389
C           49.87210730413190        1.16837370249096        5.61511333968952
C           51.63673576017370       -0.08723296185795        2.80319470976672
C           52.93023017815372       -0.01881885822405        3.45832830559047
C           53.85871302635785       -0.10556476855374        2.48302329266334
N           51.80123234237463       -0.19724145454885        1.45560982893942
C           53.13124021153182       -0.21399654692038        1.23460269225999
C           53.77626622292205       -0.29442870337145       -0.01648098429430
C           53.14160927195980       -0.34011493738882       -1.27353459199601
C           53.78602800222781       -0.35906493321148       -2.53678975538568
C           52.81709970709470       -0.35717551605517       -3.50338882180936
C           51.55206843879484       -0.34915149006553       -2.85654729836918
N           51.79944020287073       -0.33709242670388       -1.50926677053782
C           50.28954431623483       -0.32179158121267       -3.46359832984943
C           50.26553273309900       -0.35231614123992       -4.94491757187509
C           49.68680824615612        0.69291413543296       -5.66735171894357
C           49.66492358953857        0.68082314656267       -7.05135818193106
C           50.21099639593034       -0.39819838313383       -7.75255730547865
N           50.25543179186283       -0.44135274695351       -9.13799749303116
C           49.28344165017484        0.31794547564685       -9.91326378060715
C           50.79595828254627       -1.44729089009015       -7.03268756747071
C           50.82549095549663       -1.42052077462738       -5.65119373589948
C           49.07008052562572       -0.26556156323928       -2.78527321527678
C           47.77749191063740       -0.32293417575189       -3.44323519362866
C           46.84767752120633       -0.27082919325080       -2.46660353499071
C           47.57357379675842       -0.18787708060580       -1.21533672785317
N           48.90379812617660       -0.19111009038855       -1.43553096403627
H           45.85178346361497       -0.06577520661821        2.70164891456271
H           47.74393776386206       -0.01447360221361        4.58968366940380
H           49.62335452956449       -0.08193888404610        0.81037730034272
H           51.46156154809368       -1.79660361133004        5.23777305870330
H           51.50067410083208       -1.63984010799077        7.69459324981675
H           50.72026762095553       -0.58599190460457        9.57201113251834
H           48.57978839776801        0.89373320912215        9.61911438085436
H           49.76349574368174        0.93454164043229       10.95188524556724
H           49.80006028019508        2.19027410589065        9.70284927793457
H           49.46260285097343        2.13802486078464        7.47154025757213
H           49.42878235112388        1.96832907347384        5.03186662886521
H           53.08697676887451        0.09923300376015        4.51819481608558
H           54.93308311803076       -0.08824355724265        2.57300581647720
H           54.85456673846760       -0.36226002300138       -2.67968247049302
H           52.96588210595375       -0.34725667309744       -4.57072579544460
H           51.08065658768592       -0.30943972339326       -0.79378691842465
H           49.26744483072805        1.53958009991810       -5.13479757692134
H           49.22407999746289        1.51659028512196       -7.58067427466981
H           50.38556538711490       -1.37983169013325       -9.49617911763380
H           49.48199997600202        1.38628022069918       -9.81842506573454
H           49.39243393285766        0.03471346291485      -10.96015885183860
H           48.25783348124203        0.11155603288074       -9.58682634589178
H           51.22582876366987       -2.28714827763631       -7.56837396143298
H           51.26472326497795       -2.24979475814465       -5.10737819407264
H           47.62283684206168       -0.41288665739584       -4.50626664778593
H           45.77349633107792       -0.29332713560522       -2.55801632994769

          :  Hamiltonian                  GFN1-xTB          :
         :: total energy            -341.222952734526 Eh    ::
         :: gradient norm              0.000543265673 Eh/a0 ::
         :: HOMO-LUMO gap              0.808293263774 eV    ::
         :: SCC energy              -346.920521556790 Eh    ::
         :: repulsion energy           5.868884319994 Eh    ::

    * Orbital Energies and Occupations

         #    Occupation            Energy/Eh            Energy/eV
      -------------------------------------------------------------
         1        2.0000           -0.7957391             -21.6532
       ...           ...                  ...                  ...
       301        2.0000           -0.4043563             -11.0031
       302        2.0000           -0.3939062             -10.7187
       303        2.0000           -0.3932809             -10.7017
       304        2.0000           -0.3929474             -10.6926
       305        2.0000           -0.3907842             -10.6338
       306        2.0000           -0.3903386             -10.6217
       307        2.0000           -0.3902512             -10.6193
       308        2.0000           -0.3898929             -10.6095
       309        2.0000           -0.3890771             -10.5873
       310        2.0000           -0.3885649             -10.5734
       311        2.0000           -0.3764742             -10.2444
       312        2.0000           -0.3717738             -10.1165
       313        2.0000           -0.3654767              -9.9451 (HOMO)
       314        0.0000           -0.3357725              -9.1368 (LUMO)
       315                         -0.3270660              -8.8999
       316                         -0.3216233              -8.7518
       317                         -0.3211932              -8.7401
       318                         -0.3209222              -8.7327
       319                         -0.3202167              -8.7135
       320                         -0.2967786              -8.0758
       321                         -0.2882529              -7.8438
       322                         -0.2848278              -7.7506
       323                         -0.2766499              -7.5280
       324                         -0.2763733              -7.5205
       ...                                ...                  ...
       688                          1.5872831              43.1922
      -------------------------------------------------------------
                  HL-Gap            0.0297042 Eh            0.8083 eV

Wiberg/Mayer (AO) data.
largest (>0.10) Wiberg bond orders for each atom

     #   Z sym  total        # sym  WBO       # sym  WBO       # sym  WBO
 ---------------------------------------------------------------------------
     1   6 C    3.922 --    39 C    1.366     2 C    1.345    41 H    0.971
     2   6 C    3.903 --     1 C    1.345     3 C    1.232     6 N    1.169
     3   6 C    3.952 --     4 C    1.591     2 C    1.232    42 H    0.977
     4   6 C    3.959 --     3 C    1.591     5 C    1.238    43 H    0.974
     5   6 C    3.894 --     7 C    1.299     4 C    1.238     6 N    1.177
     6   7 N    3.468 --     5 C    1.177     2 C    1.169    44 H    0.873
     7   6 C    3.939 --    16 C    1.334     5 C    1.299     8 C    1.035
     8   6 C    3.988 --     9 C    1.383    15 C    1.374     7 C    1.035
     9   6 C    3.988 --    10 C    1.465     8 C    1.383    45 H    0.972
    10   6 C    3.990 --     9 C    1.465    11 C    1.353    46 H    0.970
    11   6 C    3.952 --    10 C    1.353    14 C    1.345    12 N    1.109
    12   7 N    3.180 --    11 C    1.109    13 C    0.971    47 H    0.931
    13   6 C    3.968 --    49 H    0.990    50 H    0.986    48 H    0.984
                            12 N    0.971
    14   6 C    3.989 --    15 C    1.476    11 C    1.345    51 H    0.971
    15   6 C    3.987 --    14 C    1.476     8 C    1.374    52 H    0.973
    16   6 C    3.913 --     7 C    1.334    19 N    1.285    17 C    1.127
    17   6 C    3.966 --    18 C    1.707    16 C    1.127    53 H    0.974
    18   6 C    3.963 --    17 C    1.707    20 C    1.130    54 H    0.974
    19   7 N    3.020 --    20 C    1.345    16 C    1.285
    20   6 C    3.909 --    19 N    1.345    21 C    1.252    18 C    1.130
    21   6 C    3.934 --    20 C    1.252    22 C    1.248   138 C    1.194
    22   6 C    3.886 --    23 C    1.252    21 C    1.248    26 N    1.190
    23   6 C    3.958 --    24 C    1.579    22 C    1.252    55 H    0.975
    24   6 C    3.955 --    23 C    1.579    25 C    1.245    56 H    0.974
    25   6 C    3.897 --    27 C    1.306    24 C    1.245    26 N    1.164
    26   7 N    3.473 --    22 C    1.190    25 C    1.164    57 H    0.873
    27   6 C    3.924 --    36 C    1.317    25 C    1.306    28 C    1.038
    28   6 C    3.987 --    29 C    1.383    35 C    1.373    27 C    1.038
    29   6 C    3.987 --    30 C    1.465    28 C    1.383    58 H    0.972
    30   6 C    3.989 --    29 C    1.465    31 C    1.353    59 H    0.970
    31   6 C    3.951 --    30 C    1.353    34 C    1.344    32 N    1.110
    32   7 N    3.180 --    31 C    1.110    33 C    0.971    60 H    0.931
    33   6 C    3.968 --    63 H    0.990    61 H    0.986    62 H    0.984
                            32 N    0.971
    34   6 C    3.989 --    35 C    1.477    31 C    1.344    64 H    0.971
    35   6 C    3.986 --    34 C    1.477    28 C    1.373    65 H    0.973
    36   6 C    3.927 --    40 N    1.318    27 C    1.317    37 C    1.120
    37   6 C    3.967 --    38 C    1.719    36 C    1.120    66 H    0.973
    38   6 C    3.966 --    37 C    1.719    39 C    1.119    67 H    0.976
    39   6 C    3.930 --     1 C    1.366    40 N    1.299    38 C    1.119
    40   7 N    3.010 --    36 C    1.318    39 C    1.299
    41   1 H    1.002 --     1 C    0.971
    42   1 H    0.998 --     3 C    0.977
    43   1 H    1.006 --     4 C    0.974
    44   1 H    0.986 --     6 N    0.873
    45   1 H    1.005 --     9 C    0.972
    46   1 H    1.001 --    10 C    0.970
    47   1 H    0.966 --    12 N    0.931
    48   1 H    1.003 --    13 C    0.984
    49   1 H    1.007 --    13 C    0.990
    50   1 H    1.012 --    13 C    0.986
    51   1 H    0.999 --    14 C    0.971
    52   1 H    1.005 --    15 C    0.973
    53   1 H    1.005 --    17 C    0.974
    54   1 H    1.003 --    18 C    0.974
    55   1 H    1.002 --    23 C    0.975
    56   1 H    1.006 --    24 C    0.974
    57   1 H    0.988 --    26 N    0.873
    58   1 H    1.006 --    29 C    0.972
    59   1 H    1.001 --    30 C    0.970
    60   1 H    0.966 --    32 N    0.931
    61   1 H    1.012 --    33 C    0.986
    62   1 H    1.003 --    33 C    0.984
    63   1 H    1.007 --    33 C    0.990
    64   1 H    0.999 --    34 C    0.971
    65   1 H    1.005 --    35 C    0.973
    66   1 H    1.006 --    37 C    0.973
    67   1 H    0.999 --    38 C    0.976
    68   6 C    3.922 --   106 C    1.366    69 C    1.345   108 H    0.971
    69   6 C    3.904 --    68 C    1.345    70 C    1.232    73 N    1.169
    70   6 C    3.951 --    71 C    1.591    69 C    1.232   109 H    0.977
    71   6 C    3.959 --    70 C    1.591    72 C    1.238   110 H    0.974
    72   6 C    3.894 --    74 C    1.299    71 C    1.238    73 N    1.177
    73   7 N    3.468 --    72 C    1.177    69 C    1.169   111 H    0.873
    74   6 C    3.939 --    83 C    1.334    72 C    1.299    75 C    1.036
    75   6 C    3.988 --    76 C    1.383    82 C    1.374    74 C    1.036
    76   6 C    3.986 --    77 C    1.465    75 C    1.383   112 H    0.972
    77   6 C    3.990 --    76 C    1.465    78 C    1.353   113 H    0.970
    78   6 C    3.952 --    77 C    1.353    81 C    1.345    79 N    1.110
    79   7 N    3.180 --    78 C    1.110    80 C    0.971   114 H    0.931
    80   6 C    3.968 --   116 H    0.990   117 H    0.986   115 H    0.984
                            79 N    0.971
    81   6 C    3.989 --    82 C    1.476    78 C    1.345   118 H    0.971
    82   6 C    3.987 --    81 C    1.476    75 C    1.374   119 H    0.973
    83   6 C    3.913 --    74 C    1.334    86 N    1.286    84 C    1.127
    84   6 C    3.966 --    85 C    1.707    83 C    1.127   120 H    0.973
    85   6 C    3.963 --    84 C    1.707    87 C    1.130   121 H    0.974
    86   7 N    3.020 --    87 C    1.344    83 C    1.286
    87   6 C    3.909 --    86 N    1.344    88 C    1.252    85 C    1.130
    88   6 C    3.934 --    87 C    1.252    89 C    1.248   146 C    1.194
    89   6 C    3.886 --    90 C    1.252    88 C    1.248    93 N    1.190
    90   6 C    3.958 --    91 C    1.579    89 C    1.252   122 H    0.975
    91   6 C    3.955 --    90 C    1.579    92 C    1.245   123 H    0.974
    92   6 C    3.897 --    94 C    1.306    91 C    1.245    93 N    1.164
    93   7 N    3.473 --    89 C    1.190    92 C    1.164   124 H    0.873
    94   6 C    3.924 --   103 C    1.317    92 C    1.306    95 C    1.038
    95   6 C    3.987 --    96 C    1.383   102 C    1.372    94 C    1.038
    96   6 C    3.987 --    97 C    1.465    95 C    1.383   125 H    0.972
    97   6 C    3.989 --    96 C    1.465    98 C    1.353   126 H    0.970
    98   6 C    3.951 --    97 C    1.353   101 C    1.344    99 N    1.110
    99   7 N    3.180 --    98 C    1.110   100 C    0.971   127 H    0.931
   100   6 C    3.968 --   130 H    0.990   128 H    0.986   129 H    0.984
                            99 N    0.971
   101   6 C    3.989 --   102 C    1.477    98 C    1.344   131 H    0.971
   102   6 C    3.986 --   101 C    1.477    95 C    1.372   132 H    0.973
   103   6 C    3.927 --   107 N    1.318    94 C    1.317   104 C    1.120
   104   6 C    3.967 --   105 C    1.719   103 C    1.120   133 H    0.973
   105   6 C    3.966 --   104 C    1.719   106 C    1.119   134 H    0.976
   106   6 C    3.930 --    68 C    1.366   107 N    1.299   105 C    1.119
   107   7 N    3.010 --   103 C    1.318   106 C    1.299
   108   1 H    1.002 --    68 C    0.971
   109   1 H    0.998 --    70 C    0.977
   110   1 H    1.006 --    71 C    0.974
   111   1 H    0.986 --    73 N    0.873
   112   1 H    1.006 --    76 C    0.972
   113   1 H    1.001 --    77 C    0.970
   114   1 H    0.966 --    79 N    0.931
   115   1 H    1.003 --    80 C    0.984
   116   1 H    1.007 --    80 C    0.990
   117   1 H    1.012 --    80 C    0.986
   118   1 H    0.999 --    81 C    0.971
   119   1 H    1.005 --    82 C    0.973
   120   1 H    1.005 --    84 C    0.973
   121   1 H    1.003 --    85 C    0.974
   122   1 H    1.002 --    90 C    0.975
   123   1 H    1.006 --    91 C    0.974
   124   1 H    0.988 --    93 N    0.873
   125   1 H    1.006 --    96 C    0.972
   126   1 H    1.001 --    97 C    0.970
   127   1 H    0.966 --    99 N    0.931
   128   1 H    1.012 --   100 C    0.986
   129   1 H    1.003 --   100 C    0.984
   130   1 H    1.007 --   100 C    0.990
   131   1 H    0.999 --   101 C    0.971
   132   1 H    1.005 --   102 C    0.973
   133   1 H    1.006 --   104 C    0.973
   134   1 H    0.999 --   105 C    0.976
   135   6 C    3.924 --   136 C    2.361   139 C    1.340   138 C    0.190
   136   6 C    3.923 --   135 C    2.361   137 C    1.339   140 C    0.189
   137   6 C    3.931 --   138 C    2.443   136 C    1.339
   138   6 C    3.889 --   137 C    2.443    21 C    1.194   135 C    0.190
   139   6 C    3.928 --   140 C    2.440   135 C    1.340
   140   6 C    3.890 --   139 C    2.440   147 C    1.197   136 C    0.189
   141   6 C    3.923 --   142 C    2.361   145 C    1.339   144 C    0.189
   142   6 C    3.924 --   141 C    2.361   143 C    1.340   146 C    0.190
   143   6 C    3.928 --   144 C    2.440   142 C    1.340
   144   6 C    3.890 --   143 C    2.440   167 C    1.197   141 C    0.189
   145   6 C    3.931 --   146 C    2.443   141 C    1.339
   146   6 C    3.889 --   145 C    2.443    88 C    1.194   142 C    0.190
   147   6 C    3.921 --   185 C    1.251   148 C    1.244   140 C    1.197
   148   6 C    3.886 --   149 C    1.256   147 C    1.244   152 N    1.190
   149   6 C    3.955 --   150 C    1.573   148 C    1.256   187 H    0.975
   150   6 C    3.956 --   149 C    1.573   151 C    1.250   188 H    0.974
   151   6 C    3.892 --   153 C    1.295   150 C    1.250   152 N    1.166
   152   7 N    3.470 --   148 C    1.190   151 C    1.166   189 H    0.874
   153   6 C    3.927 --   162 C    1.336   151 C    1.295   154 C    1.035
   154   6 C    3.987 --   161 C    1.384   155 C    1.373   153 C    1.035
   155   6 C    3.988 --   156 C    1.477   154 C    1.373   190 H    0.972
   156   6 C    3.989 --   155 C    1.477   157 C    1.344   191 H    0.971
   157   6 C    3.952 --   160 C    1.353   156 C    1.344   158 N    1.110
   158   7 N    3.181 --   157 C    1.110   159 C    0.971   192 H    0.931
   159   6 C    3.968 --   194 H    0.990   195 H    0.986   193 H    0.984
                           158 N    0.971
   160   6 C    3.989 --   161 C    1.464   157 C    1.353   196 H    0.970
   161   6 C    3.987 --   160 C    1.464   154 C    1.384   197 H    0.973
   162   6 C    3.915 --   153 C    1.336   165 N    1.284   163 C    1.127
   163   6 C    3.966 --   164 C    1.706   162 C    1.127   198 H    0.973
   164   6 C    3.963 --   163 C    1.706   166 C    1.131   199 H    0.974
   165   7 N    3.007 --   166 C    1.345   162 C    1.284
   166   6 C    3.909 --   165 N    1.345   167 C    1.251   164 C    1.131
   167   6 C    3.921 --   166 C    1.251   168 C    1.244   144 C    1.197
   168   6 C    3.886 --   169 C    1.256   167 C    1.244   172 N    1.190
   169   6 C    3.955 --   170 C    1.573   168 C    1.256   200 H    0.975
   170   6 C    3.956 --   169 C    1.573   171 C    1.250   201 H    0.974
   171   6 C    3.892 --   173 C    1.296   170 C    1.250   172 N    1.165
   172   7 N    3.470 --   168 C    1.190   171 C    1.165   202 H    0.874
   173   6 C    3.927 --   182 C    1.336   171 C    1.296   174 C    1.035
   174   6 C    3.987 --   175 C    1.383   181 C    1.374   173 C    1.035
   175   6 C    3.988 --   176 C    1.465   174 C    1.383   203 H    0.972
   176   6 C    3.989 --   175 C    1.465   177 C    1.353   204 H    0.970
   177   6 C    3.952 --   176 C    1.353   180 C    1.345   178 N    1.110
   178   7 N    3.180 --   177 C    1.110   179 C    0.971   205 H    0.931
   179   6 C    3.968 --   207 H    0.990   206 H    0.986   208 H    0.984
                           178 N    0.971
   180   6 C    3.989 --   181 C    1.476   177 C    1.345   209 H    0.971
   181   6 C    3.987 --   180 C    1.476   174 C    1.374   210 H    0.973
   182   6 C    3.915 --   173 C    1.336   186 N    1.284   183 C    1.127
   183   6 C    3.966 --   184 C    1.706   182 C    1.127   211 H    0.974
   184   6 C    3.963 --   183 C    1.706   185 C    1.131   212 H    0.974
   185   6 C    3.909 --   186 N    1.344   147 C    1.251   184 C    1.131
   186   7 N    3.007 --   185 C    1.344   182 C    1.284
   187   1 H    1.002 --   149 C    0.975
   188   1 H    1.006 --   150 C    0.974
   189   1 H    0.988 --   152 N    0.874
   190   1 H    1.005 --   155 C    0.972
   191   1 H    0.999 --   156 C    0.971
   192   1 H    0.966 --   158 N    0.931
   193   1 H    1.004 --   159 C    0.984
   194   1 H    1.007 --   159 C    0.990
   195   1 H    1.012 --   159 C    0.986
   196   1 H    1.001 --   160 C    0.970
   197   1 H    1.005 --   161 C    0.973
   198   1 H    1.006 --   163 C    0.973
   199   1 H    1.003 --   164 C    0.974
   200   1 H    1.002 --   169 C    0.975
   201   1 H    1.005 --   170 C    0.974
   202   1 H    0.987 --   172 N    0.874
   203   1 H    1.005 --   175 C    0.972
   204   1 H    1.001 --   176 C    0.970
   205   1 H    0.966 --   178 N    0.931
   206   1 H    1.012 --   179 C    0.986
   207   1 H    1.007 --   179 C    0.990
   208   1 H    1.003 --   179 C    0.984
   209   1 H    0.999 --   180 C    0.971
   210   1 H    1.005 --   181 C    0.973
   211   1 H    1.006 --   183 C    0.974
   212   1 H    1.003 --   184 C    0.974
 ---------------------------------------------------------------------------

           -------------------------------------------------
          | TOTAL ENERGY             -341.222952734526 Eh   |
          | GRADIENT NORM               0.000543265673 Eh/α |
          | HOMO-LUMO GAP               0.808293263774 eV   |
           -------------------------------------------------

 * finished run on 2022/07/31 at 04:49:39.308
