   * xtb version 6.5.1 (b24c23e) compiled by 'conda@728c89f4b128' on 2022-07-12
          program call               : xtb Co_Ph3OH_C6_3.xyz --gfn 1 --opt -T 48

   ID    Z sym.   atoms
    1   27 Co     1, 63, 137
    2    6 C      2-6, 8-11, 13, 15, 17-20, 22-27, 29-32, 34, 36, 38-42,
                  64-68, 70-73, 75, 77, 79-82, 84-89, 91-94, 96, 98, 100-104,
                  125-136, 138-142, 144-147, 149, 151, 153-156, 158-163,
                  165-168, 170, 172, 174-178
    3    7 N      7, 21, 28, 43, 69, 83, 90, 105, 143, 157, 164, 179
    4    8 O      12, 14, 16, 33, 35, 37, 74, 76, 78, 95, 97, 99, 148, 150,
                  152, 169, 171, 173
    5    1 H      44-62, 106-124, 180-197

          :  Hamiltonian                  GFN1-xTB          :
 * total energy  :  -391.0020680 Eh     change       -0.9361884E-08 Eh
 * total energy  :  -391.1541388 Eh     change       -0.1520708E+00 Eh
 * total energy  :  -391.2475707 Eh     change       -0.9343188E-01 Eh
 * total energy  :  -391.2891993 Eh     change       -0.4162859E-01 Eh
 * total energy  :  -391.3223007 Eh     change       -0.3310144E-01 Eh
 * total energy  :  -391.3584879 Eh     change       -0.3618722E-01 Eh
 * total energy  :  -391.3989199 Eh     change       -0.4043193E-01 Eh
 * total energy  :  -391.4327808 Eh     change       -0.3386092E-01 Eh
 * total energy  :  -391.4580766 Eh     change       -0.2529582E-01 Eh
 * total energy  :  -391.4831173 Eh     change       -0.2504069E-01 Eh
 * total energy  :  -391.7218539 Eh     change       -0.8007888E-05 Eh
 * total energy  :  -391.7218476 Eh     change        0.6246620E-05 Eh
 * total energy  :  -391.7218591 Eh     change       -0.1151429E-04 Eh
 * total energy  :  -391.7218648 Eh     change       -0.5725260E-05 Eh
 * total energy  :  -391.7218706 Eh     change       -0.5749238E-05 Eh
 * total energy  :  -391.7218802 Eh     change       -0.9571496E-05 Eh
 * total energy  :  -391.7218870 Eh     change       -0.6849083E-05 Eh
 * total energy  :  -391.7218931 Eh     change       -0.6105323E-05 Eh
 * total energy  :  -391.7218976 Eh     change       -0.4446244E-05 Eh
   *** GEOMETRY OPTIMIZATION CONVERGED AFTER 105 ITERATIONS ***

 final structure:
================
197
 xtb: 6.5.1 (b24c23e)
Co          30.78488441345188        0.00635287868717        0.03003886582275
C           27.41240986159536        0.04200333276781        0.09101736296718
C           28.07369034214540        1.22346759416305       -0.16766235680782
C           27.41224880917014        2.46731607255549       -0.41972915646389
C           28.37510931914579        3.41756268844801       -0.45954700140242
C           29.62457324675870        2.75326649254649       -0.22628672954991
N           29.43246960677605        1.40105780468337       -0.09719799890845
C           30.81719169794794        3.41586374164899        0.03250569852921
C           30.82766129190263        4.90000881619705        0.02722016829844
C           30.59798480139424        5.59552971498317       -1.15918228110677
C           30.60908884020487        6.98572044103481       -1.16387574771406
O           30.39407836886999        7.67333284863547       -2.31168397747708
C           30.84279384080553        7.68321516714783        0.02241671258696
O           30.84418506268637        9.05309874318102       -0.01223871628509
C           31.06702506137768        6.98709656848421        1.20732745915571
O           31.28385950272676        7.74011921278776        2.33122575510490
C           31.06377507670148        5.59753492478735        1.21423096024401
C           31.98972220240303        2.73414281765286        0.31976606444818
C           33.23730927243047        3.37199044130452        0.61617389776856
C           34.17633674087701        2.39674684449901        0.65750925257435
N           32.16232221959362        1.37217873876056        0.21194444303607
C           33.50395415909495        1.16934008692561        0.37038280766568
C           34.17681620397072       -0.02940165093718        0.11645430589155
C           33.49407789671952       -1.20692287107890       -0.20177431821409
C           34.14891525355979       -2.42689249579824       -0.55363153724562
C           33.18390691460683       -3.37336933947179       -0.64287898921160
C           31.94424409668012       -2.73060782916344       -0.32402778192755
N           32.14247429749798       -1.38300208747549       -0.11918476855153
C           30.74715984577993       -3.40133598252452       -0.12868815027384
C           30.72211103465914       -4.88005830426116       -0.22094627660391
C           31.51486709128245       -5.65124926651441        0.62941649997264
C           31.48476554139561       -7.03812018138163        0.54306805828594
O           32.24348157025811       -7.79724904930221        1.37059835146267
C           30.66754263643122       -7.65839370027425       -0.40352521845045
O           30.66275736416980       -9.02679060263255       -0.46957108280741
C           29.87909826491221       -6.88800711823071       -1.25465410265147
O           29.10685619519676       -7.56763695963316       -2.15979999659560
C           29.89826522687662       -5.50206504488756       -1.16328262584994
C           29.56834956960932       -2.72562996118703        0.16322376782669
C           28.32379379629663       -3.37029098921081        0.46401770481145
C           27.38589471466730       -2.39635991863170        0.53806008754806
C           28.05933872644720       -1.15931876295332        0.28497488735745
N           29.40597558582994       -1.36559422690976        0.11614769646593
H           26.32947059998398        0.05581865610908        0.12907993480446
H           26.34582719696604        2.57982333150558       -0.53421059255396
H           28.26116717114549        4.47914758398935       -0.60717901966309
H           30.42779240534020        5.06384039697795       -2.08638360885856
H           30.44204297318311        8.62286520727470       -2.11198196245623
H           31.02002603619846        9.37458106093225        0.88637737518083
H           31.42653851716462        7.17499057224697        3.10175320947627
H           31.22467169725223        5.06181847953059        2.14232643233078
H           33.37114159508194        4.43263354795088        0.75316806952426
H           35.23520623223290        2.48689264430889        0.83912825314444
H           35.21113131619562       -2.52927329950881       -0.70685094303067
H           33.29101859722743       -4.41575850272289       -0.89479400450913
H           32.14171437219854       -5.18113022468998        1.37604492302588
H           32.08471697078665       -8.73196040477447        1.15899560364544
H           30.04796537619960       -9.28992433596546       -1.17282532645616
H           28.60180933919213       -6.95442737474310       -2.70971585226578
H           29.29104064730249       -4.90826419357616       -1.83637764947188
H           28.19831558146655       -4.43224327817519        0.60071498281065
H           26.32933299478881       -2.48814694178813        0.73384765552053
Co          62.67210204824463       -0.05072383551788        0.07082429911525
C           66.04385584067882       -0.09571471253355        0.15620577210779
C           65.38571683070121       -1.23983123779567       -0.24126702866344
C           66.05003533963172       -2.44650893327610       -0.62945270647810
C           65.08721255455822       -3.38288556500865       -0.79648344618191
C           63.83511020919146       -2.74847803061791       -0.50225851161293
N           64.02610119471692       -1.42186562836207       -0.20986080510718
C           62.63958525234094       -3.43582835120947       -0.33941877519302
C           62.62896843617339       -4.90796860965199       -0.52841343346078
C           62.86439767403112       -5.45108446602948       -1.79077294579054
C           62.85246821418054       -6.82994615378169       -1.96801564246217
O           63.07255613180674       -7.37005048061285       -3.19118992455752
C           62.61289933729142       -7.66896366461558       -0.87846052866831
O           62.61105076058646       -9.02398773361605       -1.08272363548584
C           62.38379595248474       -7.12502836655418        0.38267975942683
O           62.16210820406238       -8.01144135028827        1.40369159323025
C           62.38728780653627       -5.74705746580043        0.56189870546001
C           61.46559558487370       -2.79368106757356        0.02302358156153
C           60.21761719856442       -3.46267824030131        0.23764230180061
C           59.28012915627517       -2.49962288439083        0.40542217390513
N           61.29427773677956       -1.42883828665032        0.08683577147816
C           59.95332985938030       -1.24638792575398        0.27351103727761
C           59.28040406767704       -0.02537182620482        0.17098453591528
C           59.96213378632324        1.18095558366824       -0.01442540103283
C           59.30589730440475        2.43164171754095       -0.22863764652118
C           60.27130010498492        3.38186938567412       -0.22499372472905
C           61.51238437804373        2.70874632512549        0.01648570151612
N           61.31421494114448        1.34679740924883        0.07747988368065
C           62.71000420349605        3.35469852189341        0.27989866007597
C           62.73671802262075        4.83468507817963        0.34424437528770
C           61.93940147133613        5.51358425973108        1.26611565515881
C           61.97110995714347        6.90180274388138        1.32615926855486
O           61.20738015697739        7.57052895448728        2.22385141327626
C           62.79538302254277        7.61694216318256        0.45558044518919
O           62.80195048160564        8.98443492568490        0.53410289769739
C           63.58905591687756        6.93895296022204       -0.46644012195586
O           64.36856699117192        7.70866956186426       -1.28936859602411
C           63.56766570341781        5.55115408537208       -0.52179508623931
C           63.88781690168572        2.65091770129819        0.50249505682801
C           65.13008348602420        3.25881656146155        0.87931818226337
C           66.06674099297713        2.28103582617382        0.85970522240289
C           65.39508591431948        1.07848684955709        0.47182205723722
N           64.05008587127685        1.30341202338676        0.31337428122260
H           67.12631366109377       -0.11492686113100        0.20445596300794
H           67.11790295942748       -2.54689743247899       -0.74171284071992
H           65.20226000123479       -4.41954445993913       -1.06827896946469
H           63.03973488843436       -4.80854283527021       -2.64385643578642
H           63.02160277156541       -8.33691767610821       -3.11150234667575
H           62.43018858840765       -9.45413920851158       -0.23183057984840
H           62.01650884129169       -7.54597454807932        2.23768609438734
H           62.22230726297189       -5.33043372821407        1.54853470607192
H           60.08271734962993       -4.53199040054233        0.23900223268162
H           58.22153737307680       -2.61093041055062        0.57651228380738
H           58.24276019863965        2.54998434219573       -0.36274894052893
H           60.16330348621145        4.44491287901295       -0.36535879452109
H           61.30774548570243        4.96876490061136        1.95574318808010
H           61.36631457307929        8.52230329886442        2.11168383185746
H           63.42061216524645        9.31970006824511       -0.13423831018033
H           64.87696629784045        7.15602939254421       -1.89731652392682
H           64.17866856467862        5.03052177225540       -1.24978691835758
H           65.25491762235602        4.30032593912220        1.12795791403860
H           67.12156270429297        2.35031993474509        1.07329042124180
C           39.37469037103109       -0.05098382269071        0.19291539137284
C           38.14493603316846       -0.05515950949688        0.18950453993558
C           36.80262806547412       -0.05189951396833        0.17650384527569
C           35.57793327196076       -0.04292639875732        0.15094052972600
C           40.71670760939254       -0.04504512964370        0.18497486268495
C           41.94195485477752       -0.03777751428415        0.17034638232440
C           55.31298547102508       -0.00372406130579        0.26416231897725
C           54.08313295674920       -0.00247910757028        0.26286423657158
C           52.74133261016127       -0.00527114021436        0.24464048098865
C           51.51622578059344       -0.01112570243713        0.21882013452172
C           56.65513528346149       -0.00774038287698        0.24901539379931
C           57.87967054379272       -0.01466776130772        0.21497524078557
Co          46.72996380029443       -0.01397675502116        0.04824085566782
C           43.34138682040962       -0.02978453652735        0.13863065031752
C           44.02894209513916        1.13103419450995        0.51025602950695
C           43.38844261429639        2.32724205749416        0.95437385088485
C           44.33832739634342        3.29560414572185        0.96266111343200
C           45.55421512464373        2.68504953079625        0.51880431025130
N           45.36570084175421        1.33813846821759        0.31776304681374
C           46.72059772050019        3.37750444531671        0.21401854650311
C           46.70504658559523        4.85561750792386        0.24639998030555
C           47.60571700736178        5.55685817024885        1.05026241407504
C           47.59740523199404        6.94801396344671        1.09074268828831
O           48.46026893500549        7.64099908747020        1.87773832578363
C           46.68311092728371        7.65968909770445        0.30633695308930
O           46.65546289717230        9.01646656794667        0.31780660627265
C           45.78679609479325        6.95085672980325       -0.49895003469780
O           44.92176241164326        7.70837889321911       -1.24495980166274
C           45.78479785458921        5.56399997975764       -0.53021376884264
C           47.89937293328708        2.71679134327019       -0.10876866676445
C           49.12845386469491        3.36319256478474       -0.45548233286888
C           50.09048396330351        2.40671578621420       -0.44213993411318
N           48.09610598946431        1.36183763637085        0.02686015568389
C           49.44141807330686        1.17916042065982       -0.11189871626259
C           50.11723381752032       -0.01357884993878        0.17413138047630
C           49.42677758802752       -1.21216715583513        0.38368105622090
C           50.06439536767063       -2.45780356470190        0.66932653489100
C           49.11549142922934       -3.41774247164606        0.54011057928935
C           47.90258553878064       -2.75232047261062        0.17236086159242
N           48.09162059841236       -1.39055409591186        0.15498059464707
C           46.74025261390220       -3.39667261269495       -0.23304895963934
C           46.75547558443258       -4.86802139551483       -0.39591423209956
C           47.67440450126872       -5.46065032090934       -1.26376490511939
C           47.67956574744831       -6.83995846825985       -1.43269407256442
O           48.55289601243437       -7.42540871507692       -2.28494427304613
C           46.77035158305338       -7.62971881587376       -0.72541159920702
O           46.81178910766842       -9.00178265815925       -0.92069094794376
C           45.88006938095941       -7.04300298183189        0.17216542844820
O           45.01494187136174       -7.81316972663331        0.89254219491521
C           45.85952851298507       -5.66111169554015        0.32248007418847
C           45.56417567492925       -2.69961766092510       -0.47798221096643
C           44.33810702151274       -3.29655419855013       -0.91346490177092
C           43.37531717962675       -2.34993567728376       -0.78481355057827
C           44.02074759608202       -1.17470807841769       -0.29447944009699
N           45.36533607424082       -1.37360838207838       -0.17016405854250
H           42.34379751683097        2.40459701268791        1.20950777269146
H           44.23392385986268        4.33086839818676        1.24398109067577
H           48.30736706318218        5.01589526124007        1.67509400446745
H           49.03929380231382        7.04534552024129        2.37122890447279
H           45.95724946811080        9.31176735001637       -0.28882313174220
H           44.34050460276520        7.14745193246143       -1.77482185096573
H           45.08986593278106        5.03828163569233       -1.17436754611967
H           49.23441381624418        4.41285696865663       -0.67605217992828
H           51.14626280353514        2.50965036864364       -0.63467662376955
H           51.10732764695497       -2.56899374190785        0.91869000207823
H           49.21838433522849       -4.48173463022597        0.67762633562639
H           48.36740077356654       -4.85497153182169       -1.83319052361217
H           48.40383946025058       -8.38562135755019       -2.26437871021272
H           45.91926548673455       -9.36864853108370       -0.96755411742968
H           45.31410627304642       -8.73327115613193        0.90548720893209
H           45.16578657388678       -5.21713101725144        1.02454750557728
H           44.23474649645683       -4.31042385657303       -1.26413807502684
H           42.32083127404103       -2.42755022397303       -0.99539836794078

          :  Hamiltonian                  GFN1-xTB          :
         :: total energy            -391.721897567302 Eh    ::
         :: gradient norm              0.000489363768 Eh/a0 ::
         :: HOMO-LUMO gap              0.005667321626 eV    ::
         :: SCC energy              -397.120867373875 Eh    ::
         :: repulsion energy           5.572950047043 Eh    ::

    * Orbital Energies and Occupations

         #    Occupation            Energy/Eh            Energy/eV
      -------------------------------------------------------------
         1        2.0000           -0.8145731             -22.1657
       ...           ...                  ...                  ...
       330        2.0000           -0.3944059             -10.7323
       331        2.0000           -0.3943461             -10.7307
       332        2.0000           -0.3940416             -10.7224
       333        1.9999           -0.3914310             -10.6514
       334        1.9999           -0.3912484             -10.6464
       335        1.9998           -0.3910911             -10.6421
       336        1.9998           -0.3910842             -10.6419
       337        1.9998           -0.3909948             -10.6395
       338        1.9998           -0.3909872             -10.6393
       339        1.9992           -0.3897025             -10.6043
       340        1.6688           -0.3837106             -10.4413
       341        1.1452           -0.3823672             -10.4047
       342        1.1438           -0.3823642             -10.4047 (HOMO)
       343        1.0440           -0.3821559             -10.3990 (LUMO)
       344                         -0.3448991              -9.3852
       345                         -0.3345267              -9.1029
       346                         -0.3305394              -8.9944
       347                         -0.3277152              -8.9176
       348                         -0.3275198              -8.9123
       349                         -0.3273931              -8.9088
       350                         -0.3082498              -8.3879
       351                         -0.2967715              -8.0756
       352                         -0.2940988              -8.0028
       353                         -0.2929404              -7.9713
       ...                                ...                  ...
       691                          1.5730028              42.8036
      -------------------------------------------------------------
                  HL-Gap            0.0002083 Eh            0.0057 eV

Wiberg/Mayer (AO) data.
largest (>0.10) Wiberg bond orders for each atom

     #   Z sym  total        # sym  WBO       # sym  WBO       # sym  WBO
 ---------------------------------------------------------------------------
     1  27 Co   3.020 --     7 N    0.636    43 N    0.634    28 N    0.630
                            21 N    0.630
     2   6 C    3.927 --    42 C    1.366     3 C    1.364    44 H    0.970
     3   6 C    3.925 --     2 C    1.364     7 N    1.202     4 C    1.174
     4   6 C    3.960 --     5 C    1.650     3 C    1.174    45 H    0.975
     5   6 C    3.963 --     4 C    1.650     6 C    1.176    46 H    0.973
     6   6 C    3.919 --     8 C    1.321     7 N    1.212     5 C    1.176
     7   7 N    3.345 --     6 C    1.212     3 C    1.202     1 Co   0.636
     8   6 C    3.930 --    18 C    1.335     6 C    1.321     9 C    1.021
     9   6 C    3.988 --    10 C    1.401    17 C    1.389     8 C    1.021
    10   6 C    3.977 --     9 C    1.401    11 C    1.379    47 H    0.970
    11   6 C    3.917 --    10 C    1.379    13 C    1.324    12 O    1.053
    12   8 O    2.049 --    11 C    1.053    48 H    0.847
    13   6 C    3.905 --    15 C    1.341    11 C    1.324    14 O    1.021
    14   8 O    2.021 --    13 C    1.021    49 H    0.846
    15   6 C    3.905 --    17 C    1.383    13 C    1.341    16 O    1.014
    16   8 O    2.025 --    15 C    1.014    50 H    0.861
    17   6 C    3.973 --     9 C    1.389    15 C    1.383    51 H    0.970
    18   6 C    3.916 --     8 C    1.335    21 N    1.193    19 C    1.181
    19   6 C    3.958 --    20 C    1.638    18 C    1.181    52 H    0.973
    20   6 C    3.961 --    19 C    1.638    22 C    1.189    53 H    0.973
    21   7 N    3.345 --    22 C    1.234    18 C    1.193     1 Co   0.630
    22   6 C    3.903 --    23 C    1.256    21 N    1.234    20 C    1.189
    23   6 C    3.931 --    22 C    1.256    24 C    1.255   128 C    1.197
    24   6 C    3.903 --    23 C    1.255    28 N    1.235    25 C    1.190
    25   6 C    3.962 --    26 C    1.638    24 C    1.190    54 H    0.974
    26   6 C    3.958 --    25 C    1.638    27 C    1.180    55 H    0.973
    27   6 C    3.917 --    29 C    1.337    28 N    1.190    26 C    1.180
    28   7 N    3.345 --    24 C    1.235    27 C    1.190     1 Co   0.630
    29   6 C    3.931 --    27 C    1.337    39 C    1.313    30 C    1.030
    30   6 C    3.988 --    31 C    1.397    38 C    1.385    29 C    1.030
    31   6 C    3.977 --    30 C    1.397    32 C    1.381    56 H    0.970
    32   6 C    3.918 --    31 C    1.381    34 C    1.324    33 O    1.053
    33   8 O    2.049 --    32 C    1.053    57 H    0.848
    34   6 C    3.903 --    36 C    1.340    32 C    1.324    35 O    1.021
    35   8 O    2.021 --    34 C    1.021    58 H    0.846
    36   6 C    3.905 --    38 C    1.385    34 C    1.340    37 O    1.014
    37   8 O    2.025 --    36 C    1.014    59 H    0.861
    38   6 C    3.973 --    36 C    1.385    30 C    1.385    60 H    0.969
    39   6 C    3.919 --    29 C    1.313    43 N    1.217    40 C    1.178
    40   6 C    3.963 --    41 C    1.646    39 C    1.178    61 H    0.973
    41   6 C    3.959 --    40 C    1.646    42 C    1.176    62 H    0.975
    42   6 C    3.925 --     2 C    1.366    43 N    1.200    41 C    1.176
    43   7 N    3.344 --    39 C    1.217    42 C    1.200     1 Co   0.634
    44   1 H    1.000 --     2 C    0.970
    45   1 H    0.998 --     4 C    0.975
    46   1 H    1.005 --     5 C    0.973
    47   1 H    0.999 --    10 C    0.970
    48   1 H    0.878 --    12 O    0.847
    49   1 H    0.876 --    14 O    0.846
    50   1 H    0.881 --    16 O    0.861
    51   1 H    1.000 --    17 C    0.970
    52   1 H    1.005 --    19 C    0.973
    53   1 H    1.002 --    20 C    0.973
    54   1 H    1.001 --    25 C    0.974
    55   1 H    1.005 --    26 C    0.973
    56   1 H    1.000 --    31 C    0.970
    57   1 H    0.878 --    33 O    0.848
    58   1 H    0.876 --    35 O    0.846
    59   1 H    0.881 --    37 O    0.861
    60   1 H    1.001 --    38 C    0.969
    61   1 H    1.005 --    40 C    0.973
    62   1 H    0.998 --    41 C    0.975
    63  27 Co   3.018 --    69 N    0.636   105 N    0.634    90 N    0.630
                            83 N    0.630
    64   6 C    3.926 --   104 C    1.366    65 C    1.364   106 H    0.970
    65   6 C    3.925 --    64 C    1.364    69 N    1.203    66 C    1.174
    66   6 C    3.960 --    67 C    1.650    65 C    1.174   107 H    0.975
    67   6 C    3.963 --    66 C    1.650    68 C    1.176   108 H    0.973
    68   6 C    3.919 --    70 C    1.321    69 N    1.213    67 C    1.176
    69   7 N    3.344 --    68 C    1.213    65 C    1.203    63 Co   0.636
    70   6 C    3.930 --    80 C    1.335    68 C    1.321    71 C    1.021
    71   6 C    3.988 --    72 C    1.401    79 C    1.389    70 C    1.021
    72   6 C    3.977 --    71 C    1.401    73 C    1.379   109 H    0.970
    73   6 C    3.917 --    72 C    1.379    75 C    1.324    74 O    1.053
    74   8 O    2.049 --    73 C    1.053   110 H    0.847
    75   6 C    3.905 --    77 C    1.341    73 C    1.324    76 O    1.021
    76   8 O    2.021 --    75 C    1.021   111 H    0.846
    77   6 C    3.905 --    79 C    1.383    75 C    1.341    78 O    1.014
    78   8 O    2.025 --    77 C    1.014   112 H    0.861
    79   6 C    3.973 --    71 C    1.389    77 C    1.383   113 H    0.970
    80   6 C    3.916 --    70 C    1.335    83 N    1.193    81 C    1.181
    81   6 C    3.958 --    82 C    1.638    80 C    1.181   114 H    0.973
    82   6 C    3.961 --    81 C    1.638    84 C    1.189   115 H    0.973
    83   7 N    3.345 --    84 C    1.234    80 C    1.193    63 Co   0.630
    84   6 C    3.903 --    85 C    1.256    83 N    1.234    82 C    1.189
    85   6 C    3.930 --    84 C    1.256    86 C    1.254   136 C    1.198
    86   6 C    3.903 --    85 C    1.254    90 N    1.236    87 C    1.190
    87   6 C    3.962 --    88 C    1.638    86 C    1.190   116 H    0.973
    88   6 C    3.958 --    87 C    1.638    89 C    1.180   117 H    0.973
    89   6 C    3.917 --    91 C    1.337    90 N    1.190    88 C    1.180
    90   7 N    3.345 --    86 C    1.236    89 C    1.190    63 Co   0.630
    91   6 C    3.930 --    89 C    1.337   101 C    1.312    92 C    1.030
    92   6 C    3.988 --    93 C    1.397   100 C    1.384    91 C    1.030
    93   6 C    3.977 --    92 C    1.397    94 C    1.381   118 H    0.970
    94   6 C    3.918 --    93 C    1.381    96 C    1.323    95 O    1.053
    95   8 O    2.049 --    94 C    1.053   119 H    0.847
    96   6 C    3.903 --    98 C    1.339    94 C    1.323    97 O    1.022
    97   8 O    2.022 --    96 C    1.022   120 H    0.846
    98   6 C    3.905 --   100 C    1.385    96 C    1.339    99 O    1.014
    99   8 O    2.025 --    98 C    1.014   121 H    0.861
   100   6 C    3.973 --    98 C    1.385    92 C    1.384   122 H    0.969
   101   6 C    3.919 --    91 C    1.312   105 N    1.218   102 C    1.179
   102   6 C    3.963 --   103 C    1.646   101 C    1.179   123 H    0.973
   103   6 C    3.959 --   102 C    1.646   104 C    1.176   124 H    0.975
   104   6 C    3.925 --    64 C    1.366   105 N    1.199   103 C    1.176
   105   7 N    3.344 --   101 C    1.218   104 C    1.199    63 Co   0.634
   106   1 H    1.000 --    64 C    0.970
   107   1 H    0.998 --    66 C    0.975
   108   1 H    1.005 --    67 C    0.973
   109   1 H    0.999 --    72 C    0.970
   110   1 H    0.877 --    74 O    0.847
   111   1 H    0.876 --    76 O    0.846
   112   1 H    0.881 --    78 O    0.861
   113   1 H    1.000 --    79 C    0.970
   114   1 H    1.005 --    81 C    0.973
   115   1 H    1.001 --    82 C    0.973
   116   1 H    1.001 --    87 C    0.973
   117   1 H    1.005 --    88 C    0.973
   118   1 H    1.000 --    93 C    0.970
   119   1 H    0.877 --    95 O    0.847
   120   1 H    0.876 --    97 O    0.846
   121   1 H    0.881 --    99 O    0.861
   122   1 H    1.001 --   100 C    0.969
   123   1 H    1.005 --   102 C    0.973
   124   1 H    0.998 --   103 C    0.975
   125   6 C    3.920 --   126 C    2.349   129 C    1.348   128 C    0.188
   126   6 C    3.917 --   125 C    2.349   127 C    1.346   130 C    0.187
   127   6 C    3.929 --   128 C    2.434   126 C    1.346
   128   6 C    3.881 --   127 C    2.434    23 C    1.197   125 C    0.188
   129   6 C    3.923 --   130 C    2.428   125 C    1.348
   130   6 C    3.884 --   129 C    2.428   138 C    1.204   126 C    0.187
   131   6 C    3.916 --   132 C    2.348   135 C    1.347   134 C    0.187
   132   6 C    3.920 --   131 C    2.348   133 C    1.349   136 C    0.188
   133   6 C    3.923 --   134 C    2.428   132 C    1.349
   134   6 C    3.883 --   133 C    2.428   159 C    1.205   131 C    0.187
   135   6 C    3.929 --   136 C    2.433   131 C    1.347
   136   6 C    3.880 --   135 C    2.433    85 C    1.198   132 C    0.188
   137  27 Co   3.033 --   164 N    0.629   143 N    0.628   179 N    0.624
                           157 N    0.624
   138   6 C    3.916 --   139 C    1.252   178 C    1.248   130 C    1.204
   139   6 C    3.904 --   138 C    1.252   143 N    1.232   140 C    1.195
   140   6 C    3.958 --   141 C    1.629   139 C    1.195   180 H    0.974
   141   6 C    3.960 --   140 C    1.629   142 C    1.188   181 H    0.973
   142   6 C    3.914 --   144 C    1.317   143 N    1.199   141 C    1.188
   143   7 N    3.335 --   139 C    1.232   142 C    1.199   137 Co   0.628
   144   6 C    3.923 --   154 C    1.322   142 C    1.317   145 C    1.039
   145   6 C    3.987 --   146 C    1.387   153 C    1.379   144 C    1.039
   146   6 C    3.972 --   145 C    1.387   147 C    1.383   182 H    0.969
   147   6 C    3.915 --   146 C    1.383   149 C    1.318   148 O    1.045
   148   8 O    2.053 --   147 C    1.045   183 H    0.866
   149   6 C    3.912 --   151 C    1.325   147 C    1.318   150 O    1.054
   150   8 O    2.049 --   149 C    1.054   184 H    0.849
   151   6 C    3.904 --   153 C    1.394   149 C    1.325   152 O    1.014
   152   8 O    2.027 --   151 C    1.014   185 H    0.860
   153   6 C    3.972 --   151 C    1.394   145 C    1.379   186 H    0.969
   154   6 C    3.914 --   144 C    1.322   157 N    1.194   155 C    1.187
   155   6 C    3.959 --   156 C    1.629   154 C    1.187   187 H    0.973
   156   6 C    3.958 --   155 C    1.629   158 C    1.196   188 H    0.974
   157   7 N    3.335 --   158 C    1.237   154 C    1.194   137 Co   0.624
   158   6 C    3.904 --   159 C    1.246   157 N    1.237   156 C    1.196
   159   6 C    3.916 --   160 C    1.254   158 C    1.246   134 C    1.205
   160   6 C    3.904 --   159 C    1.254   164 N    1.231   161 C    1.192
   161   6 C    3.959 --   162 C    1.633   160 C    1.192   189 H    0.974
   162   6 C    3.960 --   161 C    1.633   163 C    1.185   190 H    0.973
   163   6 C    3.914 --   165 C    1.320   164 N    1.198   162 C    1.185
   164   7 N    3.336 --   160 C    1.231   163 C    1.198   137 Co   0.629
   165   6 C    3.923 --   175 C    1.323   163 C    1.320   166 C    1.034
   166   6 C    3.988 --   174 C    1.394   167 C    1.393   165 C    1.034
   167   6 C    3.974 --   166 C    1.393   168 C    1.379   191 H    0.969
   168   6 C    3.917 --   167 C    1.379   170 C    1.330   169 O    1.056
   169   8 O    2.052 --   168 C    1.056   192 H    0.847
   170   6 C    3.887 --   172 C    1.346   168 C    1.330   171 O    0.982
   171   8 O    1.985 --   170 C    0.982   193 H    0.863
   172   6 C    3.910 --   174 C    1.380   170 C    1.346   173 O    1.028
   173   8 O    2.030 --   172 C    1.028   194 H    0.862
   174   6 C    3.974 --   166 C    1.394   172 C    1.380   195 H    0.969
   175   6 C    3.914 --   165 C    1.323   179 N    1.195   176 C    1.185
   176   6 C    3.959 --   177 C    1.631   175 C    1.185   196 H    0.973
   177   6 C    3.959 --   176 C    1.631   178 C    1.195   197 H    0.974
   178   6 C    3.904 --   138 C    1.248   179 N    1.236   177 C    1.195
   179   7 N    3.336 --   178 C    1.236   175 C    1.195   137 Co   0.624
   180   1 H    1.001 --   140 C    0.974
   181   1 H    1.005 --   141 C    0.973
   182   1 H    1.001 --   146 C    0.969
   183   1 H    0.886 --   148 O    0.866
   184   1 H    0.880 --   150 O    0.849
   185   1 H    0.881 --   152 O    0.860
   186   1 H    1.001 --   153 C    0.969
   187   1 H    1.005 --   155 C    0.973
   188   1 H    1.001 --   156 C    0.974
   189   1 H    1.001 --   161 C    0.974
   190   1 H    1.004 --   162 C    0.973
   191   1 H    1.000 --   167 C    0.969
   192   1 H    0.880 --   169 O    0.847
   193   1 H    0.883 --   171 O    0.863
   194   1 H    0.885 --   173 O    0.862
   195   1 H    1.000 --   174 C    0.969
   196   1 H    1.005 --   176 C    0.973
   197   1 H    1.001 --   177 C    0.974
 ---------------------------------------------------------------------------

           -------------------------------------------------
          | TOTAL ENERGY             -391.721897567302 Eh   |
          | GRADIENT NORM               0.000489363768 Eh/α |
          | HOMO-LUMO GAP               0.005667321626 eV   |
           -------------------------------------------------

 * finished run on 2022/07/30 at 04:05:22.628
