   * xtb version 6.5.1 (b24c23e) compiled by 'conda@728c89f4b128' on 2022-07-12
          program call               : xtb PhCHO_C6_3.xyz --gfn 1 --opt -T 48

   ID    Z sym.   atoms
    1    6 C      1-5, 7-12, 14-18, 20-25, 27-32, 34-39, 62-66, 68-73, 75-79,
                  81-86, 88-93, 95-100, 123-139, 141-146, 148-152, 154-159,
                  161-166, 168-173
    2    7 N      6, 19, 26, 40, 67, 80, 87, 101, 140, 153, 160, 174
    3    8 O      13, 33, 74, 94, 147, 167
    4    1 H      41-61, 102-122, 175-194

          :  Hamiltonian                  GFN1-xTB          :
 * total energy  :  -339.5874196 Eh     change       -0.8498091E-09 Eh
 * total energy  :  -339.8327567 Eh     change       -0.2453371E+00 Eh
 * total energy  :  -339.9465399 Eh     change       -0.1137831E+00 Eh
 * total energy  :  -340.0022001 Eh     change       -0.5566021E-01 Eh
 * total energy  :  -340.0549759 Eh     change       -0.5277586E-01 Eh
 * total energy  :  -340.1139794 Eh     change       -0.5900344E-01 Eh
 * total energy  :  -340.1537217 Eh     change       -0.3974228E-01 Eh
 * total energy  :  -340.1814791 Eh     change       -0.2775743E-01 Eh
 * total energy  :  -340.2057245 Eh     change       -0.2424540E-01 Eh
 * total energy  :  -340.2268065 Eh     change       -0.2108200E-01 Eh
 * total energy  :  -340.3661925 Eh     change       -0.3490339E-04 Eh
 * total energy  :  -340.3662088 Eh     change       -0.1627257E-04 Eh
 * total energy  :  -340.3662179 Eh     change       -0.9133589E-05 Eh
 * total energy  :  -340.3662366 Eh     change       -0.1867501E-04 Eh
 * total energy  :  -340.3662408 Eh     change       -0.4196366E-05 Eh
 * total energy  :  -340.3662314 Eh     change        0.9388204E-05 Eh
 * total energy  :  -340.3662497 Eh     change       -0.1831794E-04 Eh
 * total energy  :  -340.3662562 Eh     change       -0.6515032E-05 Eh
 * total energy  :  -340.3662601 Eh     change       -0.3913128E-05 Eh
   *** GEOMETRY OPTIMIZATION CONVERGED AFTER 72 ITERATIONS ***

 final structure:
================
194
 xtb: 6.5.1 (b24c23e)
C           26.54908261729835       -0.06661188071462       -0.13720631455051
C           27.16544885056420       -1.27928438390985       -0.41698485042886
C           26.52136325184815       -2.50320605923006       -0.75304801262550
C           27.48738972430737       -3.45328993577040       -0.92857666396183
C           28.75294301298334       -2.84225106011384       -0.69598222332604
N           28.50846748190189       -1.53103523058198       -0.40305888130008
C           30.01893765846803       -3.43497165423671       -0.77034421985763
C           30.06019795247000       -4.88406815412931       -1.07420025446178
C           30.72807113488872       -5.34929949554431       -2.21161218436946
C           30.76635879680058       -6.70064027901977       -2.49511754045060
C           30.14132704983090       -7.62012589328197       -1.64603664559860
C           30.20032481462750       -9.05754408598059       -1.96767375627761
O           30.76167766718042       -9.50448197520211       -2.93512024646958
C           29.47431236249660       -7.15726783829163       -0.50920461852769
C           29.43215156702179       -5.80318157553060       -0.22860075766093
C           31.23058378912158       -2.76335823056109       -0.58411594094795
C           32.52999808036488       -3.41148859742671       -0.60599762881979
C           33.44438958289774       -2.44055583361643       -0.40455403625718
N           31.37630055820613       -1.43172007877178       -0.34501094442523
C           32.70211712596090       -1.20480217115088       -0.24594041805733
C           33.33172869877108        0.03765645034419       -0.03251154533460
C           32.69009691381463        1.26869438310845        0.19827467017669
C           33.32808910385706        2.51894736223542        0.41443494506672
C           32.35694592315059        3.45522724197754        0.63689707235384
C           31.09466910936845        2.80246068447639        0.56824885767155
N           31.34753741468342        1.48578663320996        0.29030482066310
C           29.82909083097492        3.38095605355682        0.71767881238276
C           29.79229060953090        4.81941058167706        1.06700067883340
C           30.38991251660787        5.27361206013331        2.24732080167211
C           30.35233123236326        6.61402146803660        2.57854738465161
C           29.72189984846742        7.53422361572567        1.73427051565132
C           29.69901682821829        8.95977187010272        2.10841753730259
O           30.19988463711070        9.39587917532068        3.11324538522321
C           29.12784129195081        7.08286239705923        0.55310302912118
C           29.16087046135057        5.73934441026306        0.22480791954060
C           28.61541559937866        2.70133107054129        0.56466635897109
C           27.30610548007422        3.30426411642368        0.76279206901076
C           26.39938721154758        2.33841063416800        0.51366515992183
C           27.15335484751124        1.14239392497421        0.18066383772511
N           28.48425924364740        1.39614537015505        0.23041190539684
H           25.46414796020299       -0.07619671830943       -0.16549544027708
H           25.45452725228935       -2.62606320220488       -0.85018971993498
H           27.34231269938220       -4.48501370029072       -1.20493514038335
H           29.22950062772648       -0.84485992194279       -0.20677478659654
H           31.20200682381537       -4.63828461444255       -2.87877940130143
H           31.27858559747870       -7.06851753553120       -3.37771068654031
H           29.67777980334149       -9.71012969549435       -1.23595489364531
H           28.99008364486490       -7.86383461138942        0.15710348402395
H           28.92722622569547       -5.44952546731465        0.66341239759334
H           32.69812439055919       -4.46742637818917       -0.74191588562050
H           34.51775728098490       -2.52772804212630       -0.35271603563750
H           34.39495763865619        2.67264341848190        0.39724394760087
H           32.49879117714233        4.50763420097621        0.82082545681210
H           30.62886502630334        0.77998841395994        0.16778538617426
H           30.86666730552738        4.56134145759832        2.91134604972313
H           30.80734844030454        6.97223201810231        3.49577699398092
H           29.17499927846325        9.61432586402459        1.37957211672958
H           28.64088000424957        7.79062351959005       -0.10990302732595
H           28.71184790669509        5.39513803844921       -0.69998690880097
H           27.12935053313233        4.32419579582152        1.06403181271901
H           25.32300250111290        2.39568120342195        0.55443724956347
C           65.32268945347651        0.10400601936136       -0.08024357451305
C           64.70406294789049        1.26673588989667        0.36029090830852
C           65.34555650101947        2.47629693551301        0.74916867103766
C           64.37803708132751        3.36311063844143        1.12876178814257
C           63.11414675695991        2.72026365770615        0.99289414241966
N           63.36109855162051        1.46414913772702        0.51743130260178
C           61.84720772228771        3.25335324578410        1.25776179785221
C           61.80293685366681        4.63274917758447        1.79568795581883
C           61.13065845334390        5.64258385265352        1.09966608450945
C           61.08769259189127        6.92817686048360        1.60307350003641
C           61.71283013918974        7.23461223269387        2.81649245343538
C           61.64793241565516        8.61277425985613        3.33569263854105
O           61.08071300247125        9.51417997338818        2.77294655825286
C           62.38517721608336        6.22729169335640        3.51282161167566
C           62.43163116713126        4.94094853615474        3.00567253053857
C           60.63709902045669        2.58470689240193        1.05167669260109
C           59.33681249091011        3.13727804370263        1.38796386791979
C           58.42473885548358        2.20698421261275        1.03891397406668
N           60.49417489500242        1.33404884960259        0.53495748178556
C           59.16925333587618        1.08306960479611        0.50414979762399
C           58.54222491206863       -0.08703473554395        0.03183392252113
C           59.18538548535893       -1.24546116032259       -0.44161657322296
C           58.54862729879539       -2.41899955472747       -0.92586628800982
C           59.52167395777537       -3.31468252484636       -1.27219252116995
C           60.78421996832913       -2.71644038509178       -1.00292879738266
N           60.52904164935465       -1.46425663323081       -0.51105230326118
C           62.05128417268450       -3.26728537030232       -1.22503042787484
C           62.09394334108472       -4.65732302317880       -1.73384959893883
C           61.52808052825781       -5.69941248257678       -0.99213245136343
C           61.57289998077646       -6.99694027654831       -1.46378186068367
C           62.17874627745954       -7.28314354570380       -2.69179815491157
C           62.21079122402299       -8.67543123157372       -3.17475220518083
O           61.73928610317543       -9.60448310174373       -2.57018580252367
C           62.74084254774013       -6.24281932002724       -3.43582838442492
C           62.70082879231017       -4.94444160631698       -2.96006397132972
C           63.26309507539467       -2.60426852318391       -1.00051415643655
C           64.57445467290628       -3.20535459834984       -1.19069689654334
C           65.47863906713040       -2.25682337609443       -0.87484850111409
C           64.72136612695078       -1.08258989052957       -0.47794050997206
N           63.39097750291758       -1.33143600802705       -0.55802613411517
H           66.40726482171272        0.13359054405412       -0.10861983196020
H           66.41174987337423        2.63616877057883        0.73051359851894
H           64.52099155098159        4.37756537349643        1.46389870602340
H           62.64151107985359        0.78034801019175        0.30790079979840
H           60.65659858600382        5.41154551239605        0.15248236163022
H           60.57147254205495        7.71740969363484        1.06703323089323
H           62.17139828840446        8.75974496246616        4.30469873172259
H           62.86975036978484        6.45522551950086        4.45670812812043
H           62.94030001375306        4.15841023797568        3.55758624173782
H           59.16649522714378        4.09949244435534        1.84276510343008
H           57.35164769857907        2.24829103613235        1.13443550033153
H           57.48113274591095       -2.54944013294220       -1.00048512682051
H           59.38066691028535       -4.29867275904086       -1.68857391982390
H           61.24700081856923       -0.79770204500740       -0.24661165648493
H           61.07081268554089       -5.48374768705633       -0.03300233245132
H           61.14281326148295       -7.81121181642909       -0.89050578646115
H           62.71236788827253       -8.80587592460318       -4.15735486871897
H           63.20849283311276       -6.45526918366451       -4.39175508635846
H           63.12537389413140       -4.13767308112621       -3.54680819583013
H           64.75424047160317       -4.21958777506587       -1.50892325977877
H           66.55544809463768       -2.31880706015069       -0.88863356145653
C           38.53425805829097        0.08869669740996       -0.08693144956945
C           37.30630137647476        0.09055763752451       -0.07236110634581
C           35.96153460897170        0.07829687982484       -0.06132600834363
C           34.73820975940556        0.06149026446351       -0.04308867546681
C           39.87893497291947        0.08123076767194       -0.09492977378687
C           41.10261083194131        0.07068977003613       -0.09112243586689
C           54.56676454193885       -0.12303225362585        0.02805268961351
C           53.33892585374902       -0.11142304848050        0.02518805890897
C           51.99403440603604       -0.09468624301854        0.01925310302785
C           50.77069511108498       -0.07070077715157        0.01325700981133
C           55.91190702392294       -0.12281889928790        0.02964335166295
C           57.13531866419131       -0.11205494814529        0.03289190967455
C           42.50826949284871        0.05213271621845       -0.07918928657943
C           43.15534655095497        0.98802889099373       -0.90779369849326
C           42.52763579105989        1.91980379665387       -1.77470966611333
C           43.50829361289611        2.64740333671838       -2.39123699650147
C           44.76422739223368        2.18596060858261       -1.91032986294864
N           44.50024384036475        1.17709198669407       -1.02365873741861
C           46.03445499769814        2.64460449976503       -2.27950973918669
C           46.07445921042898        3.76830973667440       -3.24621467503406
C           46.67247089643931        3.60074839485220       -4.49886288429382
C           46.70370423675850        4.64555863772206       -5.40211374071675
C           46.14512619371360        5.88448825135102       -5.07076159424563
C           46.19307323120966        6.98466704821372       -6.05128559697074
O           46.68212042472805        6.88335212096097       -7.14715412323119
C           45.55177303962017        6.05445764001191       -3.81766457950793
C           45.51315180830193        5.00500792500579       -2.91677548847433
C           47.24885626152872        2.13440474117011       -1.81650291674764
C           48.54554060349702        2.68018477144314       -2.17731231808262
C           49.46662332134535        1.93047838328723       -1.53802439361606
N           47.40280643679412        1.08836910284112       -0.95997735686314
C           48.73126129998763        0.93489488597320       -0.78280995532444
C           49.36474307546162       -0.04725937669850        0.00339704841289
C           48.71737684788340       -1.01798235810468        0.79062049498671
C           49.34512432837847       -2.02137362171220        1.57367676711241
C           48.36477907810042       -2.74185308578161        2.19870431917996
C           47.10884335850422       -2.19274922829941        1.82066854296704
N           47.37248834427705       -1.16031496310358        0.96160095441837
C           45.83891248600200       -2.62862881401776        2.21788151121673
C           45.80053801716710       -3.74812263977159        3.18902685597958
C           45.19256479466191       -4.95958156163452        2.84837152560296
C           45.15665681396262       -6.00476211823010        3.75415320684305
C           45.72340296332033       -5.85685081596905        5.02235612977671
C           45.69487700558548       -6.95332211045028        6.00767998654026
O           46.16762036455528       -6.87215616978809        7.11242691935223
C           46.32999567310070       -4.64374898632145        5.36445273191873
C           46.37142608104710       -3.60281804814878        4.45714272916616
C           44.62411664334179       -2.09561113975356        1.78205436290603
C           43.32703650293821       -2.53933280954477        2.26166845334312
C           42.40613073495738       -1.79291508958673        1.61822275352889
C           43.14197541477753       -0.88853945495131        0.75647129262231
N           44.47024577663638       -1.08692777733092        0.88170217207988
H           41.46178293204989        2.01036853964135       -1.90826641970953
H           43.37575826223803        3.42843914778872       -3.12194175132640
H           45.20913318591531        0.64408389137310       -0.53103323959087
H           47.09688446856892        2.63848192654660       -4.76182913556506
H           47.15879981483830        4.52181108243004       -6.37893403571212
H           45.73480802336847        7.93229237839246       -5.69584738321983
H           45.12065658157497        7.01382149492858       -3.55060166232658
H           45.06206570903132        5.14330960369056       -1.94057411256794
H           48.70627954211041        3.52979786665572       -2.82081696640496
H           50.54049999241557        2.02524021730780       -1.55300016799473
H           50.41087159714745       -2.16862333156598        1.64090643518388
H           48.49743148198780       -3.58536615059131        2.85621597514047
H           46.66386643301939       -0.58788518375049        0.51498363864857
H           44.76254026093100       -5.08093032811410        1.86073201069470
H           44.68826269933517       -6.94407049192556        3.47919975284681
H           45.19464245113765       -7.87735451848436        5.64740533913757
H           46.76342802538077       -4.53627220809379        6.35296897426122
H           46.83046821384174       -2.65930527532102        4.73012943173355
H           43.16493700450474       -3.30710483992394        3.00061220450222
H           41.33212337325402       -1.82498511372059        1.70699290227561

          :  Hamiltonian                  GFN1-xTB          :
         :: total energy            -340.366260139496 Eh    ::
         :: gradient norm              0.000846990826 Eh/a0 ::
         :: HOMO-LUMO gap              0.988541912412 eV    ::
         :: SCC energy              -345.953354837272 Eh    ::
         :: repulsion energy           5.750949996245 Eh    ::

    * Orbital Energies and Occupations

         #    Occupation            Energy/Eh            Energy/eV
      -------------------------------------------------------------
         1        2.0000           -0.8183359             -22.2681
       ...           ...                  ...                  ...
       295        2.0000           -0.4294165             -11.6850
       296        2.0000           -0.4289599             -11.6726
       297        2.0000           -0.4283731             -11.6566
       298        2.0000           -0.4280088             -11.6467
       299        2.0000           -0.4275768             -11.6350
       300        2.0000           -0.4269165             -11.6170
       301        2.0000           -0.4247267             -11.5574
       302        2.0000           -0.4128561             -11.2344
       303        2.0000           -0.4122360             -11.2175
       304        2.0000           -0.4115011             -11.1975
       305        2.0000           -0.3988029             -10.8520
       306        2.0000           -0.3959888             -10.7754
       307        2.0000           -0.3917833             -10.6610 (HOMO)
       308                         -0.3554550              -9.6724 (LUMO)
       309                         -0.3496421              -9.5142
       310                         -0.3481751              -9.4743
       311                         -0.3471551              -9.4466
       312                         -0.3464832              -9.4283
       313                         -0.3453794              -9.3983
       314                         -0.3300486              -8.9811
       315                         -0.3291458              -8.9565
       316                         -0.3285491              -8.9403
       317                         -0.3241767              -8.8213
       318                         -0.3238878              -8.8134
       ...                                ...                  ...
       652                          1.5679979              42.6674
      -------------------------------------------------------------
                  HL-Gap            0.0363282 Eh            0.9885 eV

Wiberg/Mayer (AO) data.
largest (>0.10) Wiberg bond orders for each atom

     #   Z sym  total        # sym  WBO       # sym  WBO       # sym  WBO
 ---------------------------------------------------------------------------
     1   6 C    3.927 --    39 C    1.367     2 C    1.347    41 H    0.970
     2   6 C    3.901 --     1 C    1.347     3 C    1.229     6 N    1.169
     3   6 C    3.954 --     4 C    1.596     2 C    1.229    42 H    0.976
     4   6 C    3.959 --     3 C    1.596     5 C    1.233    43 H    0.974
     5   6 C    3.897 --     7 C    1.301     4 C    1.233     6 N    1.179
     6   7 N    3.471 --     5 C    1.179     2 C    1.169    44 H    0.873
     7   6 C    3.938 --    16 C    1.331     5 C    1.301     8 C    1.036
     8   6 C    3.986 --    15 C    1.382     9 C    1.379     7 C    1.036
     9   6 C    3.987 --    10 C    1.472     8 C    1.379    45 H    0.971
    10   6 C    3.988 --     9 C    1.472    11 C    1.369    46 H    0.968
    11   6 C    3.982 --    14 C    1.378    10 C    1.369    12 C    1.049
    12   6 C    3.864 --    13 O    1.808    11 C    1.049    47 H    0.942
    13   8 O    2.003 --    12 C    1.808
    14   6 C    3.993 --    15 C    1.466    11 C    1.378    48 H    0.971
    15   6 C    3.986 --    14 C    1.466     8 C    1.382    49 H    0.972
    16   6 C    3.914 --     7 C    1.331    19 N    1.289    17 C    1.124
    17   6 C    3.966 --    18 C    1.711    16 C    1.124    50 H    0.973
    18   6 C    3.964 --    17 C    1.711    20 C    1.127    51 H    0.974
    19   7 N    3.022 --    20 C    1.341    16 C    1.289
    20   6 C    3.907 --    19 N    1.341    21 C    1.257    18 C    1.127
    21   6 C    3.938 --    20 C    1.257    22 C    1.254   126 C    1.186
    22   6 C    3.884 --    21 C    1.254    23 C    1.248    26 N    1.188
    23   6 C    3.959 --    24 C    1.584    22 C    1.248    52 H    0.975
    24   6 C    3.955 --    23 C    1.584    25 C    1.240    53 H    0.974
    25   6 C    3.898 --    27 C    1.306    24 C    1.240    26 N    1.168
    26   7 N    3.475 --    22 C    1.188    25 C    1.168    54 H    0.872
    27   6 C    3.925 --    36 C    1.318    25 C    1.306    28 C    1.037
    28   6 C    3.986 --    35 C    1.382    29 C    1.379    27 C    1.037
    29   6 C    3.986 --    30 C    1.472    28 C    1.379    55 H    0.972
    30   6 C    3.988 --    29 C    1.472    31 C    1.369    56 H    0.968
                            35 C    0.100
    31   6 C    3.982 --    34 C    1.378    30 C    1.369    32 C    1.050
    32   6 C    3.864 --    33 O    1.807    31 C    1.050    57 H    0.942
    33   8 O    2.003 --    32 C    1.807
    34   6 C    3.993 --    35 C    1.466    31 C    1.378    58 H    0.971
    35   6 C    3.986 --    34 C    1.466    28 C    1.382    59 H    0.971
                            30 C    0.100
    36   6 C    3.928 --    40 N    1.319    27 C    1.318    37 C    1.117
    37   6 C    3.967 --    38 C    1.724    36 C    1.117    60 H    0.973
    38   6 C    3.966 --    37 C    1.724    39 C    1.116    61 H    0.975
    39   6 C    3.928 --     1 C    1.367    40 N    1.299    38 C    1.116
    40   7 N    3.013 --    36 C    1.319    39 C    1.299
    41   1 H    1.002 --     1 C    0.970
    42   1 H    0.997 --     3 C    0.976
    43   1 H    1.004 --     4 C    0.974
    44   1 H    0.986 --     6 N    0.873
    45   1 H    1.004 --     9 C    0.971
    46   1 H    1.005 --    10 C    0.968
    47   1 H    1.010 --    12 C    0.942
    48   1 H    1.000 --    14 C    0.971
    49   1 H    1.004 --    15 C    0.972
    50   1 H    1.004 --    17 C    0.973
    51   1 H    1.002 --    18 C    0.974
    52   1 H    1.001 --    23 C    0.975
    53   1 H    1.004 --    24 C    0.974
    54   1 H    0.987 --    26 N    0.872
    55   1 H    1.004 --    29 C    0.972
    56   1 H    1.005 --    30 C    0.968
    57   1 H    1.010 --    32 C    0.942
    58   1 H    1.000 --    34 C    0.971
    59   1 H    1.004 --    35 C    0.971
    60   1 H    1.004 --    37 C    0.973
    61   1 H    0.998 --    38 C    0.975
    62   6 C    3.927 --   100 C    1.367    63 C    1.347   102 H    0.970
    63   6 C    3.901 --    62 C    1.347    64 C    1.229    67 N    1.169
    64   6 C    3.954 --    65 C    1.596    63 C    1.229   103 H    0.976
    65   6 C    3.959 --    64 C    1.596    66 C    1.233   104 H    0.974
    66   6 C    3.897 --    68 C    1.301    65 C    1.233    67 N    1.179
    67   7 N    3.471 --    66 C    1.179    63 C    1.169   105 H    0.873
    68   6 C    3.938 --    77 C    1.331    66 C    1.301    69 C    1.036
    69   6 C    3.986 --    76 C    1.382    70 C    1.379    68 C    1.036
    70   6 C    3.987 --    71 C    1.472    69 C    1.379   106 H    0.971
    71   6 C    3.988 --    70 C    1.472    72 C    1.369   107 H    0.968
    72   6 C    3.982 --    75 C    1.378    71 C    1.369    73 C    1.049
    73   6 C    3.864 --    74 O    1.808    72 C    1.049   108 H    0.942
    74   8 O    2.003 --    73 C    1.808
    75   6 C    3.993 --    76 C    1.466    72 C    1.378   109 H    0.971
    76   6 C    3.986 --    75 C    1.466    69 C    1.382   110 H    0.972
    77   6 C    3.914 --    68 C    1.331    80 N    1.290    78 C    1.124
    78   6 C    3.966 --    79 C    1.712    77 C    1.124   111 H    0.973
    79   6 C    3.964 --    78 C    1.712    81 C    1.127   112 H    0.974
    80   7 N    3.023 --    81 C    1.340    77 C    1.290
    81   6 C    3.908 --    80 N    1.340    82 C    1.258    79 C    1.127
    82   6 C    3.939 --    81 C    1.258    83 C    1.255   134 C    1.185
    83   6 C    3.885 --    82 C    1.255    84 C    1.247    87 N    1.188
    84   6 C    3.959 --    85 C    1.585    83 C    1.247   113 H    0.975
    85   6 C    3.955 --    84 C    1.585    86 C    1.239   114 H    0.974
    86   6 C    3.898 --    88 C    1.307    85 C    1.239    87 N    1.168
    87   7 N    3.475 --    83 C    1.188    86 C    1.168   115 H    0.872
    88   6 C    3.925 --    97 C    1.318    86 C    1.307    89 C    1.036
    89   6 C    3.986 --    96 C    1.382    90 C    1.379    88 C    1.036
    90   6 C    3.986 --    91 C    1.472    89 C    1.379   116 H    0.972
    91   6 C    3.988 --    90 C    1.472    92 C    1.369   117 H    0.968
                            96 C    0.100
    92   6 C    3.982 --    95 C    1.378    91 C    1.369    93 C    1.050
    93   6 C    3.864 --    94 O    1.807    92 C    1.050   118 H    0.942
    94   8 O    2.003 --    93 C    1.807
    95   6 C    3.993 --    96 C    1.466    92 C    1.378   119 H    0.971
    96   6 C    3.987 --    95 C    1.466    89 C    1.382   120 H    0.971
                            91 C    0.100
    97   6 C    3.928 --   101 N    1.319    88 C    1.318    98 C    1.117
    98   6 C    3.967 --    99 C    1.724    97 C    1.117   121 H    0.973
    99   6 C    3.966 --    98 C    1.724   100 C    1.116   122 H    0.975
   100   6 C    3.928 --    62 C    1.367   101 N    1.299    99 C    1.116
   101   7 N    3.013 --    97 C    1.319   100 C    1.299
   102   1 H    1.002 --    62 C    0.970
   103   1 H    0.997 --    64 C    0.976
   104   1 H    1.004 --    65 C    0.974
   105   1 H    0.986 --    67 N    0.873
   106   1 H    1.004 --    70 C    0.971
   107   1 H    1.005 --    71 C    0.968
   108   1 H    1.010 --    73 C    0.942
   109   1 H    1.000 --    75 C    0.971
   110   1 H    1.004 --    76 C    0.972
   111   1 H    1.004 --    78 C    0.973
   112   1 H    1.002 --    79 C    0.974
   113   1 H    1.001 --    84 C    0.975
   114   1 H    1.004 --    85 C    0.974
   115   1 H    0.987 --    87 N    0.872
   116   1 H    1.004 --    90 C    0.972
   117   1 H    1.005 --    91 C    0.968
   118   1 H    1.010 --    93 C    0.942
   119   1 H    1.000 --    95 C    0.971
   120   1 H    1.004 --    96 C    0.971
   121   1 H    1.004 --    98 C    0.973
   122   1 H    0.998 --    99 C    0.975
   123   6 C    3.923 --   124 C    2.371   127 C    1.332   126 C    0.189
   124   6 C    3.922 --   123 C    2.371   125 C    1.331   128 C    0.189
   125   6 C    3.932 --   126 C    2.453   124 C    1.331
   126   6 C    3.889 --   125 C    2.453    21 C    1.186   123 C    0.189
   127   6 C    3.930 --   128 C    2.450   123 C    1.332
   128   6 C    3.889 --   127 C    2.450   135 C    1.189   124 C    0.189
   129   6 C    3.922 --   130 C    2.373   133 C    1.330   132 C    0.189
   130   6 C    3.923 --   129 C    2.373   131 C    1.330   134 C    0.189
   131   6 C    3.930 --   132 C    2.452   130 C    1.330
   132   6 C    3.889 --   131 C    2.452   155 C    1.188   129 C    0.189
   133   6 C    3.932 --   134 C    2.454   129 C    1.330
   134   6 C    3.888 --   133 C    2.454    82 C    1.185   130 C    0.189
   135   6 C    3.928 --   173 C    1.257   136 C    1.250   128 C    1.189
   136   6 C    3.885 --   137 C    1.252   135 C    1.250   140 N    1.188
   137   6 C    3.956 --   138 C    1.579   136 C    1.252   175 H    0.975
   138   6 C    3.955 --   137 C    1.579   139 C    1.244   176 H    0.974
   139   6 C    3.894 --   141 C    1.299   138 C    1.244   140 N    1.168
   140   7 N    3.472 --   136 C    1.188   139 C    1.168   177 H    0.873
   141   6 C    3.927 --   150 C    1.335   139 C    1.299   142 C    1.031
   142   6 C    3.986 --   149 C    1.384   143 C    1.381   141 C    1.031
   143   6 C    3.987 --   144 C    1.471   142 C    1.381   178 H    0.972
                           148 C    0.100
   144   6 C    3.988 --   143 C    1.471   145 C    1.370   179 H    0.968
                           149 C    0.101
   145   6 C    3.983 --   148 C    1.379   144 C    1.370   146 C    1.049
   146   6 C    3.864 --   147 O    1.809   145 C    1.049   180 H    0.942
   147   8 O    2.004 --   146 C    1.809
   148   6 C    3.993 --   149 C    1.465   145 C    1.379   181 H    0.971
                           143 C    0.100
   149   6 C    3.987 --   148 C    1.465   142 C    1.384   182 H    0.972
                           144 C    0.101
   150   6 C    3.916 --   141 C    1.335   153 N    1.287   151 C    1.123
   151   6 C    3.966 --   152 C    1.712   150 C    1.123   183 H    0.973
   152   6 C    3.964 --   151 C    1.712   154 C    1.127   184 H    0.974
   153   7 N    3.011 --   154 C    1.340   150 C    1.287
   154   6 C    3.908 --   153 N    1.340   155 C    1.258   152 C    1.127
   155   6 C    3.928 --   154 C    1.258   156 C    1.251   132 C    1.188
   156   6 C    3.885 --   157 C    1.251   155 C    1.251   160 N    1.188
   157   6 C    3.956 --   158 C    1.580   156 C    1.251   185 H    0.975
   158   6 C    3.956 --   157 C    1.580   159 C    1.244   186 H    0.974
   159   6 C    3.893 --   161 C    1.299   158 C    1.244   160 N    1.168
   160   7 N    3.472 --   156 C    1.188   159 C    1.168   187 H    0.874
   161   6 C    3.927 --   170 C    1.335   159 C    1.299   162 C    1.032
   162   6 C    3.986 --   163 C    1.383   169 C    1.381   161 C    1.032
   163   6 C    3.987 --   164 C    1.465   162 C    1.383   188 H    0.972
                           168 C    0.101
   164   6 C    3.993 --   163 C    1.465   165 C    1.378   189 H    0.971
   165   6 C    3.983 --   164 C    1.378   168 C    1.370   166 C    1.049
   166   6 C    3.864 --   167 O    1.808   165 C    1.049   190 H    0.942
   167   8 O    2.004 --   166 C    1.808
   168   6 C    3.988 --   169 C    1.471   165 C    1.370   191 H    0.968
                           163 C    0.101
   169   6 C    3.986 --   168 C    1.471   162 C    1.381   192 H    0.972
   170   6 C    3.916 --   161 C    1.335   174 N    1.287   171 C    1.124
   171   6 C    3.966 --   172 C    1.711   170 C    1.124   193 H    0.973
   172   6 C    3.964 --   171 C    1.711   173 C    1.128   194 H    0.974
   173   6 C    3.908 --   174 N    1.341   135 C    1.257   172 C    1.128
   174   7 N    3.011 --   173 C    1.341   170 C    1.287
   175   1 H    1.001 --   137 C    0.975
   176   1 H    1.004 --   138 C    0.974
   177   1 H    0.987 --   140 N    0.873
   178   1 H    1.004 --   143 C    0.972
   179   1 H    1.005 --   144 C    0.968
   180   1 H    1.010 --   146 C    0.942
   181   1 H    1.000 --   148 C    0.971
   182   1 H    1.004 --   149 C    0.972
   183   1 H    1.004 --   151 C    0.973
   184   1 H    1.002 --   152 C    0.974
   185   1 H    1.001 --   157 C    0.975
   186   1 H    1.004 --   158 C    0.974
   187   1 H    0.987 --   160 N    0.874
   188   1 H    1.004 --   163 C    0.972
   189   1 H    1.000 --   164 C    0.971
   190   1 H    1.010 --   166 C    0.942
   191   1 H    1.005 --   168 C    0.968
   192   1 H    1.004 --   169 C    0.972
   193   1 H    1.004 --   171 C    0.973
   194   1 H    1.002 --   172 C    0.974
 ---------------------------------------------------------------------------

           -------------------------------------------------
          | TOTAL ENERGY             -340.366260139496 Eh   |
          | GRADIENT NORM               0.000846990826 Eh/α |
          | HOMO-LUMO GAP               0.988541912412 eV   |
           -------------------------------------------------

 * finished run on 2022/07/30 at 10:17:23.329
