   * xtb version 6.5.1 (b24c23e) compiled by 'conda@728c89f4b128' on 2022-07-12
          program call               : xtb Cu_Ph_C6_3.xyz --gfn 1 --opt -T 48

   ID    Z sym.   atoms
    1   29 Cu     1, 57, 125
    2    6 C      2-6, 8-11, 13-29, 32-37, 58-62, 64-67, 69-85, 88-93,
                  113-124, 126-130, 132-135, 137-153, 156-161
    3    7 N      7, 12, 30, 31, 63, 68, 86, 87, 131, 136, 154, 155
    4    1 H      38-56, 94-112, 162-179

          :  Hamiltonian                  GFN1-xTB          :
 * total energy  :  -309.3734609 Eh     change        0.1809832E-07 Eh
 * total energy  :  -309.4845385 Eh     change       -0.1110776E+00 Eh
 * total energy  :  -309.5449843 Eh     change       -0.6044577E-01 Eh
 * total energy  :  -309.5592559 Eh     change       -0.1427162E-01 Eh
 * total energy  :  -309.5690822 Eh     change       -0.9826280E-02 Eh
 * total energy  :  -309.5781887 Eh     change       -0.9106469E-02 Eh
 * total energy  :  -309.5897443 Eh     change       -0.1155566E-01 Eh
 * total energy  :  -309.6053788 Eh     change       -0.1563446E-01 Eh
 * total energy  :  -309.6281708 Eh     change       -0.2279201E-01 Eh
 * total energy  :  -309.6583572 Eh     change       -0.3018643E-01 Eh
 * total energy  :  -309.9981805 Eh     change       -0.2662521E-04 Eh
 * total energy  :  -309.9982131 Eh     change       -0.3252617E-04 Eh
 * total energy  :  -309.9982280 Eh     change       -0.1495123E-04 Eh
 * total energy  :  -309.9982373 Eh     change       -0.9280439E-05 Eh
 * total energy  :  -309.9982452 Eh     change       -0.7882684E-05 Eh
 * total energy  :  -309.9982516 Eh     change       -0.6461103E-05 Eh
 * total energy  :  -309.9982572 Eh     change       -0.5539950E-05 Eh
 * total energy  :  -309.9982635 Eh     change       -0.6320324E-05 Eh
 * total energy  :  -309.9982684 Eh     change       -0.4932960E-05 Eh
   *** GEOMETRY OPTIMIZATION CONVERGED AFTER 86 ITERATIONS ***

 final structure:
================
179
 xtb: 6.5.1 (b24c23e)
Cu          26.26782950181574       -0.01400122253624        0.00265147640379
C           22.86099722026971       -0.03710277221118       -0.04296394292844
C           23.49434079640513       -1.26933916321022       -0.10336675481100
C           22.81741214133248       -2.53370734999201       -0.15087803466757
C           23.77493669415778       -3.49358679531145       -0.17935611832603
C           25.04660351304060       -2.82322749187046       -0.15814083254842
N           24.84478757653281       -1.47389838176689       -0.10624422162773
C           26.28984182262150       -3.45960745093048       -0.15822631932516
C           27.52354515444258       -2.80951372906819       -0.09989074231470
C           28.79969298409182       -3.46549404403928       -0.14329682598499
C           29.74801108357423       -2.49641835077859       -0.08430209909290
N           27.71534961046386       -1.45482455821927       -0.02612285831320
C           29.05941920269868       -1.24281271064585       -0.01245013546464
C           29.69787817026993        0.00885929956542        0.04323084368233
C           29.04072367240414        1.25139093827167        0.08702597022882
C           29.71120728167093        2.51653929277774        0.10826223318777
C           28.74914892526484        3.47329066017396        0.14017806215565
C           27.48269248464551        2.79747947893639        0.14734619405380
C           26.23928463346918        3.43160565310866        0.16911442016464
C           26.22711988113394        4.91461657625542        0.24096652881614
C           25.67478701772894        5.66758592211362       -0.79594296713267
C           25.66523625389040        7.05274632873687       -0.72869526556844
C           26.20207930601257        7.70180081955084        0.37484006170785
C           26.75170912710251        6.95960365883988        1.41134873382037
C           26.76704151167425        5.57440366310309        1.34562781236735
C           25.00516152818794        2.77850181326926        0.12712232813825
C           23.72378307652303        3.42699011165469        0.19512374180814
C           22.78054595361402        2.45478326287654        0.13035107541271
C           23.47604530536746        1.20357505532178        0.03231948582002
N           24.82333775029905        1.42830663987217        0.03831853669170
N           27.69383679978090        1.44424822095468        0.10497647169134
C           26.29938425687711       -4.94331710907425       -0.22632601325116
C           25.79825775372310       -5.60204415207305       -1.34949685403781
C           25.80962247955127       -6.98745468371464       -1.41279698660463
C           26.31561838274480       -7.73038465391945       -0.35496203435869
C           26.81362089729276       -7.08201190760440        0.76693763957744
C           26.80896426531546       -5.69664212876263        0.83155659353524
H           21.77584636155409       -0.04502572710915       -0.04388354021535
H           21.74574992903075       -2.65679967968763       -0.15440490396765
H           23.63968136956706       -4.56302755267610       -0.20107689280052
H           28.94676446276857       -4.53051711333605       -0.22177547505528
H           30.82024750913747       -2.61008090513493       -0.09472563391398
H           30.78156477486749        2.64623467105327        0.09320420049818
H           28.88124734038326        4.54311783265753        0.14498920858204
H           25.26645370756409        5.16233002476430       -1.66421435607791
H           25.23754276980605        7.62791637081347       -1.54245786536851
H           26.19217838531256        8.78462989978600        0.42694487903586
H           27.17015246993542        7.46181391353403        2.27659043072715
H           27.18580511652486        4.99581347006555        2.16157295942436
H           23.57260608534665        4.49000570254821        0.29286577245184
H           21.70730498493673        2.56075486801413        0.15352386622653
H           25.41315376298347       -5.02249800630205       -2.18114432466589
H           25.42258799136716       -7.48915073463510       -2.29280408416542
H           26.32173694477603       -8.81336308497625       -0.40478806119341
H           27.20762465778787       -7.65796743631966        1.59685971918775
H           27.18837901769776       -5.19172139502051        1.71295568387014
Cu          58.35126694056424        0.04033126709526        0.00622403884167
C           61.75798016655566        0.05672755932556       -0.04102964441001
C           61.12788636317906        1.29211091426842       -0.04667668483107
C           61.80811407554030        2.55558723335338       -0.03979954353765
C           60.85309894895413        3.51832327819370       -0.02688924388814
C           59.57968881472267        2.85100886484790       -0.03374361835504
N           59.77797969181960        1.50017677075370       -0.04027974269707
C           58.33814414988553        3.49004471857983       -0.00364225907828
C           57.10289004144390        2.84110529202006        0.02854304655650
C           55.82827323502341        3.50143461344462        0.01758052144261
C           54.87770300866786        2.53296321041399        0.03428778226201
N           56.90783057084718        1.48489958471684        0.04165148322979
C           55.56335637568971        1.27571768806046        0.04850178188773
C           54.92144973992883        0.02452993128684        0.05106493464935
C           55.57498798049900       -1.22056808854568        0.04242952527948
C           54.90123089328461       -2.48381983230693        0.01532913882141
C           55.86084210009644       -3.44353943972560        0.00665113992265
C           57.12914837130758       -2.77181285716714        0.03601644856302
C           58.37096187603911       -3.40942738381177        0.02562675009575
C           58.37954751939699       -4.89422549156389        0.03524340470968
C           58.92439917482671       -5.60459966073724       -1.03514830255163
C           58.93089323677447       -6.99138508358915       -1.02569188677566
C           58.39834249896731       -7.68466809247455        0.05274585094646
C           57.85618654715624       -6.98505508538766        1.12227792809265
C           57.84402565912749       -5.59827912045418        1.11442643218851
C           59.60670396617738       -2.75831556247983        0.00620919080939
C           60.88659099379477       -3.41242099668634        0.04080701178771
C           61.83222209304284       -2.44065244651202        0.01789849136989
C           61.13977959696134       -1.18452198835350       -0.02137683959171
N           59.79192203302064       -1.40593104949331       -0.02249855417280
N           56.92144985376768       -1.41745713889989        0.04864419560003
C           58.33191928048947        4.97530375351094       -0.00513558559685
C           58.83283892217528        5.68318995296544       -1.09810723025631
C           58.82396226847792        7.07006061029553       -1.09865721841822
C           58.32087462012916        7.76542332953877       -0.00756490744215
C           57.82306459534189        7.06796017250800        1.08457977127419
C           57.82521559655455        5.68108536243889        1.08645568143175
H           62.84315962118648        0.06187096048365       -0.04191555032834
H           62.88009727502430        2.67589310603845       -0.03813941663944
H           60.99113031477601        4.58737647087774       -0.00324714669915
H           55.68347446653168        4.56925668359044       -0.01160607333751
H           53.80574562565227        2.64962691136050        0.03151355807078
H           53.83048659320231       -2.61008686904805       -0.00116272943045
H           55.72583279719647       -4.51239765640650       -0.02941532609168
H           59.32935375573807       -5.06458384960631       -1.88385524796284
H           59.35286180543053       -7.53311343000646       -1.86499853816062
H           58.40577708158237       -8.76874695809037        0.05959863367735
H           57.44114099788868       -7.52189648775177        1.96815006267145
H           57.43127423332589       -5.05327015545642        1.95615279618910
H           61.03533759582121       -4.47917054266039        0.08913616093576
H           62.90524258747863       -2.55029255336984        0.03327337391377
H           59.21571582247305        5.14118051262652       -1.95573303518510
H           59.21079691827025        7.61037566760693       -1.95560096610412
H           58.31649929460843        8.84955194387425       -0.00861438728393
H           57.43070322768789        7.60645253388574        1.94015604869844
H           57.44587340157936        5.13749537346732        1.94463200548744
C           34.90025528809298        0.03426295244127        0.03216448153381
C           33.67194501188107        0.03270716639326        0.03744989133787
C           32.32739391637129        0.02628496464650        0.04103789495260
C           31.10357561109305        0.01966689376166        0.04460427408916
C           36.24465323221248        0.03655379555931        0.02649348941584
C           37.46865859758907        0.03708057270436        0.01952829437286
C           50.94724326379519        0.01617584915315        0.04959941992913
C           49.71893352251798        0.02102309113247        0.04638544197930
C           48.37453117386981        0.02630574151988        0.04225777064486
C           47.15056493148617        0.03265591291742        0.03715075068453
C           52.29185484431138        0.01650800540652        0.05234195967596
C           53.51570881431866        0.01920503238245        0.05054137524604
Cu          42.30962742494415        0.03603825378039        0.01908630498831
C           38.87366175641343        0.03702979377323        0.01698283648287
C           39.52199403330498       -1.21148224449134        0.01815802075702
C           38.84408889157693       -2.47178505747399        0.06584535579700
C           39.80006858116493       -3.43537563219110        0.04505537929690
C           41.06862885052097       -2.76797224298366       -0.02363004452900
N           40.86620296717656       -1.41330222853694       -0.03205659634264
C           42.30854988572117       -3.40906463378213       -0.05584150188018
C           43.54884089641793       -2.76788175097003       -0.05931799556556
C           44.81720616084643       -3.43247857673232       -0.15407549406972
C           45.77381835107732       -2.46962062643921       -0.12911939473196
N           43.75201617842736       -1.41501380741430        0.00894950399310
C           45.09650176105369       -1.21217136598738       -0.02789626365774
C           45.74557093609459        0.03461194163039        0.03060925159487
C           45.09726195567394        1.28196030388622        0.08303653974703
C           45.77483428655427        2.53882253442834        0.18896599313427
C           44.81887027317563        3.50253576345145        0.20608238852450
C           43.55061641299105        2.83903539034078        0.10207474733988
C           42.31071156611705        3.48116034166326        0.09093791663976
C           42.31085540110298        4.96565313047404        0.12245309068299
C           41.73145898671905        5.65011523387868        1.19160140690663
C           41.73450624382625        7.03660571224134        1.22071190586766
C           42.31008444558324        7.75549876057051        0.18187226068858
C           42.88617262310759        7.08176224024716       -0.88653223638729
C           42.89003752731291        5.69526986962750       -0.91648810720136
C           41.07044970453439        2.84070659709138        0.05394576565370
C           39.80241123087196        3.50866717926138       -0.01992103845235
C           38.84579647002456        2.54566172867484       -0.03926835698299
C           39.52274826932440        1.28510986883219        0.01339714146995
N           40.86709082748995        1.48620349447163        0.06502634815015
N           43.75318615521008        1.48599679198128        0.03568733517955
C           42.30844133933652       -4.89368012811837       -0.08701322755719
C           41.74007227388418       -5.57871474978146       -1.16160055265837
C           41.74393569446476       -6.96526813426656       -1.18988585676858
C           42.30925397761484       -7.68339637354756       -0.14489276060153
C           42.87407901474687       -7.00894531082000        0.92909307467133
C           42.87707228019227       -5.62245192819244        0.95831353409110
H           37.77397870309913       -2.59394748437210        0.11691384089442
H           39.66256890048047       -4.50375632927227        0.08624840323981
H           44.95430305325674       -4.49806292580169       -0.24222949261964
H           46.84400061307822       -2.59026787191983       -0.18229432384389
H           46.84472259607537        2.65834042109896        0.25032894879463
H           44.95621182088085        4.56799782417969        0.29526317634145
H           41.29178025571075        5.08990710057982        2.00934923202935
H           41.28589290618392        7.55803056112963        2.05904235595989
H           42.30967153372134        8.83938010747178        0.20488797957199
H           43.33444484034491        7.63868145687309       -1.70189778203533
H           43.33004124253691        5.17064148917828       -1.75733249767270
H           39.66549853205224        4.57693835501761       -0.06539005136693
H           37.77585479914013        2.66834289766127       -0.09287934985034
H           41.30846206170285       -5.01909414018620       -1.98404806541152
H           41.30414104528459       -7.48732913077632       -2.03250566223029
H           42.30966875371804       -8.76728760473378       -0.16742268407545
H           43.31422773287907       -7.56522118957515        1.74933201244668
H           43.30833889506679       -5.09711996140161        1.80325994562434

          :  Hamiltonian                  GFN1-xTB          :
         :: total energy            -309.998268429086 Eh    ::
         :: gradient norm              0.000534467402 Eh/a0 ::
         :: HOMO-LUMO gap              0.000021092966 eV    ::
         :: SCC energy              -315.172039002290 Eh    ::
         :: repulsion energy           5.334709544443 Eh    ::

    * Orbital Energies and Occupations

         #    Occupation            Energy/Eh            Energy/eV
      -------------------------------------------------------------
         1        2.0000           -0.7643122             -20.7980
       ...           ...                  ...                  ...
       279        2.0000           -0.4086223             -11.1192
       280        2.0000           -0.4085715             -11.1178
       281        2.0000           -0.4082964             -11.1103
       282        2.0000           -0.4080719             -11.1042
       283        2.0000           -0.4076490             -11.0927
       284        2.0000           -0.3956894             -10.7673
       285        2.0000           -0.3956890             -10.7672
       286        2.0000           -0.3955332             -10.7630
       287        2.0000           -0.3916530             -10.6574
       288        2.0000           -0.3854278             -10.4880
       289        2.0000           -0.3776865             -10.2774
       290        1.0164           -0.3561503              -9.6913
       291        0.9920           -0.3560982              -9.6899 (HOMO)
       292        0.9916           -0.3560974              -9.6899 (LUMO)
       293        0.0000           -0.3414581              -9.2915
       294                         -0.3328192              -9.0565
       295                         -0.3276697              -8.9163
       296                         -0.3276682              -8.9163
       297                         -0.3273923              -8.9088
       298                         -0.3259023              -8.8683
       299                         -0.3036969              -8.2640
       300                         -0.2950252              -8.0280
       301                         -0.2916749              -7.9369
       302                         -0.2833029              -7.7091
       ...                                ...                  ...
       619                          1.5809880              43.0209
      -------------------------------------------------------------
                  HL-Gap            0.0000008 Eh            0.0000 eV

Wiberg/Mayer (AO) data.
largest (>0.10) Wiberg bond orders for each atom

     #   Z sym  total        # sym  WBO       # sym  WBO       # sym  WBO
 ---------------------------------------------------------------------------
     1  29 Cu   2.191 --     7 N    0.506    30 N    0.506    31 N    0.504
                            12 N    0.504
     2   6 C    3.929 --     3 C    1.361    29 C    1.361    38 H    0.971
     3   6 C    3.917 --     2 C    1.361     7 N    1.229     4 C    1.171
     4   6 C    3.955 --     5 C    1.655     3 C    1.171    39 H    0.976
     5   6 C    3.958 --     4 C    1.655     6 C    1.173    40 H    0.973
     6   6 C    3.913 --     8 C    1.320     7 N    1.238     5 C    1.173
     7   7 N    3.244 --     6 C    1.238     3 C    1.229     1 Cu   0.506
     8   6 C    3.935 --     9 C    1.328     6 C    1.320    32 C    1.024
     9   6 C    3.908 --     8 C    1.328    12 N    1.220    10 C    1.179
    10   6 C    3.954 --    11 C    1.642     9 C    1.179    41 H    0.973
    11   6 C    3.956 --    10 C    1.642    13 C    1.187    42 H    0.974
    12   7 N    3.248 --    13 C    1.257     9 C    1.220     1 Cu   0.504
    13   6 C    3.897 --    14 C    1.259    12 N    1.257    11 C    1.187
    14   6 C    3.939 --    13 C    1.259    15 C    1.258   116 C    1.189
    15   6 C    3.897 --    14 C    1.258    31 N    1.257    16 C    1.187
    16   6 C    3.956 --    17 C    1.642    15 C    1.187    43 H    0.974
    17   6 C    3.954 --    16 C    1.642    18 C    1.179    44 H    0.973
    18   6 C    3.908 --    19 C    1.328    31 N    1.220    17 C    1.179
    19   6 C    3.935 --    18 C    1.328    26 C    1.319    20 C    1.026
    20   6 C    3.988 --    25 C    1.396    21 C    1.396    19 C    1.026
                            23 C    0.108
    21   6 C    3.988 --    22 C    1.447    20 C    1.396    45 H    0.973
                            24 C    0.110
    22   6 C    3.995 --    21 C    1.447    23 C    1.438    46 H    0.973
                            25 C    0.110
    23   6 C    3.990 --    24 C    1.438    22 C    1.438    47 H    0.974
                            20 C    0.108
    24   6 C    3.995 --    25 C    1.447    23 C    1.438    48 H    0.973
                            21 C    0.110
    25   6 C    3.988 --    24 C    1.447    20 C    1.396    49 H    0.973
                            22 C    0.110
    26   6 C    3.913 --    19 C    1.319    30 N    1.238    27 C    1.173
    27   6 C    3.958 --    28 C    1.655    26 C    1.173    50 H    0.973
    28   6 C    3.955 --    27 C    1.655    29 C    1.171    51 H    0.976
    29   6 C    3.917 --     2 C    1.361    30 N    1.229    28 C    1.171
    30   7 N    3.244 --    26 C    1.238    29 C    1.229     1 Cu   0.506
    31   7 N    3.248 --    15 C    1.257    18 C    1.220     1 Cu   0.504
    32   6 C    3.988 --    37 C    1.397    33 C    1.397     8 C    1.024
                            35 C    0.108
    33   6 C    3.988 --    34 C    1.447    32 C    1.397    52 H    0.973
                            36 C    0.110
    34   6 C    3.995 --    33 C    1.447    35 C    1.438    53 H    0.973
                            37 C    0.110
    35   6 C    3.991 --    34 C    1.438    36 C    1.438    54 H    0.974
                            32 C    0.108
    36   6 C    3.995 --    37 C    1.447    35 C    1.438    55 H    0.973
                            33 C    0.110
    37   6 C    3.988 --    36 C    1.447    32 C    1.397    56 H    0.973
                            34 C    0.110
    38   1 H    1.002 --     2 C    0.971
    39   1 H    0.998 --     4 C    0.976
    40   1 H    1.005 --     5 C    0.973
    41   1 H    1.005 --    10 C    0.973
    42   1 H    1.002 --    11 C    0.974
    43   1 H    1.002 --    16 C    0.974
    44   1 H    1.005 --    17 C    0.973
    45   1 H    1.005 --    21 C    0.973
    46   1 H    1.003 --    22 C    0.973
    47   1 H    1.003 --    23 C    0.974
    48   1 H    1.003 --    24 C    0.973
    49   1 H    1.005 --    25 C    0.973
    50   1 H    1.005 --    27 C    0.973
    51   1 H    0.998 --    28 C    0.976
    52   1 H    1.005 --    33 C    0.973
    53   1 H    1.003 --    34 C    0.973
    54   1 H    1.003 --    35 C    0.974
    55   1 H    1.003 --    36 C    0.973
    56   1 H    1.005 --    37 C    0.973
    57  29 Cu   2.191 --    86 N    0.506    63 N    0.506    87 N    0.504
                            68 N    0.504
    58   6 C    3.929 --    59 C    1.361    85 C    1.361    94 H    0.971
    59   6 C    3.917 --    58 C    1.361    63 N    1.229    60 C    1.171
    60   6 C    3.955 --    61 C    1.655    59 C    1.171    95 H    0.976
    61   6 C    3.958 --    60 C    1.655    62 C    1.173    96 H    0.973
    62   6 C    3.913 --    64 C    1.320    63 N    1.238    61 C    1.173
    63   7 N    3.244 --    62 C    1.238    59 C    1.229    57 Cu   0.506
    64   6 C    3.935 --    65 C    1.328    62 C    1.320    88 C    1.024
    65   6 C    3.908 --    64 C    1.328    68 N    1.220    66 C    1.179
    66   6 C    3.954 --    67 C    1.643    65 C    1.179    97 H    0.973
    67   6 C    3.956 --    66 C    1.643    69 C    1.187    98 H    0.974
    68   7 N    3.248 --    69 C    1.257    65 C    1.220    57 Cu   0.504
    69   6 C    3.897 --    70 C    1.258    68 N    1.257    67 C    1.187
    70   6 C    3.939 --    71 C    1.259    69 C    1.258   124 C    1.189
    71   6 C    3.897 --    70 C    1.259    87 N    1.257    72 C    1.187
    72   6 C    3.956 --    73 C    1.642    71 C    1.187    99 H    0.974
    73   6 C    3.954 --    72 C    1.642    74 C    1.179   100 H    0.973
    74   6 C    3.908 --    75 C    1.328    87 N    1.220    73 C    1.179
    75   6 C    3.935 --    74 C    1.328    82 C    1.319    76 C    1.026
    76   6 C    3.988 --    81 C    1.396    77 C    1.396    75 C    1.026
                            79 C    0.108
    77   6 C    3.988 --    78 C    1.447    76 C    1.396   101 H    0.973
                            80 C    0.110
    78   6 C    3.995 --    77 C    1.447    79 C    1.438   102 H    0.973
                            81 C    0.110
    79   6 C    3.990 --    80 C    1.438    78 C    1.438   103 H    0.974
                            76 C    0.108
    80   6 C    3.995 --    81 C    1.447    79 C    1.438   104 H    0.973
                            77 C    0.110
    81   6 C    3.988 --    80 C    1.447    76 C    1.396   105 H    0.973
                            78 C    0.110
    82   6 C    3.913 --    75 C    1.319    86 N    1.238    83 C    1.173
    83   6 C    3.958 --    84 C    1.655    82 C    1.173   106 H    0.973
    84   6 C    3.955 --    83 C    1.655    85 C    1.171   107 H    0.976
    85   6 C    3.917 --    58 C    1.361    86 N    1.229    84 C    1.171
    86   7 N    3.244 --    82 C    1.238    85 C    1.229    57 Cu   0.506
    87   7 N    3.248 --    71 C    1.257    74 C    1.220    57 Cu   0.504
    88   6 C    3.988 --    89 C    1.397    93 C    1.397    64 C    1.024
                            91 C    0.108
    89   6 C    3.988 --    90 C    1.447    88 C    1.397   108 H    0.973
                            92 C    0.110
    90   6 C    3.995 --    89 C    1.447    91 C    1.438   109 H    0.973
                            93 C    0.110
    91   6 C    3.991 --    92 C    1.438    90 C    1.438   110 H    0.974
                            88 C    0.108
    92   6 C    3.995 --    93 C    1.447    91 C    1.438   111 H    0.973
                            89 C    0.110
    93   6 C    3.988 --    92 C    1.447    88 C    1.397   112 H    0.973
                            90 C    0.110
    94   1 H    1.002 --    58 C    0.971
    95   1 H    0.998 --    60 C    0.976
    96   1 H    1.005 --    61 C    0.973
    97   1 H    1.005 --    66 C    0.973
    98   1 H    1.002 --    67 C    0.974
    99   1 H    1.002 --    72 C    0.974
   100   1 H    1.005 --    73 C    0.973
   101   1 H    1.005 --    77 C    0.973
   102   1 H    1.003 --    78 C    0.973
   103   1 H    1.003 --    79 C    0.974
   104   1 H    1.003 --    80 C    0.973
   105   1 H    1.005 --    81 C    0.973
   106   1 H    1.005 --    83 C    0.973
   107   1 H    0.998 --    84 C    0.976
   108   1 H    1.005 --    89 C    0.973
   109   1 H    1.003 --    90 C    0.973
   110   1 H    1.003 --    91 C    0.974
   111   1 H    1.003 --    92 C    0.973
   112   1 H    1.005 --    93 C    0.973
   113   6 C    3.927 --   114 C    2.369   117 C    1.335   116 C    0.191
   114   6 C    3.925 --   113 C    2.369   115 C    1.334   118 C    0.190
   115   6 C    3.935 --   116 C    2.451   114 C    1.334
   116   6 C    3.890 --   115 C    2.451    14 C    1.189   113 C    0.191
   117   6 C    3.932 --   118 C    2.448   113 C    1.335
   118   6 C    3.891 --   117 C    2.448   126 C    1.192   114 C    0.190
   119   6 C    3.925 --   120 C    2.369   123 C    1.334   122 C    0.190
   120   6 C    3.927 --   119 C    2.369   121 C    1.335   124 C    0.191
   121   6 C    3.932 --   122 C    2.449   120 C    1.335
   122   6 C    3.891 --   121 C    2.449   138 C    1.192   119 C    0.190
   123   6 C    3.935 --   124 C    2.451   119 C    1.334
   124   6 C    3.890 --   123 C    2.451    70 C    1.189   120 C    0.191
   125  29 Cu   2.163 --   154 N    0.498   155 N    0.498   136 N    0.498
                           131 N    0.498
   126   6 C    3.927 --   153 C    1.256   127 C    1.255   118 C    1.192
   127   6 C    3.898 --   131 N    1.260   126 C    1.255   128 C    1.188
   128   6 C    3.955 --   129 C    1.640   127 C    1.188   162 H    0.974
   129   6 C    3.955 --   128 C    1.640   130 C    1.181   163 H    0.973
   130   6 C    3.906 --   132 C    1.324   131 N    1.222   129 C    1.181
   131   7 N    3.241 --   127 C    1.260   130 C    1.222   125 Cu   0.498
   132   6 C    3.930 --   130 C    1.324   133 C    1.324   156 C    1.026
   133   6 C    3.906 --   132 C    1.324   136 N    1.222   134 C    1.181
   134   6 C    3.955 --   135 C    1.640   133 C    1.181   164 H    0.973
   135   6 C    3.955 --   134 C    1.640   137 C    1.188   165 H    0.974
   136   7 N    3.241 --   137 C    1.260   133 C    1.222   125 Cu   0.498
   137   6 C    3.898 --   136 N    1.260   138 C    1.255   135 C    1.188
   138   6 C    3.927 --   139 C    1.256   137 C    1.255   122 C    1.192
   139   6 C    3.898 --   155 N    1.260   138 C    1.256   140 C    1.188
   140   6 C    3.955 --   141 C    1.640   139 C    1.188   166 H    0.974
   141   6 C    3.955 --   140 C    1.640   142 C    1.181   167 H    0.973
   142   6 C    3.906 --   143 C    1.323   155 N    1.222   141 C    1.181
   143   6 C    3.930 --   150 C    1.324   142 C    1.323   144 C    1.026
   144   6 C    3.988 --   149 C    1.395   145 C    1.395   143 C    1.026
                           147 C    0.108
   145   6 C    3.988 --   146 C    1.447   144 C    1.395   168 H    0.973
                           148 C    0.110
   146   6 C    3.995 --   145 C    1.447   147 C    1.438   169 H    0.973
                           149 C    0.110
   147   6 C    3.990 --   148 C    1.438   146 C    1.438   170 H    0.974
                           144 C    0.108
   148   6 C    3.995 --   149 C    1.447   147 C    1.438   171 H    0.973
                           145 C    0.110
   149   6 C    3.988 --   148 C    1.447   144 C    1.395   172 H    0.973
                           146 C    0.110
   150   6 C    3.906 --   143 C    1.324   154 N    1.222   151 C    1.181
   151   6 C    3.955 --   152 C    1.640   150 C    1.181   173 H    0.973
   152   6 C    3.955 --   151 C    1.640   153 C    1.188   174 H    0.974
   153   6 C    3.898 --   154 N    1.260   126 C    1.256   152 C    1.188
   154   7 N    3.241 --   153 C    1.260   150 C    1.222   125 Cu   0.498
   155   7 N    3.241 --   139 C    1.260   142 C    1.222   125 Cu   0.498
   156   6 C    3.988 --   157 C    1.396   161 C    1.396   132 C    1.026
                           159 C    0.108
   157   6 C    3.988 --   158 C    1.447   156 C    1.396   175 H    0.973
                           160 C    0.110
   158   6 C    3.995 --   157 C    1.447   159 C    1.438   176 H    0.973
                           161 C    0.110
   159   6 C    3.990 --   158 C    1.438   160 C    1.438   177 H    0.974
                           156 C    0.108
   160   6 C    3.995 --   161 C    1.447   159 C    1.438   178 H    0.973
                           157 C    0.110
   161   6 C    3.988 --   160 C    1.447   156 C    1.396   179 H    0.973
                           158 C    0.110
   162   1 H    1.002 --   128 C    0.974
   163   1 H    1.005 --   129 C    0.973
   164   1 H    1.005 --   134 C    0.973
   165   1 H    1.002 --   135 C    0.974
   166   1 H    1.002 --   140 C    0.974
   167   1 H    1.005 --   141 C    0.973
   168   1 H    1.005 --   145 C    0.973
   169   1 H    1.003 --   146 C    0.973
   170   1 H    1.003 --   147 C    0.974
   171   1 H    1.003 --   148 C    0.973
   172   1 H    1.005 --   149 C    0.973
   173   1 H    1.005 --   151 C    0.973
   174   1 H    1.002 --   152 C    0.974
   175   1 H    1.005 --   157 C    0.973
   176   1 H    1.003 --   158 C    0.973
   177   1 H    1.003 --   159 C    0.974
   178   1 H    1.003 --   160 C    0.973
   179   1 H    1.005 --   161 C    0.973
 ---------------------------------------------------------------------------

           -------------------------------------------------
          | TOTAL ENERGY             -309.998268429086 Eh   |
          | GRADIENT NORM               0.000534467402 Eh/α |
          | HOMO-LUMO GAP               0.000021092966 eV   |
           -------------------------------------------------

 * finished run on 2022/07/30 at 08:58:56.100
