   * xtb version 6.5.1 (b24c23e) compiled by 'conda@728c89f4b128' on 2022-07-12
          program call               : xtb Cu_PhCHO_C2_2.xyz --gfn 1 --opt -T 48

   ID    Z sym.   atoms
    1   29 Cu     1, 61
    2    6 C      2-6, 8-13, 15-19, 21-26, 28-33, 35-40, 62-66, 68-73, 75-79,
                  81-86, 88-93, 95-100, 121, 122
    3    7 N      7, 20, 27, 41, 67, 80, 87, 101
    4    8 O      14, 34, 74, 94
    5    1 H      42-60, 102-120
########################################################################
[WARNING] Please study the warnings concerning your input carefully
-1- prog_main_parseArguments: Unknown option '-T' provided
########################################################################

          :  Hamiltonian                  GFN1-xTB          :
 * total energy  :  -221.4452963 Eh     change       -0.2083596E-09 Eh
 * total energy  :  -221.5968705 Eh     change       -0.1515742E+00 Eh
 * total energy  :  -221.6553482 Eh     change       -0.5847768E-01 Eh
 * total energy  :  -221.6694795 Eh     change       -0.1413139E-01 Eh
 * total energy  :  -221.6751369 Eh     change       -0.5657309E-02 Eh
 * total energy  :  -221.6785486 Eh     change       -0.3411714E-02 Eh
 * total energy  :  -221.6803008 Eh     change       -0.1752220E-02 Eh
 * total energy  :  -221.6817689 Eh     change       -0.1468066E-02 Eh
 * total energy  :  -221.6825919 Eh     change       -0.8230303E-03 Eh
 * total energy  :  -221.6832527 Eh     change       -0.6607908E-03 Eh
 * total energy  :  -221.6852944 Eh     change       -0.1858456E-04 Eh
 * total energy  :  -221.6853003 Eh     change       -0.5933644E-05 Eh
 * total energy  :  -221.6853168 Eh     change       -0.1648994E-04 Eh
 * total energy  :  -221.6853369 Eh     change       -0.2003528E-04 Eh
 * total energy  :  -221.6853493 Eh     change       -0.1248500E-04 Eh
 * total energy  :  -221.6853622 Eh     change       -0.1284228E-04 Eh
 * total energy  :  -221.6853714 Eh     change       -0.9194789E-05 Eh
 * total energy  :  -221.6853767 Eh     change       -0.5364038E-05 Eh
 * total energy  :  -221.6853806 Eh     change       -0.3895826E-05 Eh
   *** GEOMETRY OPTIMIZATION CONVERGED AFTER 40 ITERATIONS ***

 final structure:
================
122
 xtb: 6.5.1 (b24c23e)
Cu          17.10964993144441        0.06433707624351       -0.02799814241157
C           13.70115379738053        0.10621177930517       -0.09577925244098
C           14.33828690373314        1.33023955316457        0.03982609473760
C           13.66501948897515        2.59013615053810        0.17777843447286
C           14.62453748131689        3.53612436576924        0.32779371714828
C           15.89415150388306        2.86241640364996        0.27476104460805
N           15.68885835099042        1.52469022537746        0.10023730447897
C           17.13797225565577        3.47642914810666        0.43899098613101
C           17.14784935961101        4.94608349429747        0.64088890806733
C           17.61394161998733        5.49605014506611        1.83851753267278
C           17.61319790988278        6.86520323492897        2.02426146038975
C           17.15157111112532        7.71628408708589        1.01477389691015
C           17.16050243474929        9.17369058484215        1.23708814203435
O           17.54102019621222        9.69337086467290        2.25457194144947
C           16.68874121079646        7.16795321381726       -0.18373556904587
C           16.68451717649682        5.79656370066572       -0.36663322629045
C           18.36961639459991        2.81778477661568        0.43023402432469
C           19.64342913761926        3.46009879022171        0.58690346381888
C           20.59011886095697        2.49454180808342        0.47790954578474
N           18.56297575043260        1.47788777605174        0.22181160895591
C           19.90759999405138        1.25908512482408        0.23832120356806
C           20.54816708227477        0.02665204859873        0.01689410200975
C           19.88399058674392       -1.19184820380584       -0.21192586237878
C           20.54181516405619       -2.43271696260464       -0.48894455591201
C           19.57680581976436       -3.37854060659090       -0.61089922274644
C           18.31747840529616       -2.72008385475630       -0.41144374917119
N           18.53561562001942       -1.38650716438413       -0.18987884241520
C           17.07259279292909       -3.35236581534903       -0.46223333697867
C           17.06207506567037       -4.82535590476746       -0.62545888263123
C           16.44617220678620       -5.41347214060218       -1.73386023495330
C           16.42954602699523       -6.78923687318716       -1.87907412092011
C           17.02501034736118       -7.60616770399288       -0.91488403401080
C           17.01254529955992       -9.07475556694653       -1.04168450170614
O           17.50861151802611       -9.82050003888958       -0.23655436925779
C           17.64318867309129       -7.01827750445531        0.19381479730114
C           17.66414862425552       -5.64433275570970        0.33510896998326
C           15.83801404652925       -2.70528392669493       -0.36855024635157
C           14.55562559016949       -3.35622445293453       -0.37981155830805
C           13.61478802797387       -2.38424384293805       -0.28806233592212
C           14.31303893933025       -1.13327589784353       -0.20507627208692
N           15.65965789716070       -1.35786577766215       -0.24648204907773
H           12.61616568620622        0.11804526555769       -0.10278247086679
H           12.59417011439159        2.71859311509958        0.16762237825799
H           14.49100343142870        4.59564608440214        0.47572282560045
H           17.96043550133306        4.83847838666485        2.62775078848912
H           17.96744635870349        7.29979259223099        2.95284509375401
H           16.77901644135098        9.76781524018393        0.37913290318088
H           16.33165964444568        7.82113435193929       -0.97337294636333
H           16.33418550269072        5.37398986115791       -1.30167452919614
H           19.79261413425471        4.51503226373167        0.75000328536503
H           21.65894929440494        2.60381708133920        0.55405000934892
H           21.60694515628516       -2.55665818313888       -0.59005893513924
H           19.70235926142925       -4.42525607720708       -0.83552965698522
H           15.99405606093101       -4.78196862952923       -2.49041396569776
H           15.95292939734073       -7.23690466289785       -2.74520021686561
H           16.50060875824607       -9.44905529020452       -1.95399269948222
H           18.10101691323838       -7.66029802288684        0.93872002937214
H           18.13233351939033       -5.19209316767265        1.20217800006385
H           14.40137121376526       -4.42165101338306       -0.43743152608124
H           12.54173403002784       -2.49134008748564       -0.26800520460857
Cu          28.02812081667478       -0.05969668381412       -0.03685204857669
C           31.43660817015796       -0.09152060272149       -0.10999653190641
C           30.79946967944712       -1.32238069820616       -0.15005470548183
C           31.47273013150761       -2.58908604146675       -0.19291192469201
C           30.51320771555765       -3.54679004677285       -0.17910056767938
C           29.24359723496395       -2.87238737352506       -0.13565236902884
N           29.44889904498575       -1.52344466709494       -0.11792343949653
C           27.99977188532268       -3.50351877937706       -0.06052532292107
C           27.98988738087969       -4.98694595358046       -0.06998689675685
C           27.52376292386518       -5.70186295813735        1.03709906828731
C           27.52451602135503       -7.08351337553282        1.02597543434310
C           27.98615208447544       -7.78215562180016       -0.09441656828635
C           27.97718540099585       -9.25636431932824       -0.08193178242727
O           27.59687789139924       -9.91565290462181        0.85124032577178
C           28.44901103524872       -7.06873441223385       -1.20260973389384
C           28.45325427443384       -5.68527743677140       -1.18834133489378
C           26.76813198123473       -2.85033162718497        0.02459572374178
C           25.49431021611429       -3.50839742514140        0.08816861677600
C           24.54763042765709       -2.53715023371628        0.11776425981728
N           26.57478487315327       -1.49440812887719        0.00910923832625
C           25.23016214699672       -1.28017328568739        0.05657081585353
C           24.58960692450779       -0.02876389672821        0.01288440170257
C           25.25379105720984        1.20990099817852       -0.04002936231103
C           24.59597413690522        2.47757788025679       -0.13750832422868
C           25.56098988155936        3.43112090447444       -0.12349336978474
C           26.82031392512003        2.75096242316802       -0.01983085451066
N           26.60216459478978        1.39942793633854        0.00955337944827
C           28.06520660765165        3.38402440354589        0.01992918265066
C           28.07572448753336        4.86524740569361        0.06812558746365
C           28.69165628741049        5.60521683414343       -0.94521266708689
C           28.70821667086088        6.98764216121279       -0.89307515380317
C           28.11270262907478        7.65894290677404        0.17759536415752
C           28.12509863723191        9.13062530339917        0.26115550799354
O           27.62944426860082        9.75411211369857        1.16451488668034
C           27.49452780276729        6.91915721786745        1.19128304489691
C           27.47359049226025        5.53909223560395        1.13549557631337
C           29.29977997346814        2.73018690780016        0.02047840404006
C           30.58217541580735        3.37608144257992        0.10202962023753
C           31.52300258313870        2.40093496140900        0.05437067352579
C           30.82473761421437        1.15090544616066       -0.04164552283834
N           29.47812156899887        1.37911753380005       -0.05061178217814
H           32.52159652827033       -0.10225028013712       -0.11864979692026
H           32.54357844313756       -2.71479555220371       -0.22127128408761
H           30.64673771500530       -4.61658022053243       -0.18352825508662
H           27.17723437596254       -5.16338446578220        1.91192240490272
H           27.17023041180622       -7.64591041698576        1.88319478281444
H           28.35870501470419       -9.72225310636687       -1.01577589128040
H           28.80613089384237       -7.60281154871831       -2.07719946792003
H           28.80363956902362       -5.13385609995512       -2.05365447232161
H           25.34510912515719       -4.57580333073967        0.09936061645566
H           23.47879801341549       -2.65613528698922        0.17755275690782
H           23.53084486838208        2.61466930806497       -0.21994924975551
H           25.43544397812550        4.49915743720765       -0.19678394950166
H           29.14384985891950        5.08788477657340       -1.78394580423356
H           29.18487550173191        7.55408356765117       -1.68659755939110
H           28.63680179452315        9.63103234492168       -0.58866608296439
H           27.03663472197601        7.44855584820211        2.01998494672284
H           27.00536587758189        4.96799159302661        1.92929775468273
H           30.73644391128595        4.43885055058637        0.19675131091245
H           32.59605855538689        2.50407341751262        0.08945266542761
C           21.96029340802329        0.01112147597572        0.01656490113905
C           23.17748051383558       -0.01326502141043        0.01462884794274

          :  Hamiltonian                  GFN1-xTB          :
         :: total energy            -221.685380637420 Eh    ::
         :: gradient norm              0.000601446270 Eh/a0 ::
         :: HOMO-LUMO gap              0.002217399598 eV    ::
         :: SCC energy              -224.949338934166 Eh    ::
         :: repulsion energy           3.375438949054 Eh    ::

    * Orbital Energies and Occupations

         #    Occupation            Energy/Eh            Energy/eV
      -------------------------------------------------------------
         1        2.0000           -0.7911654             -21.5287
       ...           ...                  ...                  ...
       190        2.0000           -0.4234830             -11.5236
       191        2.0000           -0.4234497             -11.5227
       192        2.0000           -0.4203343             -11.4379
       193        2.0000           -0.4203301             -11.4378
       194        2.0000           -0.4201917             -11.4340
       195        2.0000           -0.4201265             -11.4322
       196        2.0000           -0.4201061             -11.4317
       197        2.0000           -0.4200850             -11.4311
       198        2.0000           -0.4079538             -11.1010
       199        2.0000           -0.4079217             -11.1001
       200        2.0000           -0.4079185             -11.1000
       201        2.0000           -0.3935027             -10.7078
       202        1.0214           -0.3677295             -10.0064 (HOMO)
       203        0.9786           -0.3676480             -10.0042 (LUMO)
       204                         -0.3503949              -9.5347
       205                         -0.3433018              -9.3417
       206                         -0.3432999              -9.3417
       207                         -0.3335295              -9.0758
       208                         -0.3268943              -8.8952
       209                         -0.3259258              -8.8689
       210                         -0.3217006              -8.7539
       211                         -0.3216950              -8.7538
       212                         -0.3050044              -8.2996
       213                         -0.2965007              -8.0682
       ...                                ...                  ...
       422                          1.3225327              35.9879
      -------------------------------------------------------------
                  HL-Gap            0.0000815 Eh            0.0022 eV

Wiberg/Mayer (AO) data.
largest (>0.10) Wiberg bond orders for each atom

     #   Z sym  total        # sym  WBO       # sym  WBO       # sym  WBO
 ---------------------------------------------------------------------------
     1  29 Cu   2.183 --     7 N    0.504    41 N    0.504    27 N    0.502
                            20 N    0.501
     2   6 C    3.930 --     3 C    1.362    40 C    1.362    42 H    0.971
     3   6 C    3.916 --     2 C    1.362     7 N    1.229     4 C    1.169
     4   6 C    3.955 --     5 C    1.658     3 C    1.169    43 H    0.975
     5   6 C    3.958 --     4 C    1.658     6 C    1.170    44 H    0.973
     6   6 C    3.913 --     8 C    1.319     7 N    1.240     5 C    1.170
     7   7 N    3.243 --     6 C    1.240     3 C    1.229     1 Cu   0.504
     8   6 C    3.932 --    17 C    1.324     6 C    1.319     9 C    1.029
     9   6 C    3.986 --    16 C    1.384    10 C    1.382     8 C    1.029
    10   6 C    3.988 --    11 C    1.470     9 C    1.382    45 H    0.972
                            15 C    0.100
    11   6 C    3.988 --    10 C    1.470    12 C    1.370    46 H    0.968
                            16 C    0.101
    12   6 C    3.984 --    15 C    1.378    11 C    1.370    13 C    1.049
    13   6 C    3.864 --    14 O    1.809    12 C    1.049    47 H    0.942
    14   8 O    2.004 --    13 C    1.809
    15   6 C    3.993 --    16 C    1.465    12 C    1.378    48 H    0.971
                            10 C    0.100
    16   6 C    3.988 --    15 C    1.465     9 C    1.384    49 H    0.972
                            11 C    0.101
    17   6 C    3.908 --     8 C    1.324    20 N    1.224    18 C    1.179
    18   6 C    3.954 --    19 C    1.642    17 C    1.179    50 H    0.973
    19   6 C    3.957 --    18 C    1.642    21 C    1.186    51 H    0.966
    20   7 N    3.247 --    21 C    1.254    17 C    1.224     1 Cu   0.501
    21   6 C    3.901 --    22 C    1.265    20 N    1.254    19 C    1.186
    22   6 C    3.940 --    21 C    1.265    23 C    1.265   121 C    1.174
    23   6 C    3.901 --    22 C    1.265    27 N    1.253    24 C    1.187
    24   6 C    3.957 --    25 C    1.641    23 C    1.187    52 H    0.966
    25   6 C    3.954 --    24 C    1.641    26 C    1.179    53 H    0.973
    26   6 C    3.908 --    28 C    1.321    27 N    1.225    25 C    1.179
    27   7 N    3.247 --    23 C    1.253    26 C    1.225     1 Cu   0.502
    28   6 C    3.933 --    26 C    1.321    37 C    1.318    29 C    1.034
    29   6 C    3.986 --    30 C    1.383    36 C    1.380    28 C    1.034
    30   6 C    3.987 --    31 C    1.466    29 C    1.383    54 H    0.972
                            35 C    0.100
    31   6 C    3.993 --    30 C    1.466    32 C    1.378    55 H    0.971
    32   6 C    3.983 --    31 C    1.378    35 C    1.369    33 C    1.049
    33   6 C    3.864 --    34 O    1.808    32 C    1.049    56 H    0.942
    34   8 O    2.004 --    33 C    1.808
    35   6 C    3.988 --    36 C    1.472    32 C    1.369    57 H    0.968
                            30 C    0.100
    36   6 C    3.987 --    35 C    1.472    29 C    1.380    58 H    0.972
    37   6 C    3.913 --    28 C    1.318    41 N    1.240    38 C    1.171
    38   6 C    3.958 --    39 C    1.657    37 C    1.171    59 H    0.973
    39   6 C    3.955 --    38 C    1.657    40 C    1.170    60 H    0.975
    40   6 C    3.916 --     2 C    1.362    41 N    1.229    39 C    1.170
    41   7 N    3.243 --    37 C    1.240    40 C    1.229     1 Cu   0.504
    42   1 H    1.001 --     2 C    0.971
    43   1 H    0.997 --     4 C    0.975
    44   1 H    1.004 --     5 C    0.973
    45   1 H    1.004 --    10 C    0.972
    46   1 H    1.005 --    11 C    0.968
    47   1 H    1.010 --    13 C    0.942
    48   1 H    1.000 --    15 C    0.971
    49   1 H    1.004 --    16 C    0.972
    50   1 H    1.004 --    18 C    0.973
    51   1 H    1.006 --    19 C    0.966
    52   1 H    1.007 --    24 C    0.966
    53   1 H    1.004 --    25 C    0.973
    54   1 H    1.004 --    30 C    0.972
    55   1 H    1.000 --    31 C    0.971
    56   1 H    1.010 --    33 C    0.942
    57   1 H    1.005 --    35 C    0.968
    58   1 H    1.004 --    36 C    0.972
    59   1 H    1.004 --    38 C    0.973
    60   1 H    0.997 --    39 C    0.975
    61  29 Cu   2.182 --    67 N    0.504   101 N    0.503    87 N    0.502
                            80 N    0.501
    62   6 C    3.930 --    63 C    1.362   100 C    1.362   102 H    0.971
    63   6 C    3.916 --    62 C    1.362    67 N    1.229    64 C    1.169
    64   6 C    3.955 --    65 C    1.658    63 C    1.169   103 H    0.975
    65   6 C    3.958 --    64 C    1.658    66 C    1.170   104 H    0.973
    66   6 C    3.913 --    68 C    1.319    67 N    1.240    65 C    1.170
    67   7 N    3.243 --    66 C    1.240    63 C    1.229    61 Cu   0.504
    68   6 C    3.932 --    77 C    1.324    66 C    1.319    69 C    1.029
    69   6 C    3.986 --    76 C    1.384    70 C    1.382    68 C    1.029
    70   6 C    3.988 --    71 C    1.470    69 C    1.382   105 H    0.972
                            75 C    0.100
    71   6 C    3.988 --    70 C    1.470    72 C    1.370   106 H    0.968
                            76 C    0.101
    72   6 C    3.984 --    75 C    1.378    71 C    1.370    73 C    1.049
    73   6 C    3.864 --    74 O    1.809    72 C    1.049   107 H    0.942
    74   8 O    2.004 --    73 C    1.809
    75   6 C    3.993 --    76 C    1.465    72 C    1.378   108 H    0.971
                            70 C    0.100
    76   6 C    3.988 --    75 C    1.465    69 C    1.384   109 H    0.972
                            71 C    0.101
    77   6 C    3.908 --    68 C    1.324    80 N    1.224    78 C    1.179
    78   6 C    3.954 --    79 C    1.642    77 C    1.179   110 H    0.973
    79   6 C    3.957 --    78 C    1.642    81 C    1.186   111 H    0.966
    80   7 N    3.247 --    81 C    1.254    77 C    1.224    61 Cu   0.501
    81   6 C    3.901 --    82 C    1.265    80 N    1.254    79 C    1.186
    82   6 C    3.940 --    81 C    1.265    83 C    1.265   122 C    1.174
    83   6 C    3.901 --    82 C    1.265    87 N    1.253    84 C    1.187
    84   6 C    3.957 --    85 C    1.641    83 C    1.187   112 H    0.966
    85   6 C    3.954 --    84 C    1.641    86 C    1.179   113 H    0.973
    86   6 C    3.908 --    88 C    1.321    87 N    1.225    85 C    1.179
    87   7 N    3.247 --    83 C    1.253    86 C    1.225    61 Cu   0.502
    88   6 C    3.933 --    86 C    1.321    97 C    1.318    89 C    1.034
    89   6 C    3.986 --    90 C    1.383    96 C    1.380    88 C    1.034
    90   6 C    3.987 --    91 C    1.466    89 C    1.383   114 H    0.972
                            95 C    0.100
    91   6 C    3.993 --    90 C    1.466    92 C    1.378   115 H    0.971
    92   6 C    3.983 --    91 C    1.378    95 C    1.369    93 C    1.049
    93   6 C    3.864 --    94 O    1.808    92 C    1.049   116 H    0.942
    94   8 O    2.004 --    93 C    1.808
    95   6 C    3.988 --    96 C    1.472    92 C    1.369   117 H    0.968
                            90 C    0.100
    96   6 C    3.987 --    95 C    1.472    89 C    1.380   118 H    0.972
    97   6 C    3.913 --    88 C    1.318   101 N    1.240    98 C    1.171
    98   6 C    3.958 --    99 C    1.657    97 C    1.171   119 H    0.973
    99   6 C    3.955 --    98 C    1.657   100 C    1.170   120 H    0.975
   100   6 C    3.916 --    62 C    1.362   101 N    1.229    99 C    1.170
   101   7 N    3.243 --    97 C    1.240   100 C    1.229    61 Cu   0.503
   102   1 H    1.001 --    62 C    0.971
   103   1 H    0.997 --    64 C    0.975
   104   1 H    1.004 --    65 C    0.973
   105   1 H    1.004 --    70 C    0.972
   106   1 H    1.005 --    71 C    0.968
   107   1 H    1.010 --    73 C    0.942
   108   1 H    1.000 --    75 C    0.971
   109   1 H    1.004 --    76 C    0.972
   110   1 H    1.004 --    78 C    0.973
   111   1 H    1.006 --    79 C    0.966
   112   1 H    1.007 --    84 C    0.966
   113   1 H    1.004 --    85 C    0.973
   114   1 H    1.004 --    90 C    0.972
   115   1 H    1.000 --    91 C    0.971
   116   1 H    1.010 --    93 C    0.942
   117   1 H    1.005 --    95 C    0.968
   118   1 H    1.004 --    96 C    0.972
   119   1 H    1.004 --    98 C    0.973
   120   1 H    0.997 --    99 C    0.975
   121   6 C    3.936 --   122 C    2.585    22 C    1.174
   122   6 C    3.936 --   121 C    2.585    82 C    1.174
 ---------------------------------------------------------------------------

           -------------------------------------------------
          | TOTAL ENERGY             -221.685380637420 Eh   |
          | GRADIENT NORM               0.000601446270 Eh/α |
          | HOMO-LUMO GAP               0.002217399598 eV   |
           -------------------------------------------------

 * finished run on 2022/07/30 at 06:07:07.008
