   * xtb version 6.5.1 (b24c23e) compiled by 'conda@728c89f4b128' on 2022-07-12
          program call               : xtb Ni_Ph2Me_C2_3.xyz --gfn 1 --opt -T 48

   ID    Z sym.   atoms
    1   28 Ni     1, 69, 141
    2    6 C      2-6, 8-11, 13-31, 34-41, 70-74, 76-79, 81-99, 102-109,
                  137-140, 142-146, 148-151, 153-171, 174-181
    3    7 N      7, 12, 32, 33, 75, 80, 100, 101, 147, 152, 172, 173
    4    1 H      42-68, 110-136, 182-207
########################################################################
[WARNING] Please study the warnings concerning your input carefully
-1- prog_main_parseArguments: Unknown option '-T' provided
########################################################################

          :  Hamiltonian                  GFN1-xTB          :
 * total energy  :  -329.8307793 Eh     change       -0.5015806E-08 Eh
 * total energy  :  -330.4149426 Eh     change       -0.5841633E+00 Eh
 * total energy  :  -330.5578132 Eh     change       -0.1428706E+00 Eh
 * total energy  :  -330.6257131 Eh     change       -0.6789991E-01 Eh
 * total energy  :  -330.6490389 Eh     change       -0.2332582E-01 Eh
 * total energy  :  -330.6603967 Eh     change       -0.1135784E-01 Eh
 * total energy  :  -330.6660605 Eh     change       -0.5663795E-02 Eh
 * total energy  :  -330.6689156 Eh     change       -0.2855102E-02 Eh
 * total energy  :  -330.6702158 Eh     change       -0.1300125E-02 Eh
 * total energy  :  -330.6708745 Eh     change       -0.6587754E-03 Eh
 * total energy  :  -330.6757167 Eh     change       -0.1905452E-04 Eh
 * total energy  :  -330.6757298 Eh     change       -0.1302849E-04 Eh
 * total energy  :  -330.6757427 Eh     change       -0.1292253E-04 Eh
 * total energy  :  -330.6757603 Eh     change       -0.1755338E-04 Eh
 * total energy  :  -330.6757792 Eh     change       -0.1891368E-04 Eh
 * total energy  :  -330.6757854 Eh     change       -0.6226811E-05 Eh
 * total energy  :  -330.6757952 Eh     change       -0.9833076E-05 Eh
 * total energy  :  -330.6758033 Eh     change       -0.8040012E-05 Eh
 * total energy  :  -330.6758069 Eh     change       -0.3658380E-05 Eh
   *** GEOMETRY OPTIMIZATION CONVERGED AFTER 97 ITERATIONS ***

 final structure:
================
207
 xtb: 6.5.1 (b24c23e)
Ni          33.58749832576458        0.13824219639177       -0.38434876858216
C           30.37795286568539        0.51509857139638       -1.37112687650036
C           31.02339089511195        1.61034064012279       -0.83292372253192
C           30.38517597485396        2.87155346624927       -0.60795942604592
C           31.25461465256658        3.62529098321655        0.10600158287678
C           32.44647853718978        2.84555176737606        0.26870783886606
N           32.29038480625776        1.60905280461737       -0.30671765364703
C           33.59825639484662        3.29445863262832        0.90304514915702
C           34.78512136439447        2.57207133180703        0.89276399794034
C           36.03718146400560        3.10101871994333        1.34093734132250
C           36.98958246764568        2.20231582565832        0.99127215474380
N           34.96935852045881        1.33750387731303        0.31318547759015
C           36.31730340518759        1.11166107421310        0.36148117886652
C           36.96743806561216       -0.04364875286224       -0.08623488573119
C           36.26352593752759       -1.19248449060994       -0.45921414366007
C           36.88643216687532       -2.45210484746769       -0.71077255303045
C           35.89051471499631       -3.35668247868047       -0.87367489000750
C           34.65785923264811       -2.63828775133824       -0.76394724477017
C           33.41070889942142       -3.21516047034982       -0.97517292611222
C           33.34109425223410       -4.68803359250666       -1.13314021542468
C           32.93304363727202       -5.26078245053825       -2.33553074786580
C           32.87769348147305       -6.64464866936822       -2.47553592598157
C           32.41943954516378       -7.25209399055432       -3.77396291654999
C           33.23253940550774       -7.45323796600421       -1.40156901039285
C           33.64797549229411       -6.89518915897011       -0.19465583727257
C           34.04761970438545       -7.78717112686812        0.94960437485447
C           33.70351697840569       -5.51277436018791       -0.06775032932285
C           32.25553073889550       -2.45738671129637       -1.11746620310985
C           30.98000718470560       -2.98985494645523       -1.49847837641175
C           30.15666500746905       -1.93320412632740       -1.69731198849181
C           30.91044986110158       -0.75885798381505       -1.37993129471774
N           32.19022109950431       -1.08948809663541       -1.01493978461381
N           34.90075140960890       -1.30737530844782       -0.51891982183618
C           33.59713292309372        4.63188026247092        1.54565692611745
C           33.41541472556764        5.78506533695364        0.78446675774928
C           33.41934749209103        7.03765371533997        1.38945019035284
C           33.24414794114115        8.28018491669160        0.55863422763863
C           33.61024598442608        7.13029443781714        2.76461550269527
C           33.80000934628033        5.98798578217025        3.53684239011004
C           33.99014779408385        6.09913124912443        5.02548798595419
C           33.79323831845429        4.74084955343276        2.92141843418018
H           29.36090909195950        0.64508588202776       -1.72237315356730
H           29.38618345260495        3.11761806890918       -0.93144236525859
H           31.11276514922210        4.62281185377382        0.48894023433283
H           36.16469271888545        4.05158546720108        1.83264372269700
H           38.05260588448306        2.25254661463030        1.16091929610849
H           37.95108848554803       -2.61544538574196       -0.73686212586245
H           35.97305934578560       -4.41162516995244       -1.07846767284286
H           32.67790088750512       -4.62151944539991       -3.17360470179519
H           32.76101408629778       -8.28319309681489       -3.86464040273707
H           31.32805346654907       -7.24791810619655       -3.82088851668023
H           32.79549455903637       -6.67939056946509       -4.62233515296782
H           33.18986862163811       -8.53271532759051       -1.50456172817495
H           34.13543267804012       -7.21909232252945        1.87555485489255
H           33.31337301939601       -8.58123191162477        1.09195427735507
H           35.01220654054531       -8.25422707430668        0.73930515421966
H           34.01808401156227       -5.06370433830972        0.86797610281082
H           30.75686898500157       -4.03875055135424       -1.60737872714417
H           29.12199924116953       -1.93180785243081       -2.00165510683773
H           33.28873202042088        5.70219361480154       -0.28940341680975
H           32.78748501120269        9.07813643846692        1.14447788234539
H           32.62006062050800        8.07954805621969       -0.31251510979146
H           34.21669021826349        8.63114582056555        0.20587957361147
H           33.61446290963442        8.10555849562374        3.24054805812219
H           33.01962710216569        6.07797248067033        5.52654442432226
H           34.48494583721624        7.03545862710763        5.28456992703437
H           34.58558405874300        5.26809273052989        5.40402271931383
H           33.93011639103077        3.84195522744166        3.51257856615934
Ni          55.27829195082825        0.20458192327358       -0.17391718422285
C           58.59975283294326        0.72860738683590       -0.55592022607480
C           57.94167980913755        0.00214893201941       -1.52699841084870
C           58.59812417272572       -0.57682653232470       -2.65948985431082
C           57.68469033478553       -1.36043678000547       -3.27918024787142
C           56.45841168202224       -1.22990117509385       -2.54776320346307
N           56.62564091076225       -0.38457372382768       -1.47909710406520
C           55.28444789832051       -1.89993676499116       -2.86724258282712
C           54.08840132593988       -1.67530138345938       -2.19795659812459
C           52.83575503556782       -2.24036545752157       -2.60126070718423
C           51.87778642725104       -1.64964526602050       -1.84718251704153
N           53.89992879405359       -0.77397673836721       -1.17562132360281
C           52.54710408952909       -0.74111968954657       -0.97099985296628
C           51.88285150693563        0.08583978109088       -0.06454129622300
C           52.55516247880897        0.86180740331781        0.87881823102409
C           51.89065106481780        1.60085611489417        1.90560489012387
C           52.85383457470615        2.05224931498341        2.74487657186450
C           54.10759978446076        1.61000002385165        2.21350942745565
C           55.33671617122531        1.89572749994982        2.79611753930362
C           55.34793507003585        2.55536764711871        4.12414540524796
C           55.89146240192699        3.82766138830687        4.28516130160500
C           55.89792691552853        4.43987962893340        5.53542543370981
C           56.50144368116556        5.80889003096529        5.69814666949673
C           55.35875900266530        3.76756906415059        6.62630768688240
C           54.80818821054851        2.49614431085492        6.48035858346682
C           54.21403817013268        1.79157421177347        7.66997684612759
C           54.80194951030358        1.89729948679690        5.22676882647385
C           56.54153916579839        1.63066699366573        2.15895523975236
C           57.82561092293889        2.00842759611316        2.67345874377583
C           58.73103301940681        1.74349657714968        1.70231171409684
C           58.00797552355888        1.15953751902782        0.61419113341099
N           56.67192192939692        1.07141490829305        0.91111622973743
N           53.91335381335918        0.90262275370099        1.05139829954468
C           55.28755926946581       -2.84954940260792       -4.00786631776469
C           55.51511086844884       -2.39186847381763       -5.30437654575481
C           55.51656049944312       -3.27897342366489       -6.37583334109129
C           55.74089177520386       -2.77448276741236       -7.77579296623162
C           55.28637197196971       -4.63110542091162       -6.14153540173474
C           55.05320298655733       -5.10207465870963       -4.85269577424617
C           54.82422576035955       -6.56939611186519       -4.60937688671957
C           55.05415349719773       -4.20604755748455       -3.78898589443314
H           59.65872290695206        0.91606035339534       -0.69047279735308
H           59.63364230426985       -0.41558566730064       -2.91409481667853
H           57.81896725932082       -1.97872455712536       -4.15182191630893
H           52.71363050073700       -2.97351670340741       -3.38179750917286
H           50.81107971314372       -1.80502339001031       -1.86966560299815
H           50.82240395719836        1.73073695472702        1.97235474353722
H           52.73896017448097        2.64677136030703        3.63658959551999
H           56.29427002269733        4.35027984951256        3.42446612667336
H           56.17320719338952        6.27261028608776        6.62827478676840
H           57.59109389825338        5.73502514094202        5.71743310998058
H           56.22254782282583        6.45427891797218        4.86439437138778
H           55.36361459516478        4.23855736331394        7.60396252860158
H           54.04117479714103        0.73747883039817        7.45359021779085
H           54.87668013506387        1.86990240229946        8.53289884207311
H           53.25888790546175        2.24945581595870        7.93613758732118
H           54.38444335428191        0.90446023784939        5.09953332083281
H           57.99871408602883        2.43004174429491        3.65023902637184
H           59.79760118996906        1.90321832159842        1.71160386921789
H           55.67583859374255       -1.33320663591031       -5.47640382397120
H           56.19166460362677       -3.54647058168856       -8.39972797667743
H           56.38990521666091       -1.89843557348858       -7.77298974015640
H           54.78683427719407       -2.48851245634622       -8.22461235131748
H           55.28671503303028       -5.32699679530949       -6.97425062606392
H           55.78117398239016       -7.07466175448231       -4.45967424213916
H           54.32723255433491       -7.03121908485871       -5.46286422709601
H           54.21514804231774       -6.72515449360262       -3.71875362604140
H           54.88468009781903       -4.56136972622263       -2.77842104266273
C           38.37619540972651       -0.07123789802091       -0.08257513863374
C           39.59265386874740       -0.06789830868121       -0.10576407536223
C           49.25457808932257        0.08261997789627       -0.07238725208861
C           50.46900217613861        0.08626339965906       -0.06268597848183
Ni          44.42405776418218        0.00481261463934       -0.12048436961116
C           41.00193473481375       -0.05084003700246       -0.11851256583719
C           41.65558165333456        1.18432346535338       -0.10451919034897
C           40.96451704885587        2.43326244249257       -0.07223802559190
C           41.90420769984333        3.40298195089561       -0.17825314946926
C           43.16852932618281        2.74175662868818       -0.28426276705126
N           43.00700815044451        1.37686844642096       -0.20556972954715
C           44.36953989922337        3.41018316469372       -0.47842119483683
C           45.59592317300264        2.76106847742241       -0.50986874567665
C           46.84358272579173        3.42683369055828       -0.73176986647305
C           47.81443107701143        2.49102762658117       -0.60336381956473
N           45.79798297391829        1.41802227127833       -0.28932132543206
C           47.15671287103789        1.25483113554309       -0.32051304055487
C           47.84086644740236        0.06358337410717       -0.08365545215221
C           47.19185131106419       -1.15135583891428        0.13276186964250
C           47.88553016699008       -2.36823746073239        0.41362725421805
C           46.94567867410825       -3.33963819405231        0.50215768398586
C           45.68096969024182       -2.71383867651311        0.26203384613756
C           44.47875530386493       -3.40471696508931        0.19866412595279
C           44.49486917381307       -4.87940127246809        0.35756688643053
C           43.82621872287191       -5.47234528091931        1.42716684062446
C           43.83242054710135       -6.85430622443477        1.58597084939564
C           43.12516154239008       -7.48446153123950        2.75531919876671
C           44.51330163933756       -7.64258609637432        0.66392186347525
C           45.18387595768269       -7.06513537931057       -0.41110356834034
C           45.92542191732743       -7.93237896976609       -1.39227107330335
C           45.17359473012137       -5.68273671747836       -0.55801792944605
C           43.25785952467317       -2.77398688732212        0.00270426410569
C           42.01650776354683       -3.47435156204283       -0.12185576633170
C           41.04567535901182       -2.53388162619878       -0.20882605682880
C           41.69457912691442       -1.26396398085986       -0.14909568103148
N           43.05159154161723       -1.41392281703560       -0.05202411710028
N           45.84053913605698       -1.36120060267607        0.06688904662523
C           44.33706210456881        4.88209451965379       -0.65976119785205
C           44.97043001349896        5.72078508219832        0.25536809983752
C           44.93478782307860        7.10160598399240        0.08930257590680
C           45.63267328024789        7.99930737048726        1.07505107554855
C           44.26482068657678        7.63981172881681       -1.00481744136367
C           43.62819699162205        6.81485394107660       -1.92790136931057
C           42.92263589483907        7.40770299950056       -3.11755328253000
C           43.66653752710531        5.43656407902264       -1.74941534235966
H           39.89592961460389        2.54167272997936        0.01302192282340
H           41.76389351973215        4.47146885940430       -0.18035221268323
H           46.95169411655517        4.47464653746828       -0.95947506800157
H           48.88220758818267        2.60934463924036       -0.69410158321549
H           48.95424364111577       -2.45155668263237        0.52868863582307
H           47.08554623271453       -4.38702088326054        0.71418881380712
H           43.30838589924910       -4.84592917621419        2.14527162196238
H           42.80848454298578       -8.50003648829255        2.51716929933728
H           43.79752733724350       -7.53030827440341        3.61509213391405
H           42.25067075247576       -6.89907891621910        3.04048603048211
H           44.51914479673633       -8.72144130305393        0.78108794020911
H           46.11507147706645       -7.39586710022398       -2.32185120928872
H           45.35651301861773       -8.83559960708338       -1.61561230084408
H           46.88601068215710       -8.23457389669631       -0.96901798602892
H           45.67911714963422       -5.22164673961763       -1.39943665613159
H           41.91171846591421       -4.54667934968964       -0.14385133255634
H           39.98190386951490       -2.67497158408658       -0.30441963718217
H           45.47684922176078        5.29004690439610        1.11220328618210
H           45.17740338239798        8.98963715545598        1.09039016518906
H           46.68276619147368        8.11121947222439        0.79534064679210
H           45.59360507915363        7.57643072270735        2.07924459852242
H           44.23427700955205        8.71630318585856       -1.13853672049027
H           42.48551129192023        8.37461683215664       -2.86704612957214
H           42.13372361010239        6.74425823526440       -3.47222330744738
H           43.63335478878446        7.55807891523385       -3.93344060238654
H           43.18290903504635        4.78225034190410       -2.46646226202961

          :  Hamiltonian                  GFN1-xTB          :
         :: total energy            -330.675806924639 Eh    ::
         :: gradient norm              0.000581609490 Eh/a0 ::
         :: HOMO-LUMO gap              1.098405193909 eV    ::
         :: SCC energy              -335.875782946913 Eh    ::
         :: repulsion energy           5.383728673328 Eh    ::

    * Orbital Energies and Occupations

         #    Occupation            Energy/Eh            Energy/eV
      -------------------------------------------------------------
         1        2.0000           -0.7773675             -21.1532
       ...           ...                  ...                  ...
       297        2.0000           -0.3939341             -10.7195
       298        2.0000           -0.3938863             -10.7182
       299        2.0000           -0.3928758             -10.6907
       300        2.0000           -0.3928095             -10.6889
       301        2.0000           -0.3926926             -10.6857
       302        2.0000           -0.3924493             -10.6791
       303        2.0000           -0.3918418             -10.6626
       304        2.0000           -0.3917785             -10.6608
       305        2.0000           -0.3916779             -10.6581
       306        2.0000           -0.3914347             -10.6515
       307        2.0000           -0.3914053             -10.6507
       308        2.0000           -0.3856756             -10.4948
       309        2.0000           -0.3780446             -10.2871 (HOMO)
       310                         -0.3376790              -9.1887 (LUMO)
       311                         -0.3281860              -8.9304
       312                         -0.3254918              -8.8571
       313                         -0.3254588              -8.8562
       314                         -0.3251971              -8.8491
       315                         -0.3251233              -8.8471
       316                         -0.3218501              -8.7580
       317                         -0.3200673              -8.7095
       318                         -0.3196180              -8.6972
       319                         -0.2956868              -8.0460
       320                         -0.2896281              -7.8812
       ...                                ...                  ...
       683                          1.3483423              36.6903
      -------------------------------------------------------------
                  HL-Gap            0.0403656 Eh            1.0984 eV

Wiberg/Mayer (AO) data.
largest (>0.10) Wiberg bond orders for each atom

     #   Z sym  total        # sym  WBO       # sym  WBO       # sym  WBO
 ---------------------------------------------------------------------------
     1  28 Ni   3.022 --     7 N    0.665    33 N    0.664    12 N    0.664
                            32 N    0.664
     2   6 C    3.932 --     3 C    1.363    31 C    1.360    42 H    0.971
     3   6 C    3.924 --     2 C    1.363     7 N    1.214     4 C    1.175
     4   6 C    3.959 --     5 C    1.648     3 C    1.175    43 H    0.975
     5   6 C    3.963 --     4 C    1.648     6 C    1.178    44 H    0.972
     6   6 C    3.920 --     8 C    1.323     7 N    1.220     5 C    1.178
     7   7 N    3.403 --     6 C    1.220     3 C    1.214     1 Ni   0.665
     8   6 C    3.938 --     9 C    1.327     6 C    1.323    34 C    1.022
     9   6 C    3.915 --     8 C    1.327    12 N    1.205    10 C    1.185
    10   6 C    3.959 --    11 C    1.633     9 C    1.185    45 H    0.973
    11   6 C    3.962 --    10 C    1.633    13 C    1.194    46 H    0.969
    12   7 N    3.409 --    13 C    1.239     9 C    1.205     1 Ni   0.664
    13   6 C    3.909 --    14 C    1.263    12 N    1.239    11 C    1.194
    14   6 C    3.943 --    15 C    1.268    13 C    1.263   137 C    1.173
    15   6 C    3.909 --    14 C    1.268    33 N    1.234    16 C    1.193
    16   6 C    3.961 --    17 C    1.633    15 C    1.193    47 H    0.967
    17   6 C    3.959 --    16 C    1.633    18 C    1.186    48 H    0.973
    18   6 C    3.915 --    19 C    1.322    33 N    1.210    17 C    1.186
    19   6 C    3.938 --    28 C    1.326    18 C    1.322    20 C    1.025
    20   6 C    3.988 --    21 C    1.403    27 C    1.391    19 C    1.025
                            24 C    0.103
    21   6 C    3.987 --    22 C    1.410    20 C    1.403    49 H    0.972
                            25 C    0.104
    22   6 C    3.988 --    24 C    1.422    21 C    1.410    23 C    1.020
                            27 C    0.103
    23   6 C    3.996 --    22 C    1.020    50 H    0.984    52 H    0.981
                            51 H    0.971
    24   6 C    3.989 --    22 C    1.422    25 C    1.408    53 H    0.972
                            20 C    0.103
    25   6 C    3.988 --    27 C    1.424    24 C    1.408    26 C    1.020
                            21 C    0.104
    26   6 C    3.996 --    25 C    1.020    54 H    0.985    55 H    0.979
                            56 H    0.973
    27   6 C    3.986 --    25 C    1.424    20 C    1.391    57 H    0.972
                            22 C    0.103
    28   6 C    3.920 --    19 C    1.326    32 N    1.217    29 C    1.177
    29   6 C    3.963 --    30 C    1.647    28 C    1.177    58 H    0.972
    30   6 C    3.958 --    29 C    1.647    31 C    1.176    59 H    0.975
    31   6 C    3.924 --     2 C    1.360    32 N    1.217    30 C    1.176
    32   7 N    3.402 --    28 C    1.217    31 C    1.217     1 Ni   0.664
    33   7 N    3.409 --    15 C    1.234    18 C    1.210     1 Ni   0.664
    34   6 C    3.988 --    35 C    1.399    41 C    1.398     8 C    1.022
                            38 C    0.103
    35   6 C    3.987 --    36 C    1.415    34 C    1.399    60 H    0.972
                            39 C    0.104
    36   6 C    3.988 --    38 C    1.417    35 C    1.415    37 C    1.020
                            41 C    0.104
    37   6 C    3.996 --    36 C    1.020    61 H    0.983    62 H    0.983
                            63 H    0.971
    38   6 C    3.989 --    36 C    1.417    39 C    1.415    64 H    0.972
                            34 C    0.103
    39   6 C    3.988 --    41 C    1.417    38 C    1.415    40 C    1.020
                            35 C    0.104
    40   6 C    3.996 --    39 C    1.020    67 H    0.983    66 H    0.982
                            65 H    0.971
    41   6 C    3.987 --    39 C    1.417    34 C    1.398    68 H    0.972
                            36 C    0.104
    42   1 H    1.001 --     2 C    0.971
    43   1 H    0.998 --     4 C    0.975
    44   1 H    1.005 --     5 C    0.972
    45   1 H    1.005 --    10 C    0.973
    46   1 H    1.005 --    11 C    0.969
    47   1 H    1.006 --    16 C    0.967
    48   1 H    1.004 --    17 C    0.973
    49   1 H    1.003 --    21 C    0.972
    50   1 H    1.004 --    23 C    0.984
    51   1 H    1.006 --    23 C    0.971
    52   1 H    1.004 --    23 C    0.981
    53   1 H    1.000 --    24 C    0.972
    54   1 H    1.004 --    26 C    0.985
    55   1 H    1.005 --    26 C    0.979
    56   1 H    1.006 --    26 C    0.973
    57   1 H    1.003 --    27 C    0.972
    58   1 H    1.005 --    29 C    0.972
    59   1 H    0.998 --    30 C    0.975
    60   1 H    1.003 --    35 C    0.972
    61   1 H    1.004 --    37 C    0.983
    62   1 H    1.004 --    37 C    0.983
    63   1 H    1.006 --    37 C    0.971
    64   1 H    1.000 --    38 C    0.972
    65   1 H    1.006 --    40 C    0.971
    66   1 H    1.004 --    40 C    0.982
    67   1 H    1.004 --    40 C    0.983
    68   1 H    1.002 --    41 C    0.972
    69  28 Ni   3.026 --    75 N    0.666   100 N    0.665   101 N    0.665
                            80 N    0.664
    70   6 C    3.937 --    71 C    1.365    99 C    1.361   110 H    0.970
    71   6 C    3.924 --    70 C    1.365    75 N    1.213    72 C    1.174
    72   6 C    3.960 --    73 C    1.649    71 C    1.174   111 H    0.975
    73   6 C    3.963 --    72 C    1.649    74 C    1.177   112 H    0.972
    74   6 C    3.920 --    76 C    1.325    75 N    1.220    73 C    1.177
    75   7 N    3.405 --    74 C    1.220    71 C    1.213    69 Ni   0.666
    76   6 C    3.940 --    77 C    1.328    74 C    1.325   102 C    1.021
    77   6 C    3.916 --    76 C    1.328    80 N    1.208    78 C    1.182
    78   6 C    3.962 --    79 C    1.638    77 C    1.182   113 H    0.973
    79   6 C    3.963 --    78 C    1.638    81 C    1.189   114 H    0.973
    80   7 N    3.409 --    81 C    1.233    77 C    1.208    69 Ni   0.664
    81   6 C    3.915 --    82 C    1.276    80 N    1.233    79 C    1.189
    82   6 C    3.943 --    83 C    1.281    81 C    1.276   140 C    1.147
    83   6 C    3.915 --    82 C    1.281   101 N    1.228    84 C    1.188
    84   6 C    3.962 --    85 C    1.637    83 C    1.188   115 H    0.973
    85   6 C    3.962 --    84 C    1.637    86 C    1.184   116 H    0.973
    86   6 C    3.916 --    87 C    1.322   101 N    1.213    85 C    1.184
    87   6 C    3.941 --    96 C    1.328    86 C    1.322    88 C    1.025
    88   6 C    3.988 --    89 C    1.403    95 C    1.390    87 C    1.025
                            92 C    0.103
    89   6 C    3.987 --    90 C    1.410    88 C    1.403   117 H    0.972
                            93 C    0.104
    90   6 C    3.988 --    92 C    1.423    89 C    1.410    91 C    1.020
                            95 C    0.103
    91   6 C    3.996 --    90 C    1.020   118 H    0.985   120 H    0.980
                           119 H    0.972
    92   6 C    3.989 --    90 C    1.423    93 C    1.408   121 H    0.972
                            88 C    0.103
    93   6 C    3.988 --    95 C    1.424    92 C    1.408    94 C    1.020
                            89 C    0.104
    94   6 C    3.996 --    93 C    1.020   122 H    0.985   123 H    0.979
                           124 H    0.972
    95   6 C    3.987 --    93 C    1.424    88 C    1.390   125 H    0.972
                            90 C    0.103
    96   6 C    3.921 --    87 C    1.328   100 N    1.217    97 C    1.176
    97   6 C    3.963 --    98 C    1.648    96 C    1.176   126 H    0.972
    98   6 C    3.960 --    97 C    1.648    99 C    1.176   127 H    0.975
    99   6 C    3.924 --    70 C    1.361   100 N    1.216    98 C    1.176
   100   7 N    3.404 --    96 C    1.217    99 C    1.216    69 Ni   0.665
   101   7 N    3.409 --    83 C    1.228    86 C    1.213    69 Ni   0.665
   102   6 C    3.988 --   103 C    1.399   109 C    1.398    76 C    1.021
                           106 C    0.103
   103   6 C    3.987 --   104 C    1.415   102 C    1.399   128 H    0.972
                           107 C    0.104
   104   6 C    3.988 --   106 C    1.417   103 C    1.415   105 C    1.020
                           109 C    0.104
   105   6 C    3.995 --   104 C    1.020   129 H    0.983   130 H    0.983
                           131 H    0.971
   106   6 C    3.989 --   104 C    1.417   107 C    1.415   132 H    0.972
                           102 C    0.103
   107   6 C    3.988 --   109 C    1.417   106 C    1.415   108 C    1.020
                           103 C    0.104
   108   6 C    3.996 --   107 C    1.020   135 H    0.983   134 H    0.982
                           133 H    0.971
   109   6 C    3.987 --   107 C    1.417   102 C    1.398   136 H    0.972
                           104 C    0.104
   110   1 H    1.000 --    70 C    0.970
   111   1 H    0.998 --    72 C    0.975
   112   1 H    1.005 --    73 C    0.972
   113   1 H    1.005 --    78 C    0.973
   114   1 H    1.002 --    79 C    0.973
   115   1 H    1.002 --    84 C    0.973
   116   1 H    1.004 --    85 C    0.973
   117   1 H    1.003 --    89 C    0.972
   118   1 H    1.004 --    91 C    0.985
   119   1 H    1.006 --    91 C    0.972
   120   1 H    1.005 --    91 C    0.980
   121   1 H    1.000 --    92 C    0.972
   122   1 H    1.004 --    94 C    0.985
   123   1 H    1.005 --    94 C    0.979
   124   1 H    1.006 --    94 C    0.972
   125   1 H    1.003 --    95 C    0.972
   126   1 H    1.005 --    97 C    0.972
   127   1 H    0.998 --    98 C    0.975
   128   1 H    1.002 --   103 C    0.972
   129   1 H    1.004 --   105 C    0.983
   130   1 H    1.004 --   105 C    0.983
   131   1 H    1.006 --   105 C    0.971
   132   1 H    1.000 --   106 C    0.972
   133   1 H    1.006 --   108 C    0.971
   134   1 H    1.004 --   108 C    0.982
   135   1 H    1.004 --   108 C    0.983
   136   1 H    1.002 --   109 C    0.972
   137   6 C    3.936 --   138 C    2.584    14 C    1.173
   138   6 C    3.936 --   137 C    2.584   142 C    1.172
   139   6 C    3.933 --   140 C    2.601   154 C    1.148
   140   6 C    3.930 --   139 C    2.601    82 C    1.147
   141  28 Ni   3.003 --   147 N    0.662   172 N    0.662   173 N    0.661
                           152 N    0.660
   142   6 C    3.937 --   171 C    1.267   143 C    1.267   138 C    1.172
   143   6 C    3.910 --   142 C    1.267   147 N    1.237   144 C    1.193
   144   6 C    3.961 --   145 C    1.633   143 C    1.193   182 H    0.969
   145   6 C    3.960 --   144 C    1.633   146 C    1.186   183 H    0.973
   146   6 C    3.914 --   148 C    1.326   147 N    1.206   145 C    1.186
   147   7 N    3.402 --   143 C    1.237   146 C    1.206   141 Ni   0.662
   148   6 C    3.935 --   146 C    1.326   149 C    1.326   174 C    1.024
   149   6 C    3.914 --   148 C    1.326   152 N    1.209   150 C    1.184
   150   6 C    3.962 --   151 C    1.636   149 C    1.184   184 H    0.973
   151   6 C    3.960 --   150 C    1.636   153 C    1.189   185 H    0.973
   152   7 N    3.400 --   153 C    1.234   149 C    1.209   141 Ni   0.660
   153   6 C    3.916 --   154 C    1.278   152 N    1.234   151 C    1.189
   154   6 C    3.932 --   153 C    1.278   155 C    1.277   139 C    1.148
   155   6 C    3.915 --   154 C    1.277   173 N    1.233   156 C    1.190
   156   6 C    3.960 --   157 C    1.636   155 C    1.190   186 H    0.973
   157   6 C    3.962 --   156 C    1.636   158 C    1.185   187 H    0.973
   158   6 C    3.915 --   159 C    1.325   173 N    1.209   157 C    1.185
   159   6 C    3.935 --   168 C    1.326   158 C    1.325   160 C    1.024
   160   6 C    3.988 --   161 C    1.399   167 C    1.394   159 C    1.024
                           164 C    0.103
   161   6 C    3.987 --   162 C    1.415   160 C    1.399   188 H    0.972
                           165 C    0.104
   162   6 C    3.988 --   164 C    1.418   161 C    1.415   163 C    1.020
                           167 C    0.103
   163   6 C    3.995 --   162 C    1.020   189 H    0.983   191 H    0.982
                           190 H    0.971
   164   6 C    3.989 --   162 C    1.418   165 C    1.412   192 H    0.972
                           160 C    0.103
   165   6 C    3.988 --   167 C    1.420   164 C    1.412   166 C    1.020
                           161 C    0.104
   166   6 C    3.996 --   165 C    1.020   193 H    0.984   194 H    0.980
                           195 H    0.972
   167   6 C    3.987 --   165 C    1.420   160 C    1.394   196 H    0.972
                           162 C    0.103
   168   6 C    3.914 --   159 C    1.326   172 N    1.206   169 C    1.186
   169   6 C    3.960 --   170 C    1.633   168 C    1.186   197 H    0.973
   170   6 C    3.960 --   169 C    1.633   171 C    1.193   198 H    0.967
   171   6 C    3.910 --   142 C    1.267   172 N    1.237   170 C    1.193
   172   7 N    3.402 --   171 C    1.237   168 C    1.206   141 Ni   0.662
   173   7 N    3.400 --   155 C    1.233   158 C    1.209   141 Ni   0.661
   174   6 C    3.988 --   175 C    1.399   181 C    1.395   148 C    1.024
                           178 C    0.103
   175   6 C    3.987 --   176 C    1.415   174 C    1.399   199 H    0.972
                           179 C    0.104
   176   6 C    3.988 --   178 C    1.418   175 C    1.415   177 C    1.020
                           181 C    0.103
   177   6 C    3.996 --   176 C    1.020   200 H    0.983   202 H    0.982
                           201 H    0.971
   178   6 C    3.989 --   176 C    1.418   179 C    1.413   203 H    0.972
                           174 C    0.103
   179   6 C    3.988 --   181 C    1.419   178 C    1.413   180 C    1.020
                           175 C    0.104
   180   6 C    3.995 --   179 C    1.020   205 H    0.983   204 H    0.982
                           206 H    0.971
   181   6 C    3.987 --   179 C    1.419   174 C    1.395   207 H    0.972
                           176 C    0.103
   182   1 H    1.006 --   144 C    0.969
   183   1 H    1.005 --   145 C    0.973
   184   1 H    1.005 --   150 C    0.973
   185   1 H    1.002 --   151 C    0.973
   186   1 H    1.002 --   156 C    0.973
   187   1 H    1.005 --   157 C    0.973
   188   1 H    1.003 --   161 C    0.972
   189   1 H    1.004 --   163 C    0.983
   190   1 H    1.006 --   163 C    0.971
   191   1 H    1.004 --   163 C    0.982
   192   1 H    1.000 --   164 C    0.972
   193   1 H    1.004 --   166 C    0.984
   194   1 H    1.005 --   166 C    0.980
   195   1 H    1.006 --   166 C    0.972
   196   1 H    1.003 --   167 C    0.972
   197   1 H    1.005 --   169 C    0.973
   198   1 H    1.006 --   170 C    0.967
   199   1 H    1.003 --   175 C    0.972
   200   1 H    1.004 --   177 C    0.983
   201   1 H    1.006 --   177 C    0.971
   202   1 H    1.004 --   177 C    0.982
   203   1 H    1.000 --   178 C    0.972
   204   1 H    1.004 --   180 C    0.982
   205   1 H    1.004 --   180 C    0.983
   206   1 H    1.006 --   180 C    0.971
   207   1 H    1.003 --   181 C    0.972
 ---------------------------------------------------------------------------

           -------------------------------------------------
          | TOTAL ENERGY             -330.675806924639 Eh   |
          | GRADIENT NORM               0.000581609490 Eh/α |
          | HOMO-LUMO GAP               1.098405193909 eV   |
           -------------------------------------------------

 * finished run on 2022/07/30 at 04:43:58.205
