   * xtb version 6.5.1 (b24c23e) compiled by 'conda@728c89f4b128' on 2022-07-12
          program call               : xtb Cu_Py_C2_2.xyz --gfn 1 --opt -T 48

   ID    Z sym.   atoms
    1   29 Cu     1, 55
    2    6 C      2-6, 8-11, 13-17, 19-24, 26-29, 31-36, 56-60, 62-65, 67-71,
                  73-78, 80-83, 85-90, 109, 110
    3    7 N      7, 12, 18, 25, 30, 37, 61, 66, 72, 79, 84, 91
    4    1 H      38-54, 92-108
########################################################################
[WARNING] Please study the warnings concerning your input carefully
-1- prog_main_parseArguments: Unknown option '-T' provided
########################################################################

          :  Hamiltonian                  GFN1-xTB          :
 * total energy  :  -195.8688205 Eh     change       -0.3516419E-08 Eh
 * total energy  :  -196.3639676 Eh     change       -0.4951471E+00 Eh
 * total energy  :  -196.4900896 Eh     change       -0.1261220E+00 Eh
 * total energy  :  -196.5410931 Eh     change       -0.5100349E-01 Eh
 * total energy  :  -196.5658417 Eh     change       -0.2474859E-01 Eh
 * total energy  :  -196.5786679 Eh     change       -0.1282628E-01 Eh
 * total energy  :  -196.5878546 Eh     change       -0.9186635E-02 Eh
 * total energy  :  -196.5943998 Eh     change       -0.6545246E-02 Eh
 * total energy  :  -196.5990249 Eh     change       -0.4625086E-02 Eh
 * total energy  :  -196.6021993 Eh     change       -0.3174426E-02 Eh
 * total energy  :  -196.6112728 Eh     change       -0.1322447E-04 Eh
 * total energy  :  -196.6112925 Eh     change       -0.1969326E-04 Eh
 * total energy  :  -196.6113062 Eh     change       -0.1368917E-04 Eh
 * total energy  :  -196.6113185 Eh     change       -0.1226575E-04 Eh
 * total energy  :  -196.6113330 Eh     change       -0.1457396E-04 Eh
 * total energy  :  -196.6113484 Eh     change       -0.1533849E-04 Eh
 * total energy  :  -196.6113576 Eh     change       -0.9194957E-05 Eh
 * total energy  :  -196.6113631 Eh     change       -0.5501955E-05 Eh
 * total energy  :  -196.6113678 Eh     change       -0.4704999E-05 Eh
   *** GEOMETRY OPTIMIZATION CONVERGED AFTER 49 ITERATIONS ***

 final structure:
================
110
 xtb: 6.5.1 (b24c23e)
Cu          13.62579054971718       -0.04524387140514        0.01694250685145
C           10.21291212812464       -0.07413302189245        0.03179248166244
C           10.84934303067939       -1.29532713007800        0.19460050430814
C           10.17639446339613       -2.54620482863430        0.40032844339401
C           11.13649513901546       -3.49580790667813        0.52212512124163
C           12.40531868375570       -2.83352584726891        0.38278401065086
N           12.19992438716956       -1.49760169456368        0.19429954286870
C           13.65162674053484       -3.45896821229754        0.45265658418363
C           13.66497594429526       -4.93063043590263        0.63790155206949
C           14.22280734128295       -5.51469117253021        1.77446512687857
C           14.20496954510659       -6.89461547880854        1.90313208220107
N           13.68162640709883       -7.70126973526421        0.98541951986596
C           13.15094567006445       -7.15281963116236       -0.10292018544504
C           13.11664838186932       -5.78428472653775       -0.31878291754467
C           14.88519767509220       -2.81157820301106        0.35766307054013
C           16.15675606552657       -3.47591044611748        0.37062627864817
C           17.10578254579334       -2.51536219176317        0.24232543438268
N           15.08175390834492       -1.46387645837496        0.20887708538486
C           16.42765927632438       -1.25868385480720        0.14631536063360
C           17.07251079191591       -0.01591637981184        0.00377368361184
C           16.40562246215138        1.21524480794523       -0.13701296794471
C           17.06248241088096        2.47490706274944       -0.31109514936378
C           16.09639428257853        3.41818888149777       -0.43885916755435
C           14.83529115694907        2.74247330222419       -0.33121640787900
N           15.05574870622946        1.40185854703860       -0.15363772524781
C           13.59010385542390        3.36662657335129       -0.42881762381281
C           13.57745549198710        4.83676997320187       -0.62777805271656
C           13.04733433548055        5.40363063126979       -1.78619710128516
C           13.06040749244664        6.78186227793222       -1.93163577123583
N           13.55384820420267        7.60275511982382       -1.01004869394617
C           14.05835512117058        7.07068491888843        0.09870266922669
C           14.09422119504993        5.70511355852263        0.33295274207432
C           12.35518149641936        2.71933456726628       -0.35651698305907
C           11.07391713364489        3.36995251475496       -0.41223021204284
C           10.13109429594422        2.40415560836286       -0.28344138521779
C           10.82701101572461        1.15699234364059       -0.14076336113176
N           12.17407511852478        1.37762546029662       -0.18499398087174
H            9.12799573714163       -0.08161264253058        0.04920638038251
H            9.10567592563712       -2.66692782143479        0.44949470470841
H           11.00527839288172       -4.55067286760504        0.70206402961342
H           14.65109503176146       -4.89581159717306        2.55410552052563
H           14.62917366803864       -7.37244903620813        2.78157596537593
H           12.73439393017073       -7.83764059164716       -0.83571995750108
H           12.68333283908570       -5.38205590480002       -1.22679045898191
H           16.30150202557024       -4.54088824408940        0.45206626021895
H           18.17395410610728       -2.64319160845892        0.20433806988210
H           18.12945780633921        2.61476213948945       -0.33697876551655
H           16.22414385423715        4.47582334437470       -0.60272778483379
H           12.64481904671942        4.77240108438923       -2.56953317500446
H           12.65750404976794        7.24607081713541       -2.82719103524330
H           14.45202835779562        7.76699164053510        0.83347472211643
H           14.50551089359257        5.31706248787403        1.25729220120647
H           10.92331273658183        4.43174334829223       -0.52303813143172
H            9.05792922654632        2.51268874084832       -0.27766208170526
Cu          24.56450006183680        0.04819782935063        0.00301424070548
C           27.97737726861052        0.08018887791878        0.00885816274036
C           27.34093896350673        1.29596097232511       -0.19041382059654
C           28.01388120330705        2.55262143099694       -0.35724435376118
C           27.05377592549559        3.49661014887508       -0.51679401026951
C           25.78495723479618        2.82241627364163       -0.45757562504718
N           25.99035616035489        1.48940048831017       -0.24951772679591
C           24.53864829456086        3.44115115638768       -0.57256140834880
C           24.52529293596693        4.90310230312557       -0.82317008808995
C           23.96746599790526        5.79236816084666        0.09449870063319
C           23.98531226146957        7.15009509425177       -0.18357422613178
N           24.50865556595726        7.65509930743091       -1.29616461370632
C           25.03933036579419        6.81392586892180       -2.17804595965024
C           25.07362019458093        5.44174670452452       -1.98671311532417
C           23.30508512857754        2.79409646931601       -0.47523394681837
C           22.03352166840943        3.43349814339633       -0.65593677461841
C           21.08450459564688        2.47714208755771       -0.49937535754767
N           23.10854365614400        1.46134405819602       -0.22580463364747
C           21.76264045689773        1.24683497280677       -0.22590279579949
C           21.11778147255402        0.01633373467708       -0.00086303991491
C           21.78466075722327       -1.20260051925425        0.22226841137690
C           21.12781031092736       -2.45846262534961        0.42195621047204
C           22.09390676877983       -3.39814396745051        0.57390194477354
C           23.35500684497691       -2.72031895125208        0.48040593555420
N           23.13453782767173       -1.38599338733054        0.26051381725752
C           24.60020055496001       -3.34587680789233        0.56848745884472
C           24.61286191788345       -4.81035756261940        0.80555554045480
C           25.14298966882952       -5.68952382011870       -0.13801406260167
C           25.12991804844180       -7.05050465710668        0.12353115693047
N           24.63649219675665       -7.56799940736312        1.24397746107098
C           24.13199118793134       -6.73655942545381        2.15014568284917
C           24.09610508517201       -5.36187272662148        1.97724855541976
C           25.83512078780774       -2.70551839857848        0.44947460274407
C           27.11638911915015       -3.34421998318608        0.58533865375564
C           28.05920724413401       -2.38269353689700        0.42777285750873
C           27.36328440401778       -1.14792754789792        0.20168629970129
N           26.01622183595246       -1.37189909156622        0.22350215424994
H           29.06229342977889        0.09241598531628        0.02334908545907
H           29.08459877953066        2.68243087436207       -0.34529780359137
H           27.18498640803817        4.55822441608111       -0.65131136357777
H           23.53917821154494        5.42688687667795        1.02038974073839
H           23.56111515152375        7.86268034286211        0.51800744117546
H           25.45588481187208        7.25611834906077       -3.07828966904733
H           25.50693126703974        4.79290627896290       -2.73856108549098
H           21.88876496424174        4.47615000519994       -0.88763601445477
H           20.01633139557649        2.58840096431217       -0.57286514042538
H           20.06083608568866       -2.59980584427302        0.43786814965081
H           21.96616536381974       -4.45773525428053        0.72460555548150
H           25.54551139003252       -5.31330310963273       -1.07103063348293
H           25.53284984758507       -7.75502643524109       -0.59836663647304
H           23.73829663883975       -7.18916612095971        3.05560942497062
H           23.68480304236611       -4.72184777359757        2.74883465767378
H           27.26699982831307       -4.39235849205811        0.78802484211546
H           29.13237288209888       -2.48485047226651        0.46486196251648
C           18.48604412993733       -0.00444981683560       -0.00658942141721
C           19.70424732126318        0.00264734849646       -0.00654795842791

          :  Hamiltonian                  GFN1-xTB          :
         :: total energy            -196.611367769426 Eh    ::
         :: gradient norm              0.000661518397 Eh/a0 ::
         :: HOMO-LUMO gap              0.002144924435 eV    ::
         :: SCC energy              -199.556039910242 Eh    ::
         :: repulsion energy           3.046913968924 Eh    ::

    * Orbital Energies and Occupations

         #    Occupation            Energy/Eh            Energy/eV
      -------------------------------------------------------------
         1        2.0000           -0.7691578             -20.9298
       ...           ...                  ...                  ...
       170        2.0000           -0.4164697             -11.3327
       171        2.0000           -0.4164322             -11.3317
       172        2.0000           -0.4135327             -11.2528
       173        2.0000           -0.4135242             -11.2526
       174        2.0000           -0.4133362             -11.2475
       175        2.0000           -0.4132931             -11.2463
       176        2.0000           -0.4132916             -11.2462
       177        2.0000           -0.4132403             -11.2448
       178        2.0000           -0.4009384             -10.9101
       179        2.0000           -0.4008160             -10.9068
       180        2.0000           -0.4008022             -10.9064
       181        2.0000           -0.3860488             -10.5049
       182        1.0207           -0.3608549              -9.8194 (HOMO)
       183        0.9793           -0.3607761              -9.8172 (LUMO)
       184                         -0.3434252              -9.3451
       185                         -0.3339117              -9.0862
       186                         -0.3339034              -9.0860
       187                         -0.3261996              -8.8763
       188                         -0.3027399              -8.2380
       189                         -0.2948976              -8.0246
       190                         -0.2811268              -7.6499
       191                         -0.2811069              -7.6493
       192                         -0.2794703              -7.6048
       193                         -0.2776150              -7.5543
       ...                                ...                  ...
       382                          1.3236016              36.0170
      -------------------------------------------------------------
                  HL-Gap            0.0000788 Eh            0.0021 eV

Wiberg/Mayer (AO) data.
largest (>0.10) Wiberg bond orders for each atom

     #   Z sym  total        # sym  WBO       # sym  WBO       # sym  WBO
 ---------------------------------------------------------------------------
     1  29 Cu   2.185 --    37 N    0.504     7 N    0.504    25 N    0.503
                            18 N    0.503
     2   6 C    3.930 --    36 C    1.362     3 C    1.361    38 H    0.971
     3   6 C    3.916 --     2 C    1.361     7 N    1.230     4 C    1.170
     4   6 C    3.955 --     5 C    1.657     3 C    1.170    39 H    0.975
     5   6 C    3.958 --     4 C    1.657     6 C    1.171    40 H    0.973
     6   6 C    3.914 --     8 C    1.320     7 N    1.239     5 C    1.171
     7   7 N    3.244 --     6 C    1.239     3 C    1.230     1 Cu   0.504
     8   6 C    3.935 --    15 C    1.325     6 C    1.320     9 C    1.027
     9   6 C    3.986 --    10 C    1.393    14 C    1.393     8 C    1.027
                            12 N    0.107
    10   6 C    3.987 --    11 C    1.442     9 C    1.393    41 H    0.973
                            13 C    0.108
    11   6 C    3.972 --    10 C    1.442    12 N    1.416    42 H    0.972
                            14 C    0.108
    12   7 N    3.030 --    11 C    1.416    13 C    1.415     9 C    0.107
    13   6 C    3.972 --    14 C    1.442    12 N    1.415    43 H    0.972
                            10 C    0.108
    14   6 C    3.987 --    13 C    1.442     9 C    1.393    44 H    0.973
                            11 C    0.108
    15   6 C    3.909 --     8 C    1.325    18 N    1.223    16 C    1.179
    16   6 C    3.954 --    17 C    1.641    15 C    1.179    45 H    0.973
    17   6 C    3.957 --    16 C    1.641    19 C    1.187    46 H    0.963
    18   7 N    3.247 --    19 C    1.254    15 C    1.223     1 Cu   0.503
    19   6 C    3.901 --    20 C    1.264    18 N    1.254    17 C    1.187
    20   6 C    3.941 --    21 C    1.264    19 C    1.264   109 C    1.175
    21   6 C    3.901 --    20 C    1.264    25 N    1.254    22 C    1.187
    22   6 C    3.957 --    23 C    1.642    21 C    1.187    47 H    0.963
    23   6 C    3.954 --    22 C    1.642    24 C    1.179    48 H    0.973
    24   6 C    3.909 --    26 C    1.325    25 N    1.223    23 C    1.179
    25   7 N    3.247 --    21 C    1.254    24 C    1.223     1 Cu   0.503
    26   6 C    3.934 --    24 C    1.325    33 C    1.320    27 C    1.026
    27   6 C    3.986 --    28 C    1.393    32 C    1.393    26 C    1.026
                            30 N    0.107
    28   6 C    3.987 --    29 C    1.442    27 C    1.393    49 H    0.973
                            31 C    0.109
    29   6 C    3.972 --    28 C    1.442    30 N    1.416    50 H    0.972
                            32 C    0.108
    30   7 N    3.030 --    29 C    1.416    31 C    1.415    27 C    0.107
    31   6 C    3.972 --    32 C    1.442    30 N    1.415    51 H    0.972
                            28 C    0.109
    32   6 C    3.987 --    31 C    1.442    27 C    1.393    52 H    0.973
                            29 C    0.108
    33   6 C    3.914 --    26 C    1.320    37 N    1.239    34 C    1.171
    34   6 C    3.958 --    35 C    1.657    33 C    1.171    53 H    0.973
    35   6 C    3.955 --    34 C    1.657    36 C    1.169    54 H    0.975
    36   6 C    3.916 --     2 C    1.362    37 N    1.230    35 C    1.169
    37   7 N    3.244 --    33 C    1.239    36 C    1.230     1 Cu   0.504
    38   1 H    1.001 --     2 C    0.971
    39   1 H    0.998 --     4 C    0.975
    40   1 H    1.004 --     5 C    0.973
    41   1 H    1.004 --    10 C    0.973
    42   1 H    1.013 --    11 C    0.972
    43   1 H    1.013 --    13 C    0.972
    44   1 H    1.004 --    14 C    0.973
    45   1 H    1.004 --    16 C    0.973
    46   1 H    1.008 --    17 C    0.963
    47   1 H    1.008 --    22 C    0.963
    48   1 H    1.004 --    23 C    0.973
    49   1 H    1.004 --    28 C    0.973
    50   1 H    1.013 --    29 C    0.972
    51   1 H    1.013 --    31 C    0.972
    52   1 H    1.004 --    32 C    0.973
    53   1 H    1.004 --    34 C    0.973
    54   1 H    0.998 --    35 C    0.975
    55  29 Cu   2.185 --    91 N    0.504    61 N    0.504    79 N    0.503
                            72 N    0.503
    56   6 C    3.930 --    90 C    1.362    57 C    1.361    92 H    0.971
    57   6 C    3.916 --    56 C    1.361    61 N    1.230    58 C    1.170
    58   6 C    3.955 --    59 C    1.657    57 C    1.170    93 H    0.975
    59   6 C    3.958 --    58 C    1.657    60 C    1.171    94 H    0.973
    60   6 C    3.914 --    62 C    1.320    61 N    1.239    59 C    1.171
    61   7 N    3.244 --    60 C    1.239    57 C    1.230    55 Cu   0.504
    62   6 C    3.935 --    69 C    1.325    60 C    1.320    63 C    1.027
    63   6 C    3.986 --    64 C    1.393    68 C    1.393    62 C    1.027
                            66 N    0.107
    64   6 C    3.987 --    65 C    1.442    63 C    1.393    95 H    0.973
                            67 C    0.108
    65   6 C    3.972 --    64 C    1.442    66 N    1.416    96 H    0.972
                            68 C    0.108
    66   7 N    3.030 --    65 C    1.416    67 C    1.415    63 C    0.107
    67   6 C    3.972 --    68 C    1.442    66 N    1.415    97 H    0.972
                            64 C    0.108
    68   6 C    3.987 --    67 C    1.442    63 C    1.393    98 H    0.973
                            65 C    0.108
    69   6 C    3.909 --    62 C    1.325    72 N    1.223    70 C    1.179
    70   6 C    3.954 --    71 C    1.641    69 C    1.179    99 H    0.973
    71   6 C    3.957 --    70 C    1.641    73 C    1.187   100 H    0.963
    72   7 N    3.247 --    73 C    1.254    69 C    1.223    55 Cu   0.503
    73   6 C    3.901 --    74 C    1.264    72 N    1.254    71 C    1.187
    74   6 C    3.941 --    75 C    1.264    73 C    1.264   110 C    1.175
    75   6 C    3.901 --    74 C    1.264    79 N    1.254    76 C    1.187
    76   6 C    3.957 --    77 C    1.642    75 C    1.187   101 H    0.963
    77   6 C    3.954 --    76 C    1.642    78 C    1.179   102 H    0.973
    78   6 C    3.909 --    80 C    1.325    79 N    1.223    77 C    1.179
    79   7 N    3.247 --    75 C    1.254    78 C    1.223    55 Cu   0.503
    80   6 C    3.934 --    78 C    1.325    87 C    1.320    81 C    1.026
    81   6 C    3.986 --    82 C    1.393    86 C    1.393    80 C    1.026
                            84 N    0.107
    82   6 C    3.987 --    83 C    1.442    81 C    1.393   103 H    0.973
                            85 C    0.109
    83   6 C    3.972 --    82 C    1.442    84 N    1.416   104 H    0.972
                            86 C    0.108
    84   7 N    3.030 --    83 C    1.416    85 C    1.415    81 C    0.107
    85   6 C    3.972 --    86 C    1.442    84 N    1.415   105 H    0.972
                            82 C    0.109
    86   6 C    3.987 --    85 C    1.442    81 C    1.393   106 H    0.973
                            83 C    0.108
    87   6 C    3.914 --    80 C    1.320    91 N    1.239    88 C    1.171
    88   6 C    3.958 --    89 C    1.657    87 C    1.171   107 H    0.973
    89   6 C    3.955 --    88 C    1.657    90 C    1.169   108 H    0.975
    90   6 C    3.916 --    56 C    1.362    91 N    1.230    89 C    1.169
    91   7 N    3.244 --    87 C    1.239    90 C    1.230    55 Cu   0.504
    92   1 H    1.001 --    56 C    0.971
    93   1 H    0.998 --    58 C    0.975
    94   1 H    1.004 --    59 C    0.973
    95   1 H    1.004 --    64 C    0.973
    96   1 H    1.013 --    65 C    0.972
    97   1 H    1.013 --    67 C    0.972
    98   1 H    1.004 --    68 C    0.973
    99   1 H    1.004 --    70 C    0.973
   100   1 H    1.008 --    71 C    0.963
   101   1 H    1.008 --    76 C    0.963
   102   1 H    1.004 --    77 C    0.973
   103   1 H    1.004 --    82 C    0.973
   104   1 H    1.013 --    83 C    0.972
   105   1 H    1.013 --    85 C    0.972
   106   1 H    1.004 --    86 C    0.973
   107   1 H    1.004 --    88 C    0.973
   108   1 H    0.998 --    89 C    0.975
   109   6 C    3.936 --   110 C    2.585    20 C    1.175
   110   6 C    3.936 --   109 C    2.585    74 C    1.175
 ---------------------------------------------------------------------------

           -------------------------------------------------
          | TOTAL ENERGY             -196.611367769426 Eh   |
          | GRADIENT NORM               0.000661518397 Eh/α |
          | HOMO-LUMO GAP               0.002144924435 eV   |
           -------------------------------------------------

 * finished run on 2022/07/30 at 04:28:57.271
