   * xtb version 6.5.1 (b24c23e) compiled by 'conda@728c89f4b128' on 2022-07-12
          program call               : xtb Co_H_C8_4.xyz --gfn 1 --opt -T 48

   ID    Z sym.   atoms
    1   27 Co     1, 37, 97, 132
    2    6 C      2-6, 8-11, 13-18, 20-24, 38-42, 44-47, 49-54, 56-60, 73-96,
                  98-102, 104-107, 109-114, 116-120, 133-137, 139-142,
                  144-149, 151-155
    3    7 N      7, 12, 19, 25, 43, 48, 55, 61, 103, 108, 115, 121, 138,
                  143, 150, 156
    4    1 H      26-36, 62-72, 122-131, 157-166

          :  Hamiltonian                  GFN1-xTB          :
 * total energy  :  -301.8172545 Eh     change        0.3457046E-08 Eh
 * total energy  :  -305.3311872 Eh     change       -0.3513933E+01 Eh
 * total energy  :  -305.9396100 Eh     change       -0.6084229E+00 Eh
 * total energy  :  -306.1970506 Eh     change       -0.2574406E+00 Eh
 * total energy  :  -306.3334189 Eh     change       -0.1363683E+00 Eh
 * total energy  :  -306.4169974 Eh     change       -0.8357853E-01 Eh
 * total energy  :  -306.4816446 Eh     change       -0.6464711E-01 Eh
 * total energy  :  -306.5405804 Eh     change       -0.5893588E-01 Eh
 * total energy  :  -306.6048704 Eh     change       -0.6428995E-01 Eh
 * total energy  :  -306.6741743 Eh     change       -0.6930393E-01 Eh
 * total energy  :  -306.9875784 Eh     change       -0.2329677E-03 Eh
 * total energy  :  -306.9876394 Eh     change       -0.6109116E-04 Eh
 * total energy  :  -306.9877324 Eh     change       -0.9298310E-04 Eh
 * total energy  :  -306.9878002 Eh     change       -0.6780093E-04 Eh
 * total energy  :  -306.9878184 Eh     change       -0.1812368E-04 Eh
 * total energy  :  -306.9878288 Eh     change       -0.1042052E-04 Eh
 * total energy  :  -306.9878350 Eh     change       -0.6223244E-05 Eh
 * total energy  :  -306.9878356 Eh     change       -0.5763296E-06 Eh
 * total energy  :  -306.9878399 Eh     change       -0.4364272E-05 Eh
   *** GEOMETRY OPTIMIZATION CONVERGED AFTER 40 ITERATIONS ***

 final structure:
================
166
 xtb: 6.5.1 (b24c23e)
Co          16.56289006673528       -0.01772684411548       -0.01555030770541
C           13.15365816816214       -0.05659106221194       -0.05469988158366
C           13.82763777322232       -0.90375037384907       -0.90612598649218
C           13.16876832198536       -1.80137515431408       -1.80844578518015
C           14.14162915653279       -2.46425721196413       -2.47460576616182
C           15.39046525362818       -1.96883800353744       -1.97635136296256
N           15.19072177381237       -1.01230783332810       -1.01497336874934
C           16.61457794702210       -2.41536178040131       -2.42432079482220
C           17.81689881817784       -1.94407954888481       -1.94960725032134
C           19.08374540957405       -2.41473372584029       -2.42076319324716
C           20.02911847214136       -1.73178108621176       -1.73400028741674
N           17.98152720454630       -0.98019069735934       -0.98138467555192
C           19.33449161507785       -0.84857113662742       -0.84826889763279
C           19.99238791488183        0.02173995106186        0.02363089208294
C           19.29558878658240        0.87624951532721        0.88041800465301
C           19.94925781917102        1.77482331719963        1.78165416496448
C           18.97283758577203        2.43633051069348        2.44571783147704
C           17.72818835252023        1.93716199516194        1.94547541164880
N           17.93710267405089        0.97696879378795        0.98218390632852
C           16.50471363266622        2.38118525575685        2.39173923543863
C           15.30158330347561        1.90671293362617        1.91644142279454
C           14.03060168846556        2.37337993446339        2.38564054660753
C           13.08868683328861        1.68809705177919        1.69800212670911
C           13.78843046926907        0.80569890134181        0.81159451633396
N           15.14576412225401        0.94547175130420        0.95155916672501
H           12.07016658304164       -0.06901319670467       -0.06709437237944
H           12.09821919905174       -1.89363500297682       -1.90135057917001
H           14.04788139507591       -3.22207627205778       -3.23627998204241
H           16.63182353867522       -3.17971086032386       -3.19243618661831
H           19.20977349126241       -3.17048388568089       -3.17957754004312
H           21.10244383197743       -1.80420205889721       -1.80538067537415
H           21.01880742753917        1.87098354186952        1.87800170374347
H           19.06408485099607        3.19492673568125        3.20669342475474
H           16.48687016125403        3.14613447681846        3.15926598656063
H           13.90183329622470        3.12899099039481        3.14438753550733
H           12.01444864665157        1.75573598445295        1.76633868238548
Co          72.37994600204837        0.00011420520596       -0.00850977994229
C           75.78921965908881        0.05930051459789       -0.01322538904936
C           75.11357735104832        1.25784317742997       -0.07356995683632
C           75.77079442305656        2.52981731302029       -0.13812622328684
C           74.79686859467591        3.46743160491920       -0.18136757924175
C           73.54877064715600        2.76454037895156       -0.14320147226819
N           73.75026941384245        1.40992593010844       -0.07794903007001
C           72.32420302121683        3.39504103738340       -0.16816855132415
C           71.12274715384663        2.72520208217029       -0.13208958450061
C           69.85512292418409        3.38907380975194       -0.15812911547377
C           68.91082909506908        2.42057674789925       -0.11254047337366
N           70.95988875520501        1.36038063053059       -0.06999711958512
C           69.60666776469593        1.17159707404029       -0.05921605376503
C           68.95083221349721       -0.05982921871540       -0.01254832326604
C           69.64881460547315       -1.26743396479940        0.03840244098234
C           68.99692517456161       -2.53976343022444        0.09364817393120
C           69.97445641250917       -3.47445991287990        0.14536479123008
C           71.21823716195755       -2.76685060460466        0.12009160910616
N           71.00790229800317       -1.40868238392662        0.05349765878002
C           72.44237562932476       -3.39420229448760        0.15854973417606
C           73.64440634457918       -2.72184202116627        0.12976592894143
C           74.91629019961005       -3.38085178461644        0.16580040749742
C           75.85695014150120       -2.41016024137380        0.11607225004660
C           75.15579320186470       -1.16193951362881        0.05063223758742
N           73.79865410424004       -1.36122070431949        0.06011661211571
H           76.87266736524415        0.07812217034100       -0.01518210105532
H           76.84119047978999        2.66175516756229       -0.14728079838514
H           74.88939817919709        4.54069748636255       -0.23410046102841
H           72.30532113111884        4.47742020303879       -0.21909899749051
H           69.72792010401510        4.45883844995956       -0.20594648255746
H           67.83738909005052        2.52104154199068       -0.11470934174264
H           67.92756826633557       -2.67737583781722        0.09346654331398
H           69.88454126907874       -4.54787512839174        0.19627535361790
H           72.46124236773399       -4.47645075294175        0.21259408156483
H           75.04642345529194       -4.45007488979500        0.22124233181332
H           76.93131316487040       -2.50484398029991        0.12175700318256
C           21.39510293369035        0.03590824832428        0.03683566631642
C           22.62023062212598        0.04075135340518        0.04101119023777
C           23.96170067943615        0.04192480371333        0.04223265132680
C           25.19331889234222        0.03574846764792        0.03732996582911
C           26.52967465723198        0.02722831415426        0.03060004520473
C           27.76136499409268        0.01630792504057        0.02164091231945
C           29.10231018024144        0.00488958296649        0.01148215624169
C           30.32785382080799       -0.00648954329859        0.00233426642425
C           40.00379909854180       -0.05870975053164       -0.04141403302287
C           41.22970833502971       -0.05510296048894       -0.03882170221639
C           42.57014499955010       -0.04826481772756       -0.03396731072439
C           43.80246975966492       -0.03439973749932       -0.02581078685355
C           45.13801123347108       -0.02334056991427       -0.02049350847363
C           46.37028193214473       -0.01509259027619       -0.01613547461257
C           47.71081556482781       -0.00964498027722       -0.01227087651524
C           48.93671107698558       -0.00584435688169       -0.01354711886089
C           58.61346963468360       -0.06008424777178       -0.03881781765044
C           59.83860323604384       -0.07000545787684       -0.04020161287992
C           61.18044015626482       -0.07970540684868       -0.03880388488765
C           62.41167953315890       -0.08830233511673       -0.03564025588158
C           63.74891240280557       -0.09426176486570       -0.03087640461177
C           64.98003832447826       -0.09710273732804       -0.02641760537344
C           66.32235348608508       -0.09163657411917       -0.02127441938842
C           67.54699445885538       -0.08158593922716       -0.01661063053114
Co          35.16600436468626       -0.03056063142092       -0.02554277821318
C           31.72944460029848       -0.01357484653822       -0.00696026294110
C           32.41726849944293        0.89553575724308        0.80121962765496
C           31.75287099777751        1.84205719073180        1.64312294200335
C           32.72213229703239        2.55050737374042        2.26899720500183
C           33.97100410198215        2.02990092930426        1.80436825660031
N           33.77384324563997        1.01180470683108        0.90137818378860
C           35.19084656342967        2.50789073523612        2.22769164564017
C           36.40113704228860        2.01661162547031        1.79337053729931
C           37.66005914508117        2.52360096436159        2.24607910505175
C           38.61548114566380        1.80447599043236        1.61123869442717
N           36.57873107462972        0.99617926636521        0.88881212657252
C           37.93275355239298        0.86510194838074        0.77600380433652
C           38.60277467755289       -0.05264448248579       -0.03792750432595
C           37.91547766639889       -0.96019072057986       -0.84847873595009
C           38.57994726172176       -1.90605516417429       -1.69094839596381
C           37.61072152649819       -2.60959222401691       -2.32246413332196
C           36.36164184840128       -2.08746174029501       -1.85961496448174
N           36.55895572408730       -1.07274510387219       -0.95274832285173
C           35.14181031797276       -2.56213888138379       -2.28592103156380
C           33.93120072323822       -2.07272875190005       -1.84916421150672
C           32.67227250457900       -2.58022908351501       -2.30116874661617
C           31.71674842805206       -1.86582112544941       -1.66107840044004
C           32.39929861039874       -0.92786503776987       -0.82420831185198
N           33.75367169142144       -1.05599259088132       -0.94057133275805
H           30.68235438650627        1.93620356423923        1.72926491803849
H           32.62278551671657        3.35356092749411        2.98173766755725
H           35.19851528203071        3.31880409382996        2.94690496003938
H           37.77500665899691        3.32559048919347        2.95765094347665
H           39.68772045430048        1.88714921120159        1.68737041229489
H           39.65051886537531       -2.00271885864685       -1.77422219175810
H           37.71032113992455       -3.41054533181875       -3.03753082182384
H           35.13377844604737       -3.37045662202062       -3.00808145059985
H           32.55737214651652       -3.37984646446432       -3.01545157928586
H           30.64444594307797       -1.95010981176172       -1.73466872662017
Co          53.77442526495681       -0.03082302168871       -0.02649718507053
C           50.33787928718694       -0.01104699966013       -0.01678471325542
C           51.02401698245549        0.89634607129171        0.79470042896837
C           50.35802124060784        1.84123122594693        1.63735654204925
C           51.32608556833207        2.54678475686555        2.26817051881771
C           52.57611040269077        2.02710910181519        1.80486056702760
N           52.38026404833548        1.01099717782228        0.89884696375400
C           53.79498036849447        2.50614945273503        2.22808860762328
C           55.00623190943689        2.01922872550116        1.78964551428537
C           56.26439760816631        2.53197922865500        2.23769851170375
C           57.22092215853719        1.81672727422216        1.60009242405974
N           55.18494122569998        0.99917401599590        0.88541345324492
C           56.53986195237929        0.87276401950283        0.76879021338866
C           57.21082755859815       -0.05050443577358       -0.03659289197801
C           56.52494522858888       -0.96637633204466       -0.83777160748109
C           57.19033367708663       -1.91840991258205       -1.67254115100970
C           56.22193360124474       -2.62432713880400       -2.30260749630123
C           54.97240176592167       -2.09773655276253       -1.84664586054784
N           55.16800889139000       -1.07860283524524       -0.94488176793397
C           53.75315063243765       -2.57190972578860       -2.27670782143546
C           52.54239216256489       -2.07763040363768       -1.84800896820795
C           51.28391789149831       -2.58236624580554       -2.30473318206460
C           50.32770261092207       -1.86366516896724       -1.67077573706251
C           51.00932595834142       -0.92628942364141       -0.83217246425633
N           52.36340429779273       -1.05800566468180       -0.94233215125800
H           49.28727840059311        1.93608588328056        1.72045736631367
H           51.22551949286667        3.34797176546955        2.98285898457937
H           53.80230791171726        3.31589115653450        2.94862053936832
H           56.37819325322785        3.33498474888785        2.94833111634281
H           58.29306417819704        1.90362026528998        1.67277089780171
H           58.26096106557159       -2.01660159525905       -1.75278669375243
H           56.32234373551720       -3.42920852847284       -3.01315088925309
H           53.74692520868579       -3.38313732441876       -2.99557322245786
H           51.16986109795522       -3.38321860441911       -3.01776045737594
H           49.25554814959803       -1.94515194922572       -1.74940391570758

          :  Hamiltonian                  GFN1-xTB          :
         :: total energy            -306.987839938864 Eh    ::
         :: gradient norm              0.000806181913 Eh/a0 ::
         :: HOMO-LUMO gap              0.003048403287 eV    ::
         :: SCC energy              -312.382566077051 Eh    ::
         :: repulsion energy           5.534498299356 Eh    ::

    * Orbital Energies and Occupations

         #    Occupation            Energy/Eh            Energy/eV
      -------------------------------------------------------------
         1        2.0000           -0.7756683             -21.1070
       ...           ...                  ...                  ...
       275        1.9999           -0.3965126             -10.7897
       276        1.9999           -0.3964490             -10.7879
       277        1.9999           -0.3960481             -10.7770
       278        1.9999           -0.3959577             -10.7746
       279        1.9999           -0.3959389             -10.7740
       280        1.9999           -0.3958799             -10.7724
       281        1.9998           -0.3957365             -10.7685
       282        1.9998           -0.3956681             -10.7667
       283        1.9998           -0.3955337             -10.7630
       284        1.9877           -0.3916788             -10.6581
       285        1.5271           -0.3879638             -10.5570
       286        1.1602           -0.3871571             -10.5351
       287        1.1524           -0.3871420             -10.5347 (HOMO)
       288        1.0944           -0.3870300             -10.5316 (LUMO)
       289        1.0795           -0.3870016             -10.5308
       290                         -0.3492253              -9.5029
       291                         -0.3426039              -9.3227
       292                         -0.3358714              -9.1395
       293                         -0.3332007              -9.0669
       294                         -0.3327058              -9.0534
       295                         -0.3323194              -9.0429
       296                         -0.3297718              -8.9735
       297                         -0.3290227              -8.9532
       298                         -0.3165598              -8.6140
       ...                                ...                  ...
       600                          1.5994078              43.5221
      -------------------------------------------------------------
                  HL-Gap            0.0001120 Eh            0.0030 eV

Wiberg/Mayer (AO) data.
largest (>0.10) Wiberg bond orders for each atom

     #   Z sym  total        # sym  WBO       # sym  WBO       # sym  WBO
 ---------------------------------------------------------------------------
     1  27 Co   2.989 --     7 N    0.634    25 N    0.634    12 N    0.630
                            19 N    0.630
     2   6 C    3.934 --     3 C    1.367    24 C    1.366    26 H    0.970
     3   6 C    3.924 --     2 C    1.367     7 N    1.208     4 C    1.170
     4   6 C    3.960 --     5 C    1.656     3 C    1.170    27 H    0.975
     5   6 C    3.962 --     4 C    1.656     6 C    1.170    28 H    0.975
     6   6 C    3.921 --     8 C    1.360     7 N    1.210     5 C    1.170
     7   7 N    3.350 --     6 C    1.210     3 C    1.208     1 Co   0.634
     8   6 C    3.939 --     9 C    1.376     6 C    1.360    29 H    0.970
     9   6 C    3.917 --     8 C    1.376    12 N    1.190    10 C    1.175
    10   6 C    3.957 --    11 C    1.645     9 C    1.175    30 H    0.975
    11   6 C    3.961 --    10 C    1.645    13 C    1.184    31 H    0.973
    12   7 N    3.351 --    13 C    1.238     9 C    1.190     1 Co   0.630
    13   6 C    3.902 --    14 C    1.260    12 N    1.238    11 C    1.184
    14   6 C    3.940 --    15 C    1.260    13 C    1.260    73 C    1.192
    15   6 C    3.902 --    14 C    1.260    19 N    1.238    16 C    1.184
    16   6 C    3.961 --    17 C    1.645    15 C    1.184    32 H    0.973
    17   6 C    3.957 --    16 C    1.645    18 C    1.175    33 H    0.975
    18   6 C    3.917 --    20 C    1.376    19 N    1.190    17 C    1.175
    19   7 N    3.351 --    15 C    1.238    18 C    1.190     1 Co   0.630
    20   6 C    3.939 --    18 C    1.376    21 C    1.360    34 H    0.970
    21   6 C    3.921 --    20 C    1.360    25 N    1.210    22 C    1.170
    22   6 C    3.962 --    23 C    1.656    21 C    1.170    35 H    0.975
    23   6 C    3.960 --    22 C    1.656    24 C    1.170    36 H    0.975
    24   6 C    3.924 --     2 C    1.366    25 N    1.208    23 C    1.170
    25   7 N    3.350 --    21 C    1.210    24 C    1.208     1 Co   0.634
    26   1 H    1.000 --     2 C    0.970
    27   1 H    0.997 --     4 C    0.975
    28   1 H    0.997 --     5 C    0.975
    29   1 H    1.000 --     8 C    0.970
    30   1 H    0.997 --    10 C    0.975
    31   1 H    1.001 --    11 C    0.973
    32   1 H    1.001 --    16 C    0.973
    33   1 H    0.997 --    17 C    0.975
    34   1 H    1.000 --    20 C    0.970
    35   1 H    0.997 --    22 C    0.975
    36   1 H    0.997 --    23 C    0.975
    37  27 Co   2.995 --    43 N    0.636    61 N    0.636    55 N    0.632
                            48 N    0.632
    38   6 C    3.936 --    39 C    1.367    60 C    1.367    62 H    0.970
    39   6 C    3.924 --    38 C    1.367    43 N    1.207    40 C    1.169
    40   6 C    3.960 --    41 C    1.656    39 C    1.169    63 H    0.975
    41   6 C    3.962 --    40 C    1.656    42 C    1.170    64 H    0.975
    42   6 C    3.921 --    44 C    1.362    43 N    1.209    41 C    1.170
    43   7 N    3.352 --    42 C    1.209    39 C    1.207    37 Co   0.636
    44   6 C    3.941 --    45 C    1.375    42 C    1.362    65 H    0.970
    45   6 C    3.917 --    44 C    1.375    48 N    1.191    46 C    1.175
    46   6 C    3.957 --    47 C    1.645    45 C    1.175    66 H    0.975
    47   6 C    3.961 --    46 C    1.645    49 C    1.184    67 H    0.973
    48   7 N    3.354 --    49 C    1.236    45 C    1.191    37 Co   0.632
    49   6 C    3.903 --    50 C    1.262    48 N    1.236    47 C    1.184
    50   6 C    3.943 --    51 C    1.263    49 C    1.262    96 C    1.188
    51   6 C    3.903 --    50 C    1.263    55 N    1.236    52 C    1.184
    52   6 C    3.961 --    53 C    1.645    51 C    1.184    68 H    0.973
    53   6 C    3.957 --    52 C    1.645    54 C    1.175    69 H    0.975
    54   6 C    3.917 --    56 C    1.375    55 N    1.191    53 C    1.175
    55   7 N    3.354 --    51 C    1.236    54 C    1.191    37 Co   0.632
    56   6 C    3.941 --    54 C    1.375    57 C    1.362    70 H    0.970
    57   6 C    3.921 --    56 C    1.362    61 N    1.209    58 C    1.170
    58   6 C    3.962 --    59 C    1.656    57 C    1.170    71 H    0.975
    59   6 C    3.960 --    58 C    1.656    60 C    1.169    72 H    0.975
    60   6 C    3.924 --    38 C    1.367    61 N    1.207    59 C    1.169
    61   7 N    3.352 --    57 C    1.209    60 C    1.207    37 Co   0.636
    62   1 H    1.000 --    38 C    0.970
    63   1 H    0.997 --    40 C    0.975
    64   1 H    0.997 --    41 C    0.975
    65   1 H    1.000 --    44 C    0.970
    66   1 H    0.997 --    46 C    0.975
    67   1 H    1.001 --    47 C    0.973
    68   1 H    1.001 --    52 C    0.973
    69   1 H    0.997 --    53 C    0.975
    70   1 H    1.000 --    56 C    0.970
    71   1 H    0.997 --    58 C    0.975
    72   1 H    0.997 --    59 C    0.975
    73   6 C    3.869 --    74 C    2.431    14 C    1.192    76 C    0.185
    74   6 C    3.934 --    73 C    2.431    75 C    1.351
    75   6 C    3.886 --    76 C    2.323    74 C    1.351    78 C    0.180
    76   6 C    3.922 --    75 C    2.323    77 C    1.378    73 C    0.185
    77   6 C    3.919 --    78 C    2.322    76 C    1.378    80 C    0.184
    78   6 C    3.887 --    77 C    2.322    79 C    1.353    75 C    0.180
    79   6 C    3.928 --    80 C    2.425    78 C    1.353
    80   6 C    3.870 --    79 C    2.425    98 C    1.198    77 C    0.184
    81   6 C    3.868 --    82 C    2.421   110 C    1.201    84 C    0.184
    82   6 C    3.927 --    81 C    2.421    83 C    1.357
    83   6 C    3.884 --    84 C    2.315    82 C    1.357    86 C    0.179
    84   6 C    3.918 --    83 C    2.315    85 C    1.383    81 C    0.184
    85   6 C    3.918 --    86 C    2.316    84 C    1.383    88 C    0.184
    86   6 C    3.884 --    85 C    2.316    87 C    1.357    83 C    0.179
    87   6 C    3.928 --    88 C    2.421    86 C    1.357
    88   6 C    3.868 --    87 C    2.421   133 C    1.200    85 C    0.184
    89   6 C    3.871 --    90 C    2.431   145 C    1.194    92 C    0.185
    90   6 C    3.929 --    89 C    2.431    91 C    1.349
    91   6 C    3.889 --    92 C    2.328    90 C    1.349    94 C    0.181
    92   6 C    3.920 --    91 C    2.328    93 C    1.373    89 C    0.185
    93   6 C    3.923 --    94 C    2.330    92 C    1.373    96 C    0.186
    94   6 C    3.887 --    93 C    2.330    95 C    1.346    91 C    0.181
    95   6 C    3.936 --    96 C    2.437    94 C    1.346
    96   6 C    3.871 --    95 C    2.437    50 C    1.188    93 C    0.186
    97  27 Co   2.944 --   121 N    0.621   103 N    0.621   115 N    0.620
                           108 N    0.620
    98   6 C    3.922 --   120 C    1.255    99 C    1.255    80 C    1.198
    99   6 C    3.903 --    98 C    1.255   103 N    1.242   100 C    1.186
   100   6 C    3.959 --   101 C    1.641    99 C    1.186   122 H    0.973
   101   6 C    3.958 --   100 C    1.641   102 C    1.178   123 H    0.975
   102   6 C    3.914 --   104 C    1.367   103 N    1.194   101 C    1.178
   103   7 N    3.341 --    99 C    1.242   102 C    1.194    97 Co   0.621
   104   6 C    3.930 --   105 C    1.369   102 C    1.367   124 H    0.970
   105   6 C    3.915 --   104 C    1.369   108 N    1.193   106 C    1.177
   106   6 C    3.958 --   107 C    1.642   105 C    1.177   125 H    0.975
   107   6 C    3.959 --   106 C    1.642   109 C    1.186   126 H    0.973
   108   7 N    3.340 --   109 C    1.244   105 C    1.193    97 Co   0.620
   109   6 C    3.903 --   110 C    1.253   108 N    1.244   107 C    1.186
   110   6 C    3.922 --   111 C    1.254   109 C    1.253    81 C    1.201
   111   6 C    3.903 --   110 C    1.254   115 N    1.243   112 C    1.186
   112   6 C    3.959 --   113 C    1.642   111 C    1.186   127 H    0.973
   113   6 C    3.958 --   112 C    1.642   114 C    1.177   128 H    0.975
   114   6 C    3.915 --   116 C    1.369   115 N    1.193   113 C    1.177
   115   7 N    3.340 --   111 C    1.243   114 C    1.193    97 Co   0.620
   116   6 C    3.929 --   114 C    1.369   117 C    1.367   129 H    0.970
   117   6 C    3.914 --   116 C    1.367   121 N    1.195   118 C    1.177
   118   6 C    3.958 --   119 C    1.641   117 C    1.177   130 H    0.975
   119   6 C    3.960 --   118 C    1.641   120 C    1.186   131 H    0.973
   120   6 C    3.903 --    98 C    1.255   121 N    1.242   119 C    1.186
   121   7 N    3.341 --   120 C    1.242   117 C    1.195    97 Co   0.621
   122   1 H    1.001 --   100 C    0.973
   123   1 H    0.997 --   101 C    0.975
   124   1 H    1.000 --   104 C    0.970
   125   1 H    0.997 --   106 C    0.975
   126   1 H    1.001 --   107 C    0.973
   127   1 H    1.001 --   112 C    0.973
   128   1 H    0.997 --   113 C    0.975
   129   1 H    1.000 --   116 C    0.970
   130   1 H    0.997 --   118 C    0.975
   131   1 H    1.001 --   119 C    0.973
   132  27 Co   2.947 --   143 N    0.622   150 N    0.622   156 N    0.621
                           138 N    0.621
   133   6 C    3.923 --   134 C    1.255   155 C    1.254    88 C    1.200
   134   6 C    3.903 --   133 C    1.255   138 N    1.243   135 C    1.185
   135   6 C    3.960 --   136 C    1.642   134 C    1.185   157 H    0.973
   136   6 C    3.958 --   135 C    1.642   137 C    1.177   158 H    0.975
   137   6 C    3.915 --   139 C    1.370   138 N    1.192   136 C    1.177
   138   7 N    3.341 --   134 C    1.243   137 C    1.192   132 Co   0.621
   139   6 C    3.930 --   137 C    1.370   140 C    1.365   159 H    0.970
   140   6 C    3.914 --   139 C    1.365   143 N    1.195   141 C    1.178
   141   6 C    3.958 --   142 C    1.641   140 C    1.178   160 H    0.975
   142   6 C    3.960 --   141 C    1.641   144 C    1.186   161 H    0.973
   143   7 N    3.342 --   144 C    1.240   140 C    1.195   132 Co   0.622
   144   6 C    3.903 --   145 C    1.258   143 N    1.240   142 C    1.186
   145   6 C    3.924 --   144 C    1.258   146 C    1.258    89 C    1.194
   146   6 C    3.903 --   145 C    1.258   150 N    1.240   147 C    1.186
   147   6 C    3.960 --   148 C    1.641   146 C    1.186   162 H    0.973
   148   6 C    3.958 --   147 C    1.641   149 C    1.178   163 H    0.975
   149   6 C    3.914 --   151 C    1.365   150 N    1.196   148 C    1.178
   150   7 N    3.342 --   146 C    1.240   149 C    1.196   132 Co   0.622
   151   6 C    3.930 --   152 C    1.370   149 C    1.365   164 H    0.970
   152   6 C    3.915 --   151 C    1.370   156 N    1.192   153 C    1.177
   153   6 C    3.958 --   154 C    1.642   152 C    1.177   165 H    0.975
   154   6 C    3.959 --   153 C    1.642   155 C    1.185   166 H    0.973
   155   6 C    3.903 --   133 C    1.254   156 N    1.244   154 C    1.185
   156   7 N    3.341 --   155 C    1.244   152 C    1.192   132 Co   0.621
   157   1 H    1.001 --   135 C    0.973
   158   1 H    0.997 --   136 C    0.975
   159   1 H    1.000 --   139 C    0.970
   160   1 H    0.997 --   141 C    0.975
   161   1 H    1.001 --   142 C    0.973
   162   1 H    1.001 --   147 C    0.973
   163   1 H    0.997 --   148 C    0.975
   164   1 H    1.000 --   151 C    0.970
   165   1 H    0.997 --   153 C    0.975
   166   1 H    1.001 --   154 C    0.973
 ---------------------------------------------------------------------------

           -------------------------------------------------
          | TOTAL ENERGY             -306.987839938864 Eh   |
          | GRADIENT NORM               0.000806181913 Eh/α |
          | HOMO-LUMO GAP               0.003048403287 eV   |
           -------------------------------------------------

 * finished run on 2022/07/29 at 22:23:35.935
