   * xtb version 6.5.1 (b24c23e) compiled by 'conda@728c89f4b128' on 2022-07-12
          program call               : xtb Ph3OH_C4_3.xyz --gfn 1 --opt -T 48

   ID    Z sym.   atoms
    1    6 C      1-5, 7-10, 12, 14, 16-19, 21-26, 28-31, 33, 35, 37-41,
                  64-68, 70-73, 75, 77, 79-82, 84-89, 91-94, 96, 98, 100-104,
                  127-139, 141-144, 146, 148, 150-153, 155-160, 162-165, 167,
                  169, 171-175
    2    7 N      6, 20, 27, 42, 69, 83, 90, 105, 140, 154, 161, 176
    3    8 O      11, 13, 15, 32, 34, 36, 74, 76, 78, 95, 97, 99, 145, 147,
                  149, 166, 168, 170
    4    1 H      43-63, 106-126, 177-196

          :  Hamiltonian                  GFN1-xTB          :
 * total energy  :  -375.1103039 Eh     change        0.1645049E-09 Eh
 * total energy  :  -375.3250614 Eh     change       -0.2147576E+00 Eh
 * total energy  :  -375.4183120 Eh     change       -0.9325059E-01 Eh
 * total energy  :  -375.4630542 Eh     change       -0.4474216E-01 Eh
 * total energy  :  -375.4863932 Eh     change       -0.2333904E-01 Eh
 * total energy  :  -375.5036954 Eh     change       -0.1730221E-01 Eh
 * total energy  :  -375.5151633 Eh     change       -0.1146792E-01 Eh
 * total energy  :  -375.5246054 Eh     change       -0.9442070E-02 Eh
 * total energy  :  -375.5357206 Eh     change       -0.1111525E-01 Eh
 * total energy  :  -375.5506936 Eh     change       -0.1497292E-01 Eh
 * total energy  :  -375.9655753 Eh     change       -0.1825152E-04 Eh
 * total energy  :  -375.9655902 Eh     change       -0.1489891E-04 Eh
 * total energy  :  -375.9656029 Eh     change       -0.1274500E-04 Eh
 * total energy  :  -375.9656155 Eh     change       -0.1264485E-04 Eh
 * total energy  :  -375.9656296 Eh     change       -0.1408988E-04 Eh
 * total energy  :  -375.9656352 Eh     change       -0.5601081E-05 Eh
 * total energy  :  -375.9656388 Eh     change       -0.3565313E-05 Eh
 * total energy  :  -375.9656444 Eh     change       -0.5650524E-05 Eh
 * total energy  :  -375.9656476 Eh     change       -0.3155872E-05 Eh
   *** GEOMETRY OPTIMIZATION CONVERGED AFTER 97 ITERATIONS ***

 final structure:
================
196
 xtb: 6.5.1 (b24c23e)
C           28.12988681101788       -0.34157931127704        0.14804541885342
C           28.73575984956974       -1.10400622393622       -0.84225168723016
C           28.07983015465441       -1.89203401545703       -1.82944981799423
C           29.03878234109020       -2.48179850241425       -2.60370040475384
C           30.31266600935166       -2.08621926728038       -2.10435538505015
N           30.07818107987814       -1.24612832582484       -1.05247792983638
C           31.57603269985741       -2.46039107028401       -2.57564701108393
C           31.61464304014795       -3.39810397103990       -3.72483542669977
C           32.23760192779157       -3.00622003631273       -4.91350275335344
C           32.26997477210890       -3.87608926713150       -5.99594242403075
O           32.85490439224935       -3.55839534008125       -7.19374524027059
C           31.69013510098963       -5.13855603338162       -5.89886095451317
O           31.71094180410876       -6.01675459641178       -6.95046412487692
C           31.07116216077118       -5.53271521934267       -4.71131055934526
O           30.51320202585922       -6.76510962142114       -4.62586272300863
C           31.03087119566818       -4.66166500248766       -3.62860976398826
C           32.78965593916259       -2.01325109663410       -2.04565739057520
C           34.08957845627321       -2.49197184326709       -2.48054429529565
C           35.00694171336654       -1.82875258045702       -1.74615963389307
N           32.93925958610048       -1.09256723533735       -1.05458468890580
C           34.26659598013615       -0.94808420841160       -0.86369674928133
C           34.89823816851940       -0.05341342531770        0.02271913911076
C           34.26059805292486        0.81501685487289        0.92761851827125
C           34.90028151834225        1.75380653698530        1.77997952676358
C           33.93479314999698        2.37979735620974        2.51837632671466
C           32.67497463024937        1.83177193638315        2.14877916874091
N           32.92296300591659        0.90146489088871        1.17401439779565
C           31.41588398734637        2.16629950489010        2.65898903987582
C           31.37853430730645        3.17555950257661        3.74483391035153
C           32.06845365619186        2.95397499591932        4.93752094742588
C           32.03242950384665        3.90372836319986        5.95172527699193
O           32.69480915595317        3.69487022756381        7.11571725156488
C           31.30963515387845        5.08450070138796        5.77363219061728
O           31.29570427150077        6.00467122131614        6.78874551641235
C           30.62251611994501        5.30674296721506        4.58285435140474
O           29.93903281174380        6.48993752383390        4.47941769641060
C           30.65172142341761        4.35688290859688        3.56973798620735
C           30.20637760579929        1.61833935294070        2.21642402767206
C           28.90935176665407        1.91034156784589        2.80680872852019
C           28.00072111756583        1.20693061853262        2.10111366036250
C           28.74204324694890        0.47776553376977        1.08758965192924
N           30.06790715380571        0.73935313973183        1.19590613713544
H           27.04615501936559       -0.39347392803821        0.18013186994487
H           27.00975059356325       -1.98090093968372       -1.92872009550076
H           28.88277718421286       -3.13062282219520       -3.45013926953845
H           30.80692237345916       -0.79517527614756       -0.50941231715630
H           32.67891301918372       -2.02016673544244       -5.00038728390185
H           33.23441608378472       -2.67019911249927       -7.16567648264327
H           32.17589898973717       -5.58932146827168       -7.68724534006030
H           30.64646796121259       -7.21965463589990       -5.47403438854928
H           30.56443917169569       -4.98595276935976       -2.70717595660351
H           34.25590871180115       -3.24771373234260       -3.23119351273591
H           36.08158691763931       -1.91323670726612       -1.77610616488740
H           35.96411155593611        1.92564441475061        1.81179977486730
H           34.07944962175796        3.15822234879112        3.24950095730373
H           32.20298323771204        0.35818677318707        0.70909566745296
H           32.61696094943698        2.03426907453177        5.09518011534874
H           32.54630790430134        4.46184302525380        7.69314514411335
H           30.74816820304973        6.75400788341442        6.50493838695249
H           29.48799461603948        6.55269729881684        3.62725318816564
H           30.12857604855369        4.54463116405121        2.63945545596470
H           28.74249431571051        2.55393833762664        3.65566875253419
H           26.93135577731361        1.15889204535759        2.23538936442780
C           61.72312691647478       -0.14337459714830        0.28622183877844
C           61.11266795521135        0.64687537045247        1.25151786130981
C           61.76426735281739        1.42453086432113        2.24978831504184
C           60.80224321454849        2.04996858478774        2.99151928354669
C           59.53069274296237        1.66434750207447        2.47861973448616
N           59.76958197801937        0.82729205297827        1.42541935432468
C           58.26666577813173        2.06063280796612        2.92943371922907
C           58.22771801118230        2.96678963159721        4.10423722300735
C           57.64311554709407        4.23085402536900        3.98569281390842
C           57.60849303677134        5.08120420427454        5.08362684897800
O           57.05944093848537        6.33603232309808        5.04081932027023
C           58.14798001724663        4.67645030238387        6.30204427668002
O           58.12297696500887        5.49444449290850        7.40115706855425
C           58.72958004618761        3.41325283817418        6.42238443619741
O           59.24844820225094        3.02715818175860        7.61364932240279
C           58.77238292893843        2.56288936157967        5.32353720151926
C           57.05442309084947        1.66378444385042        2.35863386899346
C           55.75178708074829        2.02057796986074        2.89162161971718
C           54.83706217055703        1.44770446819120        2.08202293281399
N           56.90835061408515        0.87769395689057        1.25708485512999
C           55.58151136116945        0.73666877841105        1.06077530875973
C           54.95253595093933        0.01448386237093        0.02746450862418
C           55.59102234675608       -0.72643343575806       -0.98366873343197
C           54.95118502387497       -1.39866490459906       -2.05895321090849
C           55.91921259420207       -1.98274353376106       -2.82741888028369
C           57.18133098727269       -1.69698408696118       -2.23604517604386
N           56.93103990955161       -0.92734242054304       -1.13038713253843
C           58.44439902561261       -2.09467149615177       -2.68709612283383
C           58.48677852313406       -2.93739518502751       -3.90700555250612
C           57.83665574067629       -4.17169308241872       -3.93710132379365
C           57.87594142620962       -4.95334898146303       -5.08595684009837
O           57.25177286052006       -6.15581351296177       -5.12323225429420
C           58.56211068101964       -4.49892795820286       -6.21338541372501
O           58.57972439267476       -5.28832206589328       -7.33320767428924
C           59.20985660480109       -3.26640742206301       -6.18393668390851
O           59.85885436278958       -2.88558793055487       -7.32924676348989
C           59.17754626343751       -2.48576397948540       -5.03542436049275
C           59.65444703578299       -1.75076879075511       -2.07365193915787
C           60.95659045910958       -2.23802829797489       -2.50154008870451
C           61.86292143600076       -1.69203048282687       -1.66567172112519
C           61.11555438789157       -0.87813772074831       -0.72357205581622
N           59.78864886344581       -0.94554614424471       -0.99347528496898
H           62.80695044449634       -0.18197655351946        0.33129338143077
H           62.83377339884643        1.49363347067746        2.36927570333335
H           60.95419231632908        2.72470282107000        3.81825338017220
H           59.04360426127999        0.40465149690807        0.85648529349805
H           57.23328498168575        4.55738570800920        3.03709020206780
H           56.70423312859860        6.52553888120893        4.16243463864892
H           57.68441373882263        6.32212300852547        7.14726861476428
H           59.11846785444051        3.74858046876544        8.25112620329322
H           59.20985903139590        1.57895628974495        5.43387833873333
H           55.58122132481047        2.61276466092240        3.77616563592497
H           53.76157132152338        1.48029567607117        2.15307819782951
H           53.88550013721807       -1.41852069102045       -2.22069364240066
H           55.77470488414119       -2.55440289738642       -3.72947583265615
H           57.65151357620942       -0.55839670154747       -0.51846071312300
H           57.31691735595595       -4.54344482794453       -3.06347648215982
H           57.39289940076235       -6.54588483443994       -6.00158272978318
H           59.09830067969491       -4.82980952425485       -8.01340438490260
H           60.28224011682725       -2.02471824781271       -7.21401295664045
H           59.66975303472190       -1.52032061666990       -5.02545209550059
H           61.12800724641723       -2.91888005183413       -3.31987575222337
H           62.93459969800957       -1.81574201574581       -1.65732962331580
C           37.52643530911750        0.02150918405046       -0.00163690652103
C           36.30527434138440       -0.01135397975541        0.00878756519182
C           38.87663785555114        0.04528585185944       -0.02154559676693
C           40.09819503081330        0.06408654404294       -0.04014111011110
C           50.97331686543957        0.04922685231074       -0.06538825821320
C           49.75185589386387        0.05227087890577       -0.08375231775318
C           52.32382577026288        0.03876667144780       -0.04138435831913
C           53.54500343188206        0.03049622542655       -0.01133561564625
C           41.50518271330824        0.06519231201267       -0.05210613390141
C           42.12567034472688       -1.19706902534891       -0.10851662320530
C           41.47065103029816       -2.45581565964430       -0.09750905799256
C           42.42878388237587       -3.42973401846693       -0.17066940012005
C           43.69756590306911       -2.79264371859015       -0.24197324862264
N           43.46371823193199       -1.44416098425832       -0.18949983957292
C           44.95323498915592       -3.40493577283430       -0.34007501586623
C           44.96621005165139       -4.88625100011078       -0.41671100348047
C           45.63092641180648       -5.62983056362989        0.55959257631259
C           45.64472434241201       -7.02108246793795        0.51635748472987
O           46.27928900341091       -7.75462654083398        1.46724421916397
C           44.99109086256834       -7.68887200689798       -0.52457533415937
O           44.98798586346587       -9.04502445890990       -0.59628004630626
C           44.33333277660390       -6.93753239747812       -1.50217435558522
O           43.71868207032386       -7.65305466183186       -2.49748966069948
C           44.31019841236471       -5.55055474387072       -1.45508244708453
C           46.17732400167380       -2.73248746339118       -0.35926367509876
C           47.45916933449654       -3.38809766042434       -0.54730934000232
C           48.39720580047670       -2.42060552867161       -0.48030152579154
N           46.35589011897646       -1.39147738455672       -0.21005936556899
C           47.68674786791186       -1.17640749323613       -0.26074081664141
C           48.34457457977383        0.05741544017349       -0.09185404955035
C           47.72471202691791        1.30929220045931        0.07774069163993
C           48.38071569139512        2.55255541774981        0.27293370087072
C           47.42316034002758        3.52650426411610        0.34771253688356
C           46.15324372140537        2.90628681192574        0.19264975318596
N           46.38601929721970        1.56474680732228        0.04766726016046
C           44.89813807720930        3.52702616647612        0.19538154725502
C           44.89126190775219        5.00721903223925        0.30479954205908
C           45.52841433908539        5.78407054057279       -0.66362880456227
C           45.51750074033576        7.17040711361574       -0.56432075894534
O           46.12687239455333        7.93398634764104       -1.50411551954817
C           44.87461512647476        7.78539902544124        0.51121694999771
O           44.88312895667145        9.15357703874527        0.58508805479821
C           44.24258522396426        7.00993559018356        1.48014142729031
O           43.63752263730213        7.68421167472195        2.50803850470974
C           44.24581690167617        5.62434179857045        1.37998432840089
C           43.67170241111661        2.86531603392681        0.10305947464864
C           42.38718634108960        3.53998242757685        0.04522438678936
C           41.44881741863767        2.57224446115882       -0.01559308934614
C           42.16170821213218        1.31032698620428       -0.00867031098626
N           43.49329921558638        1.51697145107926        0.05046577687124
H           40.40306695931712       -2.59058306438192       -0.03215845526431
H           42.27168881120335       -4.49602301797522       -0.16462000229591
H           44.18987382121321       -0.73569828645885       -0.19521698042832
H           46.12811312760254       -5.12259527006458        1.37874689569136
H           46.69789985726795       -7.18480706749475        2.12588174546143
H           44.48795979544990       -9.30621021901961       -1.38621246075424
H           43.29522848734008       -7.06349370231812       -3.13476433048380
H           43.80596417341599       -4.99162924334740       -2.23471604832055
H           47.59965801646769       -4.44232058137646       -0.72333852932313
H           49.46734669791587       -2.51243508444112       -0.57527713754449
H           49.44902978194131        2.67621322503165        0.34810760224449
H           47.58034529545605        4.58101872679249        0.50436878950613
H           45.65995875340069        0.86531503722622       -0.06550914464960
H           46.01562791531297        5.31916539593759       -1.51106646059661
H           46.00681533571093        8.86744624424566       -1.26323356234359
H           44.39594607268728        9.41243373853709        1.38335222655829
H           43.22143604464642        7.06824159380987        3.12531263436457
H           43.76465662551718        5.02703967068470        2.14550833484290
H           42.24381465635985        4.60834542624540        0.03674134201531
H           40.37691383619210        2.67590759295933       -0.07213730526947

          :  Hamiltonian                  GFN1-xTB          :
         :: total energy            -375.965647614823 Eh    ::
         :: gradient norm              0.000944840358 Eh/a0 ::
         :: HOMO-LUMO gap              0.917988536518 eV    ::
         :: SCC energy              -381.147673071666 Eh    ::
         :: repulsion energy           5.347496271518 Eh    ::

    * Orbital Energies and Occupations

         #    Occupation            Energy/Eh            Energy/eV
      -------------------------------------------------------------
         1        2.0000           -0.8137163             -22.1423
       ...           ...                  ...                  ...
       311        2.0000           -0.4152518             -11.2996
       312        2.0000           -0.4133361             -11.2474
       313        2.0000           -0.4129614             -11.2373
       314        2.0000           -0.4120851             -11.2134
       315        2.0000           -0.4120266             -11.2118
       316        2.0000           -0.4109702             -11.1831
       317        2.0000           -0.4073120             -11.0835
       318        2.0000           -0.4000772             -10.8867
       319        2.0000           -0.3995364             -10.8719
       320        2.0000           -0.3984535             -10.8425
       321        2.0000           -0.3873977             -10.5416
       322        2.0000           -0.3828778             -10.4186
       323        2.0000           -0.3772031             -10.2642 (HOMO)
       324                         -0.3434677              -9.3462 (LUMO)
       325                         -0.3353519              -9.1254
       326                         -0.3321105              -9.0372
       327                         -0.3318990              -9.0314
       328                         -0.3308238              -9.0022
       329                         -0.3299334              -8.9779
       330                         -0.3038671              -8.2686
       331                         -0.2969683              -8.0809
       332                         -0.2950246              -8.0280
       333                         -0.2586064              -7.0370
       334                         -0.2578123              -7.0154
       ...                                ...                  ...
       660                          1.5161840              41.2575
      -------------------------------------------------------------
                  HL-Gap            0.0337355 Eh            0.9180 eV

Wiberg/Mayer (AO) data.
largest (>0.10) Wiberg bond orders for each atom

     #   Z sym  total        # sym  WBO       # sym  WBO       # sym  WBO
 ---------------------------------------------------------------------------
     1   6 C    3.926 --    41 C    1.365     2 C    1.347    43 H    0.971
     2   6 C    3.902 --     1 C    1.347     3 C    1.229     6 N    1.170
     3   6 C    3.953 --     4 C    1.596     2 C    1.229    44 H    0.976
     4   6 C    3.959 --     3 C    1.596     5 C    1.234    45 H    0.974
     5   6 C    3.896 --     7 C    1.304     4 C    1.234     6 N    1.176
     6   7 N    3.470 --     5 C    1.176     2 C    1.170    46 H    0.873
     7   6 C    3.939 --    17 C    1.332     5 C    1.304     8 C    1.031
     8   6 C    3.989 --    16 C    1.398     9 C    1.385     7 C    1.031
     9   6 C    3.972 --    10 C    1.385     8 C    1.385    47 H    0.969
    10   6 C    3.905 --     9 C    1.385    12 C    1.340    11 O    1.013
    11   8 O    2.025 --    10 C    1.013    48 H    0.861
    12   6 C    3.903 --    10 C    1.340    14 C    1.324    13 O    1.021
    13   8 O    2.021 --    12 C    1.021    49 H    0.846
    14   6 C    3.918 --    16 C    1.380    12 C    1.324    15 O    1.053
    15   8 O    2.048 --    14 C    1.053    50 H    0.847
    16   6 C    3.976 --     8 C    1.398    14 C    1.380    51 H    0.970
    17   6 C    3.915 --     7 C    1.332    20 N    1.289    18 C    1.126
    18   6 C    3.966 --    19 C    1.708    17 C    1.126    52 H    0.974
    19   6 C    3.964 --    18 C    1.708    21 C    1.129    53 H    0.974
    20   7 N    3.022 --    21 C    1.341    17 C    1.289
    21   6 C    3.911 --    20 N    1.341    22 C    1.258    19 C    1.129
    22   6 C    3.937 --    21 C    1.258    23 C    1.255   128 C    1.182
    23   6 C    3.887 --    22 C    1.255    24 C    1.248    27 N    1.188
    24   6 C    3.958 --    25 C    1.584    23 C    1.248    54 H    0.975
    25   6 C    3.956 --    24 C    1.584    26 C    1.240    55 H    0.974
    26   6 C    3.898 --    28 C    1.310    25 C    1.240    27 N    1.165
    27   7 N    3.474 --    23 C    1.188    26 C    1.165    56 H    0.873
    28   6 C    3.926 --    38 C    1.319    26 C    1.310    29 C    1.033
    29   6 C    3.989 --    30 C    1.396    37 C    1.384    28 C    1.033
    30   6 C    3.975 --    29 C    1.396    31 C    1.381    57 H    0.970
    31   6 C    3.918 --    30 C    1.381    33 C    1.324    32 O    1.053
    32   8 O    2.048 --    31 C    1.053    58 H    0.848
    33   6 C    3.903 --    35 C    1.340    31 C    1.324    34 O    1.021
    34   8 O    2.021 --    33 C    1.021    59 H    0.846
    35   6 C    3.905 --    37 C    1.385    33 C    1.340    36 O    1.013
    36   8 O    2.025 --    35 C    1.013    60 H    0.861
    37   6 C    3.971 --    35 C    1.385    29 C    1.384    61 H    0.969
    38   6 C    3.928 --    28 C    1.319    42 N    1.318    39 C    1.119
    39   6 C    3.967 --    40 C    1.720    38 C    1.119    62 H    0.974
    40   6 C    3.966 --    39 C    1.720    41 C    1.118    63 H    0.976
    41   6 C    3.929 --     1 C    1.365    42 N    1.300    40 C    1.118
    42   7 N    3.013 --    38 C    1.318    41 C    1.300
    43   1 H    1.002 --     1 C    0.971
    44   1 H    0.998 --     3 C    0.976
    45   1 H    1.005 --     4 C    0.974
    46   1 H    0.986 --     6 N    0.873
    47   1 H    1.001 --     9 C    0.969
    48   1 H    0.881 --    11 O    0.861
    49   1 H    0.876 --    13 O    0.846
    50   1 H    0.878 --    15 O    0.847
    51   1 H    1.000 --    16 C    0.970
    52   1 H    1.006 --    18 C    0.974
    53   1 H    1.003 --    19 C    0.974
    54   1 H    1.002 --    24 C    0.975
    55   1 H    1.005 --    25 C    0.974
    56   1 H    0.987 --    27 N    0.873
    57   1 H    1.000 --    30 C    0.970
    58   1 H    0.878 --    32 O    0.848
    59   1 H    0.876 --    34 O    0.846
    60   1 H    0.881 --    36 O    0.861
    61   1 H    1.001 --    37 C    0.969
    62   1 H    1.006 --    39 C    0.974
    63   1 H    0.998 --    40 C    0.976
    64   6 C    3.926 --   104 C    1.366    65 C    1.347   106 H    0.971
    65   6 C    3.902 --    64 C    1.347    66 C    1.229    69 N    1.170
    66   6 C    3.954 --    67 C    1.596    65 C    1.229   107 H    0.977
    67   6 C    3.959 --    66 C    1.596    68 C    1.234   108 H    0.974
    68   6 C    3.896 --    70 C    1.304    67 C    1.234    69 N    1.176
    69   7 N    3.470 --    68 C    1.176    65 C    1.170   109 H    0.873
    70   6 C    3.939 --    80 C    1.333    68 C    1.304    71 C    1.029
    71   6 C    3.989 --    79 C    1.398    72 C    1.386    70 C    1.029
    72   6 C    3.974 --    71 C    1.386    73 C    1.385   110 H    0.969
    73   6 C    3.905 --    72 C    1.385    75 C    1.340    74 O    1.013
    74   8 O    2.025 --    73 C    1.013   111 H    0.861
    75   6 C    3.904 --    73 C    1.340    77 C    1.324    76 O    1.021
    76   8 O    2.021 --    75 C    1.021   112 H    0.846
    77   6 C    3.918 --    79 C    1.380    75 C    1.324    78 O    1.052
    78   8 O    2.048 --    77 C    1.052   113 H    0.848
    79   6 C    3.976 --    71 C    1.398    77 C    1.380   114 H    0.970
    80   6 C    3.915 --    70 C    1.333    83 N    1.289    81 C    1.126
    81   6 C    3.966 --    82 C    1.709    80 C    1.126   115 H    0.974
    82   6 C    3.964 --    81 C    1.709    84 C    1.129   116 H    0.974
    83   7 N    3.022 --    84 C    1.341    80 C    1.289
    84   6 C    3.911 --    83 N    1.341    85 C    1.258    82 C    1.129
    85   6 C    3.937 --    84 C    1.258    86 C    1.256   134 C    1.180
    86   6 C    3.887 --    85 C    1.256    87 C    1.247    90 N    1.188
    87   6 C    3.959 --    88 C    1.585    86 C    1.247   117 H    0.975
    88   6 C    3.956 --    87 C    1.585    89 C    1.240   118 H    0.974
    89   6 C    3.898 --    91 C    1.311    88 C    1.240    90 N    1.165
    90   7 N    3.474 --    86 C    1.188    89 C    1.165   119 H    0.873
    91   6 C    3.927 --   101 C    1.319    89 C    1.311    92 C    1.032
    92   6 C    3.989 --    93 C    1.397   100 C    1.384    91 C    1.032
    93   6 C    3.975 --    92 C    1.397    94 C    1.380   120 H    0.970
    94   6 C    3.918 --    93 C    1.380    96 C    1.324    95 O    1.053
    95   8 O    2.049 --    94 C    1.053   121 H    0.847
    96   6 C    3.903 --    98 C    1.340    94 C    1.324    97 O    1.021
    97   8 O    2.021 --    96 C    1.021   122 H    0.846
    98   6 C    3.905 --   100 C    1.385    96 C    1.340    99 O    1.013
    99   8 O    2.025 --    98 C    1.013   123 H    0.861
   100   6 C    3.972 --    98 C    1.385    92 C    1.384   124 H    0.969
   101   6 C    3.928 --    91 C    1.319   105 N    1.319   102 C    1.119
   102   6 C    3.967 --   103 C    1.721   101 C    1.119   125 H    0.974
   103   6 C    3.966 --   102 C    1.721   104 C    1.118   126 H    0.976
   104   6 C    3.929 --    64 C    1.366   105 N    1.300   103 C    1.118
   105   7 N    3.014 --   101 C    1.319   104 C    1.300
   106   1 H    1.002 --    64 C    0.971
   107   1 H    0.998 --    66 C    0.977
   108   1 H    1.005 --    67 C    0.974
   109   1 H    0.986 --    69 N    0.873
   110   1 H    1.001 --    72 C    0.969
   111   1 H    0.881 --    74 O    0.861
   112   1 H    0.876 --    76 O    0.846
   113   1 H    0.878 --    78 O    0.848
   114   1 H    1.000 --    79 C    0.970
   115   1 H    1.006 --    81 C    0.974
   116   1 H    1.003 --    82 C    0.974
   117   1 H    1.002 --    87 C    0.975
   118   1 H    1.005 --    88 C    0.974
   119   1 H    0.987 --    90 N    0.873
   120   1 H    1.000 --    93 C    0.970
   121   1 H    0.877 --    95 O    0.847
   122   1 H    0.876 --    97 O    0.846
   123   1 H    0.881 --    99 O    0.861
   124   1 H    1.001 --   100 C    0.969
   125   1 H    1.006 --   102 C    0.974
   126   1 H    0.998 --   103 C    0.976
   127   6 C    3.932 --   128 C    2.480   129 C    1.303
   128   6 C    3.920 --   127 C    2.480    22 C    1.182   130 C    0.197
   129   6 C    3.929 --   130 C    2.479   127 C    1.303
   130   6 C    3.922 --   129 C    2.479   135 C    1.184   128 C    0.197
   131   6 C    3.929 --   132 C    2.480   133 C    1.301
   132   6 C    3.922 --   131 C    2.480   156 C    1.183   134 C    0.197
   133   6 C    3.931 --   134 C    2.481   131 C    1.301
   134   6 C    3.920 --   133 C    2.481    85 C    1.180   132 C    0.197
   135   6 C    3.925 --   175 C    1.259   136 C    1.250   130 C    1.184
   136   6 C    3.888 --   137 C    1.253   135 C    1.250   140 N    1.188
   137   6 C    3.956 --   138 C    1.577   136 C    1.253   177 H    0.975
   138   6 C    3.956 --   137 C    1.577   139 C    1.246   178 H    0.974
   139   6 C    3.893 --   141 C    1.300   138 C    1.246   140 N    1.166
   140   7 N    3.471 --   136 C    1.188   139 C    1.166   179 H    0.874
   141   6 C    3.928 --   151 C    1.334   139 C    1.300   142 C    1.032
   142   6 C    3.988 --   143 C    1.391   150 C    1.383   141 C    1.032
   143   6 C    3.974 --   142 C    1.391   144 C    1.381   180 H    0.969
   144   6 C    3.915 --   143 C    1.381   146 C    1.320   145 O    1.044
   145   8 O    2.053 --   144 C    1.044   181 H    0.866
   146   6 C    3.915 --   148 C    1.328   144 C    1.320   147 O    1.052
   147   8 O    2.048 --   146 C    1.052   182 H    0.850
   148   6 C    3.904 --   150 C    1.391   146 C    1.328   149 O    1.013
   149   8 O    2.026 --   148 C    1.013   183 H    0.861
   150   6 C    3.973 --   148 C    1.391   142 C    1.383   184 H    0.969
   151   6 C    3.916 --   141 C    1.334   154 N    1.287   152 C    1.126
   152   6 C    3.967 --   153 C    1.709   151 C    1.126   185 H    0.974
   153   6 C    3.964 --   152 C    1.709   155 C    1.130   186 H    0.974
   154   7 N    3.011 --   155 C    1.340   151 C    1.287
   155   6 C    3.911 --   154 N    1.340   156 C    1.259   153 C    1.130
   156   6 C    3.926 --   155 C    1.259   157 C    1.252   132 C    1.183
   157   6 C    3.888 --   156 C    1.252   158 C    1.251   161 N    1.187
   158   6 C    3.956 --   159 C    1.579   157 C    1.251   187 H    0.975
   159   6 C    3.956 --   158 C    1.579   160 C    1.245   188 H    0.974
   160   6 C    3.893 --   162 C    1.301   159 C    1.245   161 N    1.167
   161   7 N    3.471 --   157 C    1.187   160 C    1.167   189 H    0.874
   162   6 C    3.928 --   172 C    1.335   160 C    1.301   163 C    1.030
   163   6 C    3.989 --   164 C    1.397   171 C    1.386   162 C    1.030
   164   6 C    3.976 --   163 C    1.397   165 C    1.381   190 H    0.970
   165   6 C    3.918 --   164 C    1.381   167 C    1.324   166 O    1.052
   166   8 O    2.048 --   165 C    1.052   191 H    0.848
   167   6 C    3.903 --   169 C    1.340   165 C    1.324   168 O    1.021
   168   8 O    2.021 --   167 C    1.021   192 H    0.846
   169   6 C    3.905 --   171 C    1.385   167 C    1.340   170 O    1.014
   170   8 O    2.025 --   169 C    1.014   193 H    0.860
   171   6 C    3.973 --   163 C    1.386   169 C    1.385   194 H    0.969
   172   6 C    3.917 --   162 C    1.335   176 N    1.287   173 C    1.126
   173   6 C    3.966 --   174 C    1.708   172 C    1.126   195 H    0.974
   174   6 C    3.964 --   173 C    1.708   175 C    1.130   196 H    0.974
   175   6 C    3.912 --   176 N    1.341   135 C    1.259   174 C    1.130
   176   7 N    3.010 --   175 C    1.341   172 C    1.287
   177   1 H    1.002 --   137 C    0.975
   178   1 H    1.006 --   138 C    0.974
   179   1 H    0.987 --   140 N    0.874
   180   1 H    1.001 --   143 C    0.969
   181   1 H    0.886 --   145 O    0.866
   182   1 H    0.881 --   147 O    0.850
   183   1 H    0.882 --   149 O    0.861
   184   1 H    1.001 --   150 C    0.969
   185   1 H    1.006 --   152 C    0.974
   186   1 H    1.003 --   153 C    0.974
   187   1 H    1.002 --   158 C    0.975
   188   1 H    1.005 --   159 C    0.974
   189   1 H    0.987 --   161 N    0.874
   190   1 H    1.000 --   164 C    0.970
   191   1 H    0.878 --   166 O    0.848
   192   1 H    0.876 --   168 O    0.846
   193   1 H    0.881 --   170 O    0.860
   194   1 H    1.001 --   171 C    0.969
   195   1 H    1.006 --   173 C    0.974
   196   1 H    1.003 --   174 C    0.974
 ---------------------------------------------------------------------------

           -------------------------------------------------
          | TOTAL ENERGY             -375.965647614823 Eh   |
          | GRADIENT NORM               0.000944840358 Eh/α |
          | HOMO-LUMO GAP               0.917988536518 eV   |
           -------------------------------------------------

 * finished run on 2022/07/29 at 14:35:08.557
