   * xtb version 6.5.1 (b24c23e) compiled by 'conda@728c89f4b128' on 2022-07-12
          program call               : xtb Ni_Ph3OH_C8_2.xyz --gfn 1 --opt -T 48

   ID    Z sym.   atoms
    1   28 Ni     1, 63
    2    6 C      2-6, 8-11, 13, 15, 17-20, 22-27, 29-32, 34, 36, 38-42,
                  64-68, 70-73, 75, 77, 79-82, 84-89, 91-94, 96, 98, 100-104,
                  125-132
    3    7 N      7, 21, 28, 43, 69, 83, 90, 105
    4    8 O      12, 14, 16, 33, 35, 37, 74, 76, 78, 95, 97, 99
    5    1 H      44-62, 106-124
########################################################################
[WARNING] Please study the warnings concerning your input carefully
-1- prog_main_parseArguments: Unknown option '-T' provided
########################################################################

          :  Hamiltonian                  GFN1-xTB          :
 * total energy  :  -262.2274695 Eh     change        0.1342073E-09 Eh
 * total energy  :  -262.5821292 Eh     change       -0.3546597E+00 Eh
 * total energy  :  -262.6860550 Eh     change       -0.1039258E+00 Eh
 * total energy  :  -262.7315822 Eh     change       -0.4552716E-01 Eh
 * total energy  :  -262.7510774 Eh     change       -0.1949520E-01 Eh
 * total energy  :  -262.7612585 Eh     change       -0.1018117E-01 Eh
 * total energy  :  -262.7667569 Eh     change       -0.5498380E-02 Eh
 * total energy  :  -262.7692809 Eh     change       -0.2524008E-02 Eh
 * total energy  :  -262.7707267 Eh     change       -0.1445760E-02 Eh
 * total energy  :  -262.7720305 Eh     change       -0.1303811E-02 Eh
 * total energy  :  -262.7770627 Eh     change       -0.2991956E-04 Eh
 * total energy  :  -262.7770996 Eh     change       -0.3688289E-04 Eh
 * total energy  :  -262.7771308 Eh     change       -0.3125306E-04 Eh
 * total energy  :  -262.7771438 Eh     change       -0.1298153E-04 Eh
 * total energy  :  -262.7771603 Eh     change       -0.1644561E-04 Eh
 * total energy  :  -262.7771702 Eh     change       -0.9957057E-05 Eh
 * total energy  :  -262.7771773 Eh     change       -0.7077033E-05 Eh
 * total energy  :  -262.7771835 Eh     change       -0.6172618E-05 Eh
 * total energy  :  -262.7771869 Eh     change       -0.3442724E-05 Eh
   *** GEOMETRY OPTIMIZATION CONVERGED AFTER 60 ITERATIONS ***

 final structure:
================
132
 xtb: 6.5.1 (b24c23e)
Ni          13.43147975451082        0.04918560844249       -0.00575185059594
C           10.03689573700066        0.07777243855197       -0.13637064582049
C           10.68986152150244        1.28824772756211       -0.03943712967378
C           10.00917747433623        2.54472843989058        0.03518368181377
C           10.96524529731236        3.50028209236266        0.09705871458538
C           12.22979331509338        2.82633174817589        0.04915061353028
N           12.05050122553285        1.46682913220148       -0.01467914689539
C           13.45335523686266        3.48209746373958        0.06628337194513
C           13.46456005181081        4.96652527242019        0.10235857210693
C           12.94826372182912        5.69688752608397       -0.96744115929633
C           12.96436268165841        7.08664784379279       -0.93378673755063
O           12.47368748764689        7.80734053608233       -1.97134382465859
C           13.48922649173860        7.74906833402869        0.17699866809265
O           13.48762477121313        9.11930259132207        0.18417674872700
C           13.99971518949072        7.01851857304298        1.24704197665893
O           14.49270155138953        7.73860302758592        2.30320996553276
C           13.99422147215509        5.62951691045038        1.21224269296995
C           14.66709031997126        2.80917219178670        0.04989348067968
C           15.93653626236906        3.46974663138321        0.01751373150176
C           16.88257826917657        2.50058359281109        0.02874055472118
N           14.83511544879624        1.44221029354052        0.05713889906361
C           16.18950196466790        1.25245524692093        0.06021179199611
C           16.84731655587445        0.02021163975225        0.10584462627161
C           16.16727036429923       -1.20047231298962        0.12054111167876
C           16.83843529541062       -2.46043879983514        0.16426177889909
C           15.87811210209906       -3.41381281972562        0.11638456432213
C           14.62092472357886       -2.73203774116916        0.05100596354785
N           14.81139677839463       -1.36775827196151        0.05738218966842
C           13.40142001718841       -3.38353322399147       -0.06627711672113
C           13.38884080619044       -4.86844203319752       -0.10093782453128
C           13.78512268845485       -5.59948768337445        1.01827849637239
C           13.77034843551583       -6.98927989700350        0.98267423597130
O           14.14597371632686       -7.71101397815462        2.06648187725477
C           13.36625252147752       -7.65075770721001       -0.17812502919779
O           13.36671363009575       -9.02108797887998       -0.18533082805497
C           12.97417236125168       -6.91935666371634       -1.29634756021896
O           12.59461661729181       -7.63837482945578       -2.39923419434720
C           12.97941859593460       -5.53026417680978       -1.26112107453805
C           12.19229750684080       -2.70707728662296       -0.15895997517589
C           10.92027544535287       -3.36232304077852       -0.24899198221137
C            9.97881602555724       -2.39037678106205       -0.27033390567448
C           10.67531171347266       -1.14355796670655       -0.18507793216358
N           12.03158134113265       -1.34431608286689       -0.12192152321137
H            8.95366304637678        0.08639513526670       -0.17091342506112
H            8.93690135554045        2.65914360546728        0.04245246582631
H           10.83954666667221        4.56802964017897        0.17318141514999
H           12.54912657720461        5.19267704193019       -1.83801212852309
H           12.57517272274911        8.75069661636246       -1.76255129677567
H           13.88385848820121        9.41422037491296        1.01956993480017
H           14.82114666053146        7.15164793276655        2.99682476651445
H           14.38400853718865        5.06640698354454        2.05205677540491
H           16.07561632652911        4.53783872967488       -0.01893555426627
H           17.95538617572917        2.60539254528160        0.01370655552160
H           17.90817506845722       -2.58290805868292        0.21648158610337
H           16.00012657507318       -4.48448131250947        0.11432001573517
H           14.09013646036981       -5.09586225197301        1.92642158383236
H           14.06810682123165       -8.65409281052873        1.84661213854078
H           13.06245990390719       -9.31564686583101       -1.05848562911128
H           12.34486416169719       -7.05054864249246       -3.12415541785503
H           12.68350980194945       -4.96648322512088       -2.13801538329128
H           10.77870979655690       -4.43049140848831       -0.27817346910803
H            8.90642179128252       -2.48851875180899       -0.32824200966501
Ni          32.00635405163654       -0.05121657265009       -0.00946573800972
C           35.40108493836856       -0.06255361928410       -0.14115202163328
C           34.74885764610382       -1.27655809504115       -0.18368482968084
C           35.43030332270862       -2.53291757268443       -0.25383939430347
C           34.47482007564076       -3.48982333966046       -0.30241674113377
C           33.20988274931980       -2.81559354802195       -0.27213864194475
N           33.38832031353562       -1.45761855060757       -0.17979609474764
C           31.98675935241795       -3.46985927660296       -0.32824499600788
C           31.97595441482143       -4.94883157488952       -0.46103001928667
C           32.48698349454573       -5.55272122335306       -1.60930431236450
C           32.46952273434654       -6.93726752294149       -1.73417199084620
O           32.95453381041248       -7.53530484758587       -2.84942267942958
C           31.94893731433344       -7.72168003147003       -0.70371248378411
O           31.94879017126497       -9.08378485718330       -0.85290060658124
C           31.44424867295701       -7.11758647754392        0.44503560159904
O           30.95545077786037       -7.95304388971699        1.41465053539886
C           31.45081624509335       -5.73365939829026        0.56860239534482
C           30.77258658628411       -2.80042084602226       -0.26644080942161
C           29.50357424413403       -3.45416187665338       -0.37178635246750
C           28.55689620954951       -2.49308544478357       -0.25131941785096
N           30.60365735171489       -1.44311504855745       -0.10493885832262
C           29.24916907575663       -1.25589742136907       -0.08006633841515
C           28.59043179131109       -0.03707089288398        0.10400113727295
C           29.26958824266250        1.17445227829123        0.25755542979149
C           28.59775400300235        2.42082596085751        0.44488645515852
C           29.55752066305094        3.37403691873370        0.50561973707587
C           30.81503357029599        2.70496698824820        0.36203512091733
N           30.62536085167740        1.34868326841892        0.21337012251323
C           32.03401231504079        3.36634563738444        0.31806442585557
C           32.04620217657405        4.84573081493064        0.45127809070718
C           31.65355707718314        5.44553281625224        1.64716746447528
C           31.66951970397982        6.83042825481786        1.76910885381961
O           31.29788116354150        7.42505393668119        2.92884314842123
C           32.07088617100853        7.61883825356185        0.68947927070263
O           32.07190571837649        8.98116566453143        0.83757882435370
C           32.45895307622314        7.01853554980497       -0.50558446475751
O           32.83593043653823        7.85763241465251       -1.52107046870627
C           32.45272312106955        5.63438706172475       -0.62779483523090
C           33.24355329800313        2.70555806125979        0.14914540282430
C           34.51506439974388        3.36774304184393        0.13394263863584
C           35.45737057126745        2.40502625175510        0.00452806975548
C           34.76182922477172        1.15603188602649       -0.05156866600899
N           33.40535217578596        1.34741161170917        0.03275583865326
H           36.48435696626177       -0.06651669318487       -0.17546079001914
H           36.50265870521599       -2.64669246859243       -0.25973502968624
H           34.60098733764345       -4.55918203172978       -0.34988742247387
H           32.88271349010228       -4.95278906808496       -2.41856727479141
H           32.85248954607081       -8.49621514600222       -2.74920180379923
H           31.55591186896945       -9.47178179425446       -0.05480714151896
H           30.63116419035188       -7.44872078706648        2.17227410911212
H           31.06512084789364       -5.26963721260762        1.46873369685290
H           29.36519801777773       -4.51155254555837       -0.52756946536863
H           27.48414872216139       -2.59635390910105       -0.27724718692243
H           27.52798760642631        2.53582195057835        0.51157991640843
H           29.43502262339207        4.43786412376773        0.62608005604440
H           31.35079574269648        4.84246665539639        2.49335824049404
H           31.37629709248370        8.38690146598775        2.81699376947698
H           32.37421163558270        9.37248664244697        0.00259868196173
H           33.08228881893721        7.35560168904706       -2.30893293575298
H           32.74587864224763        5.17329673985054       -1.56365150374857
H           34.65570266905696        4.43256585375847        0.22478513143516
H           36.52973044021921        2.50985162459156       -0.04108742978415
C           18.25200250375465        0.00877858928596        0.13012966997712
C           19.47613273125260        0.00202996200771        0.14256958751627
C           20.81927219379375       -0.00541282927428        0.15181864585431
C           22.04965458407296       -0.01022273645389        0.15463767210585
C           23.38804317007878       -0.01636757930629        0.15341885760129
C           24.61841804245521       -0.02027222712565        0.14770526801614
C           25.96157848417445       -0.02451168706250        0.13895135953397
C           27.18570659853163       -0.02980718859711        0.12778472780666

          :  Hamiltonian                  GFN1-xTB          :
         :: total energy            -262.777186922692 Eh    ::
         :: gradient norm              0.000439782624 Eh/a0 ::
         :: HOMO-LUMO gap              1.196956554926 eV    ::
         :: SCC energy              -266.376244896872 Eh    ::
         :: repulsion energy           3.714144269065 Eh    ::

    * Orbital Energies and Occupations

         #    Occupation            Energy/Eh            Energy/eV
      -------------------------------------------------------------
         1        2.0000           -0.8131628             -22.1273
       ...           ...                  ...                  ...
       217        2.0000           -0.4084159             -11.1136
       218        2.0000           -0.3995687             -10.8728
       219        2.0000           -0.3995643             -10.8727
       220        2.0000           -0.3990946             -10.8599
       221        2.0000           -0.3990887             -10.8598
       222        2.0000           -0.3983881             -10.8407
       223        2.0000           -0.3983833             -10.8406
       224        2.0000           -0.3973590             -10.8127
       225        2.0000           -0.3973552             -10.8126
       226        2.0000           -0.3973046             -10.8112
       227        2.0000           -0.3972981             -10.8110
       228        2.0000           -0.3934064             -10.7051
       229        2.0000           -0.3847962             -10.4708 (HOMO)
       230                         -0.3408088              -9.2739 (LUMO)
       231                         -0.3309477              -9.0055
       232                         -0.3309302              -9.0051
       233                         -0.3309013              -9.0043
       234                         -0.3296589              -8.9705
       235                         -0.3296381              -8.9699
       236                         -0.3032728              -8.2525
       237                         -0.3011801              -8.1955
       238                         -0.2938536              -7.9962
       239                         -0.2756848              -7.5018
       240                         -0.2559195              -6.9639
       ...                                ...                  ...
       462                          1.6054177              43.6856
      -------------------------------------------------------------
                  HL-Gap            0.0439873 Eh            1.1970 eV

Wiberg/Mayer (AO) data.
largest (>0.10) Wiberg bond orders for each atom

     #   Z sym  total        # sym  WBO       # sym  WBO       # sym  WBO
 ---------------------------------------------------------------------------
     1  28 Ni   3.005 --     7 N    0.664    43 N    0.663    28 N    0.661
                            21 N    0.660
     2   6 C    3.934 --     3 C    1.364    42 C    1.363    44 H    0.970
     3   6 C    3.924 --     2 C    1.364     7 N    1.214     4 C    1.175
     4   6 C    3.960 --     5 C    1.650     3 C    1.175    45 H    0.975
     5   6 C    3.963 --     4 C    1.650     6 C    1.177    46 H    0.973
     6   6 C    3.919 --     8 C    1.324     7 N    1.221     5 C    1.177
     7   7 N    3.402 --     6 C    1.221     3 C    1.214     1 Ni   0.664
     8   6 C    3.939 --    18 C    1.330     6 C    1.324     9 C    1.022
     9   6 C    3.989 --    10 C    1.401    17 C    1.388     8 C    1.022
    10   6 C    3.978 --     9 C    1.401    11 C    1.379    47 H    0.970
    11   6 C    3.918 --    10 C    1.379    13 C    1.325    12 O    1.053
    12   8 O    2.049 --    11 C    1.053    48 H    0.847
    13   6 C    3.905 --    15 C    1.341    11 C    1.325    14 O    1.021
    14   8 O    2.021 --    13 C    1.021    49 H    0.846
    15   6 C    3.906 --    17 C    1.383    13 C    1.341    16 O    1.014
    16   8 O    2.025 --    15 C    1.014    50 H    0.860
    17   6 C    3.974 --     9 C    1.388    15 C    1.383    51 H    0.970
    18   6 C    3.914 --     8 C    1.330    21 N    1.205    19 C    1.184
    19   6 C    3.959 --    20 C    1.635    18 C    1.184    52 H    0.973
    20   6 C    3.961 --    19 C    1.635    22 C    1.192    53 H    0.973
    21   7 N    3.406 --    22 C    1.240    18 C    1.205     1 Ni   0.660
    22   6 C    3.903 --    23 C    1.262    21 N    1.240    20 C    1.192
    23   6 C    3.944 --    24 C    1.262    22 C    1.262   125 C    1.186
    24   6 C    3.903 --    23 C    1.262    28 N    1.241    25 C    1.190
    25   6 C    3.961 --    26 C    1.637    24 C    1.190    54 H    0.973
    26   6 C    3.959 --    25 C    1.637    27 C    1.183    55 H    0.973
    27   6 C    3.914 --    29 C    1.332    28 N    1.204    26 C    1.183
    28   7 N    3.406 --    24 C    1.241    27 C    1.204     1 Ni   0.661
    29   6 C    3.939 --    27 C    1.332    39 C    1.324    30 C    1.020
    30   6 C    3.989 --    31 C    1.401    38 C    1.389    29 C    1.020
    31   6 C    3.978 --    30 C    1.401    32 C    1.379    56 H    0.970
    32   6 C    3.918 --    31 C    1.379    34 C    1.325    33 O    1.053
    33   8 O    2.049 --    32 C    1.053    57 H    0.847
    34   6 C    3.906 --    36 C    1.341    32 C    1.325    35 O    1.021
    35   8 O    2.021 --    34 C    1.021    58 H    0.846
    36   6 C    3.905 --    38 C    1.383    34 C    1.341    37 O    1.014
    37   8 O    2.025 --    36 C    1.014    59 H    0.861
    38   6 C    3.974 --    30 C    1.389    36 C    1.383    60 H    0.970
    39   6 C    3.919 --    29 C    1.324    43 N    1.222    40 C    1.178
    40   6 C    3.963 --    41 C    1.648    39 C    1.178    61 H    0.973
    41   6 C    3.959 --    40 C    1.648    42 C    1.176    62 H    0.975
    42   6 C    3.924 --     2 C    1.363    43 N    1.214    41 C    1.176
    43   7 N    3.402 --    39 C    1.222    42 C    1.214     1 Ni   0.663
    44   1 H    1.000 --     2 C    0.970
    45   1 H    0.997 --     4 C    0.975
    46   1 H    1.005 --     5 C    0.973
    47   1 H    0.999 --    10 C    0.970
    48   1 H    0.877 --    12 O    0.847
    49   1 H    0.876 --    14 O    0.846
    50   1 H    0.881 --    16 O    0.860
    51   1 H    1.000 --    17 C    0.970
    52   1 H    1.005 --    19 C    0.973
    53   1 H    1.002 --    20 C    0.973
    54   1 H    1.002 --    25 C    0.973
    55   1 H    1.005 --    26 C    0.973
    56   1 H    0.999 --    31 C    0.970
    57   1 H    0.878 --    33 O    0.847
    58   1 H    0.876 --    35 O    0.846
    59   1 H    0.881 --    37 O    0.861
    60   1 H    1.000 --    38 C    0.970
    61   1 H    1.005 --    40 C    0.973
    62   1 H    0.998 --    41 C    0.975
    63  28 Ni   3.005 --    69 N    0.664   105 N    0.663    90 N    0.661
                            83 N    0.661
    64   6 C    3.934 --    65 C    1.364   104 C    1.363   106 H    0.970
    65   6 C    3.924 --    64 C    1.364    69 N    1.214    66 C    1.175
    66   6 C    3.960 --    67 C    1.650    65 C    1.175   107 H    0.975
    67   6 C    3.963 --    66 C    1.650    68 C    1.177   108 H    0.973
    68   6 C    3.919 --    70 C    1.325    69 N    1.221    67 C    1.177
    69   7 N    3.402 --    68 C    1.221    65 C    1.214    63 Ni   0.664
    70   6 C    3.939 --    80 C    1.330    68 C    1.325    71 C    1.022
    71   6 C    3.989 --    72 C    1.401    79 C    1.388    70 C    1.022
    72   6 C    3.978 --    71 C    1.401    73 C    1.379   109 H    0.970
    73   6 C    3.918 --    72 C    1.379    75 C    1.325    74 O    1.053
    74   8 O    2.049 --    73 C    1.053   110 H    0.847
    75   6 C    3.906 --    77 C    1.341    73 C    1.325    76 O    1.021
    76   8 O    2.021 --    75 C    1.021   111 H    0.846
    77   6 C    3.906 --    79 C    1.383    75 C    1.341    78 O    1.014
    78   8 O    2.025 --    77 C    1.014   112 H    0.860
    79   6 C    3.974 --    71 C    1.388    77 C    1.383   113 H    0.970
    80   6 C    3.914 --    70 C    1.330    83 N    1.205    81 C    1.184
    81   6 C    3.959 --    82 C    1.635    80 C    1.184   114 H    0.973
    82   6 C    3.961 --    81 C    1.635    84 C    1.192   115 H    0.973
    83   7 N    3.406 --    84 C    1.240    80 C    1.205    63 Ni   0.661
    84   6 C    3.903 --    85 C    1.261    83 N    1.240    82 C    1.192
    85   6 C    3.944 --    86 C    1.263    84 C    1.261   132 C    1.186
    86   6 C    3.903 --    85 C    1.263    90 N    1.240    87 C    1.190
    87   6 C    3.961 --    88 C    1.637    86 C    1.190   116 H    0.973
    88   6 C    3.959 --    87 C    1.637    89 C    1.183   117 H    0.973
    89   6 C    3.914 --    91 C    1.333    90 N    1.204    88 C    1.183
    90   7 N    3.406 --    86 C    1.240    89 C    1.204    63 Ni   0.661
    91   6 C    3.939 --    89 C    1.333   101 C    1.324    92 C    1.020
    92   6 C    3.989 --    93 C    1.402   100 C    1.389    91 C    1.020
    93   6 C    3.978 --    92 C    1.402    94 C    1.379   118 H    0.970
    94   6 C    3.918 --    93 C    1.379    96 C    1.325    95 O    1.053
    95   8 O    2.049 --    94 C    1.053   119 H    0.847
    96   6 C    3.906 --    98 C    1.341    94 C    1.325    97 O    1.021
    97   8 O    2.021 --    96 C    1.021   120 H    0.846
    98   6 C    3.905 --   100 C    1.383    96 C    1.341    99 O    1.014
    99   8 O    2.025 --    98 C    1.014   121 H    0.861
   100   6 C    3.974 --    92 C    1.389    98 C    1.383   122 H    0.970
   101   6 C    3.919 --    91 C    1.324   105 N    1.222   102 C    1.178
   102   6 C    3.963 --   103 C    1.648   101 C    1.178   123 H    0.973
   103   6 C    3.959 --   102 C    1.648   104 C    1.176   124 H    0.975
   104   6 C    3.924 --    64 C    1.363   105 N    1.214   103 C    1.176
   105   7 N    3.402 --   101 C    1.222   104 C    1.214    63 Ni   0.663
   106   1 H    1.000 --    64 C    0.970
   107   1 H    0.997 --    66 C    0.975
   108   1 H    1.005 --    67 C    0.973
   109   1 H    0.999 --    72 C    0.970
   110   1 H    0.877 --    74 O    0.847
   111   1 H    0.876 --    76 O    0.846
   112   1 H    0.881 --    78 O    0.860
   113   1 H    1.000 --    79 C    0.970
   114   1 H    1.005 --    81 C    0.973
   115   1 H    1.002 --    82 C    0.973
   116   1 H    1.002 --    87 C    0.973
   117   1 H    1.005 --    88 C    0.973
   118   1 H    0.999 --    93 C    0.970
   119   1 H    0.878 --    95 O    0.847
   120   1 H    0.876 --    97 O    0.846
   121   1 H    0.881 --    99 O    0.861
   122   1 H    1.000 --   100 C    0.970
   123   1 H    1.005 --   102 C    0.973
   124   1 H    0.998 --   103 C    0.975
   125   6 C    3.878 --   126 C    2.445    23 C    1.186   128 C    0.187
   126   6 C    3.938 --   125 C    2.445   127 C    1.341
   127   6 C    3.894 --   128 C    2.341   126 C    1.341   130 C    0.183
   128   6 C    3.928 --   127 C    2.341   129 C    1.366   125 C    0.187
   129   6 C    3.928 --   130 C    2.341   128 C    1.366   132 C    0.187
   130   6 C    3.894 --   129 C    2.341   131 C    1.341   127 C    0.183
   131   6 C    3.938 --   132 C    2.445   130 C    1.341
   132   6 C    3.878 --   131 C    2.445    85 C    1.186   129 C    0.187
 ---------------------------------------------------------------------------

           -------------------------------------------------
          | TOTAL ENERGY             -262.777186922692 Eh   |
          | GRADIENT NORM               0.000439782624 Eh/α |
          | HOMO-LUMO GAP               1.196956554926 eV   |
           -------------------------------------------------

 * finished run on 2022/07/30 at 06:47:32.320
