   * xtb version 6.5.1 (b24c23e) compiled by 'conda@728c89f4b128' on 2022-07-12
          program call               : xtb Fe_Py_C6_3.xyz --gfn 1 --opt -T 48

   ID    Z sym.   atoms
    1   26 Fe     1, 55, 121
    2    6 C      2-6, 8-11, 13-17, 19-24, 26-29, 31-36, 56-60, 62-65, 67-71,
                  73-78, 80-83, 85-90, 109-120, 122-126, 128-131, 133-137,
                  139-144, 146-149, 151-156
    3    7 N      7, 12, 18, 25, 30, 37, 61, 66, 72, 79, 84, 91, 127, 132,
                  138, 145, 150, 157
    4    1 H      38-54, 92-108, 158-173

          :  Hamiltonian                  GFN1-xTB          :
 * total energy  :  -307.7465259 Eh     change       -0.5460208E-08 Eh
 * total energy  :  -308.1179213 Eh     change       -0.3713954E+00 Eh
 * total energy  :  -308.2317701 Eh     change       -0.1138488E+00 Eh
 * total energy  :  -308.3142803 Eh     change       -0.8251019E-01 Eh
 * total energy  :  -308.3843968 Eh     change       -0.7011650E-01 Eh
 * total energy  :  -308.4530870 Eh     change       -0.6869021E-01 Eh
 * total energy  :  -308.4947274 Eh     change       -0.4164040E-01 Eh
 * total energy  :  -308.5212488 Eh     change       -0.2652134E-01 Eh
 * total energy  :  -308.5417240 Eh     change       -0.2047525E-01 Eh
 * total energy  :  -308.5551596 Eh     change       -0.1343558E-01 Eh
 * total energy  :  -308.6398604 Eh     change       -0.2199477E-04 Eh
 * total energy  :  -308.6398846 Eh     change       -0.2420447E-04 Eh
 * total energy  :  -308.6399114 Eh     change       -0.2675974E-04 Eh
 * total energy  :  -308.6399436 Eh     change       -0.3226794E-04 Eh
 * total energy  :  -308.6399723 Eh     change       -0.2870329E-04 Eh
 * total energy  :  -308.6399884 Eh     change       -0.1607674E-04 Eh
 * total energy  :  -308.6399983 Eh     change       -0.9923410E-05 Eh
 * total energy  :  -308.6400067 Eh     change       -0.8376626E-05 Eh
 * total energy  :  -308.6400099 Eh     change       -0.3188033E-05 Eh
   *** GEOMETRY OPTIMIZATION CONVERGED AFTER 68 ITERATIONS ***

 final structure:
================
173
 xtb: 6.5.1 (b24c23e)
Fe          22.20641500003967       -0.02205143398608       -0.02204714533065
C           18.81968781945744       -0.03995154654510       -0.02385148993394
C           19.47117405637194       -1.25623100808747       -0.02552440239680
C           18.79522201308666       -2.51868447494328       -0.02891261319740
C           19.74957168323384       -3.47046193242103        0.09691408147111
C           21.00932823526720       -2.78808222710498        0.17058117399080
N           20.82621233030817       -1.43523715702068        0.07140256718666
C           22.22135263118513       -3.41893518071656        0.42830807303738
C           22.22881623382284       -4.88884675602318        0.61939164745897
C           22.55180837241995       -5.45533911606654        1.85137782953176
C           22.54796725646980       -6.83530282502100        1.98113256228058
N           22.25304914292921       -7.65603198406477        0.97819767143324
C           21.94545844893956       -7.12322261875498       -0.19982349876561
C           21.91720011147151       -5.75595779136798       -0.42640662877539
C           23.42493487968270       -2.73478724157060        0.51676247728518
C           24.68780280918302       -3.36515541603879        0.76454197379501
C           25.63478372792451       -2.40404390922675        0.64582315399280
N           23.60252976885644       -1.39410208721507        0.26938571760060
C           24.94994073112263       -1.19275258847489        0.31797110192897
C           25.61146027410931       -0.00423589419226       -0.01258436919964
C           24.93641317790511        1.17798891240398       -0.33858321766143
C           25.60422808857925        2.38754424793384       -0.70506040778347
C           24.64755207953774        3.34041866585049       -0.81617616599253
C           23.39826998649123        2.70936937410625       -0.50956095392609
N           23.58922900481589        1.37148873488923       -0.25985057726942
C           22.18678526388598        3.38171179537848       -0.43050996722300
C           22.18241498968829        4.85170475806179       -0.60770337469830
C           21.48211023635493        5.45515493129733       -1.65146308258875
C           21.51584958021362        6.83493213913115       -1.77819754420102
N           22.18388999990416        7.62313976301255       -0.94214789307924
C           22.85110908744204        7.05602169449752        0.05775027435525
C           22.88329687740147        5.68574214957012        0.26273861934494
C           20.97881530266973        2.73296641071021       -0.19801509857955
C           19.71581170355348        3.40259389033371       -0.07912197200877
C           18.77045918330726        2.43903431207887        0.02549370107678
C           19.45760276039806        1.18341041599060       -0.01509114887173
N           20.81070818822172        1.37736532116083       -0.11124654433087
H           17.73553322760030       -0.04601735108565       -0.02349163943580
H           17.72633614478579       -2.63965057336740       -0.10521512779241
H           19.62393782160204       -4.53960127005473        0.15181357215296
H           22.78922495955036       -4.82379330302647        2.69908776201857
H           22.79229729915191       -7.30075934549856        2.93150701064517
H           21.71230906194160       -7.81982836144902       -0.99980559848404
H           21.67160755968328       -5.36619569573737       -1.40702196582044
H           24.82363835028043       -4.41174444991918        0.98284483713989
H           26.70374805273409       -2.49462592877486        0.75249463772665
H           26.66817478195305        2.48057548793590       -0.85208806375254
H           24.76607985072486        4.37701932685657       -1.08635799085405
H           20.93324125622327        4.85112756532138       -2.36404676714714
H           20.98310272276262        7.32781454953439       -2.58616224973502
H           23.38548626185852        7.72636665264461        0.72458580432015
H           23.43329825348391        5.26758182975532        1.09735591636491
H           19.58335299642498        4.47233439698149       -0.07547693704014
H           17.70201128781404        2.54860171581143        0.12234830626969
Fe          54.16188977150095        0.04429878979983       -0.00803443293902
C           57.55654414664892        0.06508434755423        0.01242484463647
C           56.90850934427262        1.24877569228895       -0.27211883602354
C           57.59346397640428        2.47731949423778       -0.54040841087227
C           56.63997697565011        3.41546882121588       -0.74615204109678
C           55.37359128838644        2.75531014995077       -0.61123587494365
N           55.55111986649278        1.43049968786069       -0.31753895722729
C           54.14921228046051        3.40362778524332       -0.72468019964665
C           54.14357551456716        4.85525000340115       -1.02548144867896
C           53.67627942104173        5.78210971715319       -0.09508859606078
C           53.69281399934676        7.12972891639580       -0.41869580359894
N           54.13016259596262        7.58838342961875       -1.58692441447565
C           54.57398770524631        6.71032073460496       -2.48037200843957
C           54.60402299325310        5.34430343930254       -2.24670120607723
C           52.93256772424416        2.75807709682208       -0.56532391836271
C           51.66387838472451        3.40715190416189       -0.71466192107711
C           50.71588541962490        2.46052361405180       -0.51750429553119
N           52.75750142779957        1.42260538178592       -0.28851223435510
C           51.40780177096507        1.23713896717059       -0.25578090567815
C           50.74711933185013        0.02707485933181       -0.01251504417142
C           51.41938416116336       -1.17698240290209        0.22943314860182
C           50.73931529672888       -2.41610711795506        0.44304022766819
C           51.69602816880900       -3.35462277919189        0.63699161488749
C           52.95808929140729       -2.68133112239590        0.55228552155082
N           52.77050110323287       -1.34522355462522        0.28672611267642
C           54.18123368699759       -3.31661487556277        0.70583958648668
C           54.19155510671691       -4.76852052299264        1.00177288589730
C           54.73930341637235       -5.68305044407705        0.10323774699801
C           54.72186315278689       -7.03249325123112        0.41874022906468
N           54.20844316820752       -7.50502547146069        1.54993987037588
C           53.68751360786082       -6.63920242908149        2.41322343535095
C           53.65345457548917       -5.27242765615090        2.18491465750807
C           55.39931476852022       -2.65573850674526        0.59218624461232
C           56.67102134021559       -3.28913593592474        0.79088323375952
C           57.61540152551994       -2.33957728467557        0.59545621325504
C           56.91942887402856       -1.12704297473515        0.28640822450755
N           55.56423785400315       -1.32918769908265        0.29922573401207
H           58.64066446548877        0.07294002231008        0.02484270473228
H           58.66602209548526        2.58809659704475       -0.55725980377764
H           56.76821473473249        4.46383758910956       -0.96127260215696
H           53.31814497469326        5.45296499541936        0.87301904748697
H           53.33922972224633        7.87197541755040        0.29092529660093
H           54.92164472969948        7.11599314310352       -3.42594141556882
H           54.96649050695211        4.66383867356819       -3.00786479244393
H           51.52788890371509        4.44989469575758       -0.95062645600244
H           49.64328802537197        2.56390168519021       -0.54928865471866
H           49.66819288589490       -2.53759415499666        0.43479914910425
H           51.56902030320154       -4.41017024041450        0.81323586668386
H           55.15881500262238       -5.34323085371669       -0.83612161133818
H           55.13730809104890       -7.76483051876857       -0.26729156015219
H           53.27842194245311       -7.05584985858841        3.32896561237884
H           53.22765159075047       -4.60239511922885        2.92220699430319
H           56.80917477314773       -4.32492972553653        1.05504836608104
H           58.68827513841939       -2.43055631388028        0.65534479048255
C           30.80859992644288        0.03004687356395       -0.01977391764447
C           29.57861446335582        0.02042999619976       -0.02457563070206
C           28.23757200410166        0.01320211619347       -0.02295425297280
C           27.01224106666113        0.00314950633479       -0.01868958179714
C           32.14934836706442        0.03366484888179       -0.01991465549154
C           33.37503415657802        0.03152442024335       -0.01731221608536
C           46.78079349592809        0.00361157055100       -0.00987629807404
C           45.55029314809081       -0.00581423974578       -0.00669231645738
C           44.21030872508408       -0.01058641350777       -0.00464788729262
C           42.98418647378182       -0.01524659431733       -0.00531452941967
C           48.12107727790676        0.01103477666486       -0.01274871776381
C           49.34696792189350        0.01923256809971       -0.01512839804137
Fe          38.18005736382395        0.00105780639141       -0.01974594348371
C           34.77431845738989        0.02450739712208       -0.01757591101055
C           35.44196501363234       -0.74197023731974        0.94690350933775
C           34.77313456293928       -1.47942917150539        1.97168989038283
C           35.72422479239599       -2.20321154850387        2.61187802593282
C           36.96832267842557       -1.91210734725296        1.96507694364009
N           36.78457622355611       -0.97293679630430        0.98036652251501
C           38.16553895059387       -2.56349613347039        2.23898320345820
C           38.15782440975995       -3.67119479289764        3.21999753930834
C           37.36739836192499       -4.80376570798462        3.02655034977489
C           37.39289137671302       -5.81493688244992        3.97395150702028
N           38.13635054205471       -5.75778141824154        5.07417066291317
C           38.89081821368272       -4.68086285474060        5.26742237632257
C           38.93782160049722       -3.62153108063618        4.37491058402251
C           39.36802066293831       -2.21949508366851        1.63294620963224
C           40.60669022027155       -2.90532739527801        1.84769796259071
C           41.56581177931083       -2.18578503883498        1.21455151861282
N           39.56324229018912       -1.12684040584061        0.82401923445404
C           40.90740165659862       -1.07219812688815        0.60805949925707
C           41.58583060080701       -0.01310008259481       -0.01094742107399
C           40.91880720474891        1.04723256759764       -0.64021230789500
C           41.58920170635657        2.14930871098243       -1.25481878192554
C           40.64034092111821        2.86496607896972       -1.90747403499128
C           39.39542793118887        2.19096489720740       -1.69209271035149
N           39.57684193684550        1.10721020957699       -0.86874474302816
C           38.19859190175736        2.54093900685896       -2.30579024106653
C           38.21139458323312        3.63059604604199       -3.30718642602083
C           38.98111280031391        3.53456183021798       -4.46602624212058
C           38.95716638140706        4.57559793073081       -5.38053545296820
N           38.23575907627623        5.67777239259024       -5.20400099448892
C           37.50330256546576        5.77934369307788       -4.09970833982031
C           37.45538104814199        4.78886938967619       -3.13132930920504
C           36.99186488225187        1.91305931063785       -2.02132703678728
C           35.74970562955905        2.22256309177068       -2.66327731590005
C           34.78898163852590        1.52221373392799       -2.01161011375610
C           35.45007994627715        0.77922721129650       -0.98567190296312
N           36.79633462651660        0.98520728320408       -1.02782581165385
H           33.71306139181497       -1.44053794357198        2.16380943007439
H           35.60307831245353       -2.87257247580138        3.44779916699538
H           36.75441309656969       -4.89833658174864        2.13819065504925
H           36.78900922640958       -6.70815009630150        3.84372675865023
H           39.48509031070522       -4.66312789689476        6.17627422158645
H           39.55831037115857       -2.75735917977714        4.58008285483603
H           40.71876331597893       -3.81845899084898        2.40909363069139
H           42.62522544448345       -2.37746168130217        1.15847607063690
H           42.64924677680117        2.33532212322501       -1.19259652007597
H           40.76260324385445        3.76876197864693       -2.48174890476087
H           39.57601113038176        2.64919994392860       -4.65601760478190
H           39.54293701849711        4.52150374696391       -6.29342878979692
H           36.92767348487630        6.69286209909967       -3.98326809285151
H           36.85218465502325        4.91943108411828       -2.24086667163324
H           35.63649626076840        2.88883617940632       -3.50278035407639
H           33.72715654856193        1.50206836756691       -2.19686989815060

          :  Hamiltonian                  GFN1-xTB          :
         :: total energy            -308.640009914733 Eh    ::
         :: gradient norm              0.000639716475 Eh/a0 ::
         :: HOMO-LUMO gap              0.054541068470 eV    ::
         :: SCC energy              -313.695993926097 Eh    ::
         :: repulsion energy           5.214398894430 Eh    ::

    * Orbital Energies and Occupations

         #    Occupation            Energy/Eh            Energy/eV
      -------------------------------------------------------------
         1        2.0000           -0.7796600             -21.2156
       ...           ...                  ...                  ...
       274        2.0000           -0.4037007             -10.9853
       275        2.0000           -0.4030673             -10.9680
       276        1.9977           -0.3972422             -10.8095
       277        1.9931           -0.3962144             -10.7815
       278        1.9923           -0.3961049             -10.7786
       279        1.9913           -0.3959925             -10.7755
       280        1.9648           -0.3946518             -10.7390
       281        1.9565           -0.3944469             -10.7334
       282        1.9492           -0.3942952             -10.7293
       283        1.9456           -0.3942291             -10.7275
       284        1.9431           -0.3941840             -10.7263
       285        1.9383           -0.3941043             -10.7241
       286        1.3000           -0.3914180             -10.6510 (HOMO)
       287        0.3676           -0.3894136             -10.5965 (LUMO)
       288        0.3360           -0.3893101             -10.5937
       289        0.3245           -0.3892703             -10.5926
       290                         -0.3516260              -9.5682
       291                         -0.3412332              -9.2854
       292                         -0.3386217              -9.2144
       293                         -0.3355923              -9.1319
       294                         -0.3351019              -9.1186
       295                         -0.3347089              -9.1079
       296                         -0.3165861              -8.6147
       297                         -0.3093626              -8.4182
       ...                                ...                  ...
       607                          1.5666188              42.6299
      -------------------------------------------------------------
                  HL-Gap            0.0020043 Eh            0.0545 eV

Wiberg/Mayer (AO) data.
largest (>0.10) Wiberg bond orders for each atom

     #   Z sym  total        # sym  WBO       # sym  WBO       # sym  WBO
 ---------------------------------------------------------------------------
     1  26 Fe   3.115 --    37 N    0.669     7 N    0.667    18 N    0.662
                            25 N    0.661
     2   6 C    3.921 --    36 C    1.363     3 C    1.363    38 H    0.970
     3   6 C    3.923 --     2 C    1.363     7 N    1.208     4 C    1.172
     4   6 C    3.959 --     5 C    1.651     3 C    1.172    39 H    0.975
     5   6 C    3.961 --     4 C    1.651     6 C    1.174    40 H    0.973
     6   6 C    3.920 --     8 C    1.315     7 N    1.223     5 C    1.174
     7   7 N    3.381 --     6 C    1.223     3 C    1.208     1 Fe   0.667
     8   6 C    3.924 --    15 C    1.336     6 C    1.315     9 C    1.023
     9   6 C    3.986 --    14 C    1.395    10 C    1.394     8 C    1.023
                            12 N    0.107
    10   6 C    3.987 --    11 C    1.441     9 C    1.394    41 H    0.973
                            13 C    0.109
    11   6 C    3.972 --    10 C    1.441    12 N    1.416    42 H    0.972
                            14 C    0.109
    12   7 N    3.031 --    13 C    1.416    11 C    1.416     9 C    0.107
    13   6 C    3.972 --    14 C    1.441    12 N    1.416    43 H    0.972
                            10 C    0.109
    14   6 C    3.987 --    13 C    1.441     9 C    1.395    44 H    0.973
                            11 C    0.109
    15   6 C    3.917 --     8 C    1.336    18 N    1.198    16 C    1.178
    16   6 C    3.956 --    17 C    1.640    15 C    1.178    45 H    0.973
    17   6 C    3.960 --    16 C    1.640    19 C    1.187    46 H    0.973
    18   7 N    3.381 --    19 C    1.244    15 C    1.198     1 Fe   0.662
    19   6 C    3.903 --    20 C    1.252    18 N    1.244    17 C    1.187
    20   6 C    3.922 --    19 C    1.252    21 C    1.251   112 C    1.201
    21   6 C    3.903 --    20 C    1.251    25 N    1.243    22 C    1.188
    22   6 C    3.960 --    23 C    1.638    21 C    1.188    47 H    0.973
    23   6 C    3.956 --    22 C    1.638    24 C    1.179    48 H    0.973
    24   6 C    3.917 --    26 C    1.332    25 N    1.200    23 C    1.179
    25   7 N    3.380 --    21 C    1.243    24 C    1.200     1 Fe   0.661
    26   6 C    3.924 --    24 C    1.332    33 C    1.314    27 C    1.029
    27   6 C    3.986 --    28 C    1.392    32 C    1.392    26 C    1.029
                            30 N    0.106
    28   6 C    3.986 --    29 C    1.442    27 C    1.392    49 H    0.973
                            31 C    0.109
    29   6 C    3.972 --    28 C    1.442    30 N    1.416    50 H    0.972
                            32 C    0.109
    30   7 N    3.030 --    29 C    1.416    31 C    1.416    27 C    0.106
    31   6 C    3.972 --    32 C    1.442    30 N    1.416    51 H    0.972
                            28 C    0.109
    32   6 C    3.987 --    31 C    1.442    27 C    1.392    52 H    0.973
                            29 C    0.109
    33   6 C    3.920 --    26 C    1.314    37 N    1.223    34 C    1.175
    34   6 C    3.961 --    35 C    1.650    33 C    1.175    53 H    0.973
    35   6 C    3.958 --    34 C    1.650    36 C    1.173    54 H    0.975
    36   6 C    3.923 --     2 C    1.363    37 N    1.208    35 C    1.173
    37   7 N    3.381 --    33 C    1.223    36 C    1.208     1 Fe   0.669
    38   1 H    1.000 --     2 C    0.970
    39   1 H    0.997 --     4 C    0.975
    40   1 H    1.004 --     5 C    0.973
    41   1 H    1.003 --    10 C    0.973
    42   1 H    1.013 --    11 C    0.972
    43   1 H    1.013 --    13 C    0.972
    44   1 H    1.003 --    14 C    0.973
    45   1 H    1.004 --    16 C    0.973
    46   1 H    1.001 --    17 C    0.973
    47   1 H    1.001 --    22 C    0.973
    48   1 H    1.004 --    23 C    0.973
    49   1 H    1.004 --    28 C    0.973
    50   1 H    1.013 --    29 C    0.972
    51   1 H    1.013 --    31 C    0.972
    52   1 H    1.004 --    32 C    0.973
    53   1 H    1.004 --    34 C    0.973
    54   1 H    0.997 --    35 C    0.975
    55  26 Fe   3.082 --    91 N    0.663    61 N    0.663    72 N    0.656
                            79 N    0.656
    56   6 C    3.918 --    57 C    1.363    90 C    1.363    92 H    0.970
    57   6 C    3.924 --    56 C    1.363    61 N    1.210    58 C    1.172
    58   6 C    3.959 --    59 C    1.651    57 C    1.172    93 H    0.975
    59   6 C    3.961 --    58 C    1.651    60 C    1.174    94 H    0.973
    60   6 C    3.920 --    62 C    1.314    61 N    1.226    59 C    1.174
    61   7 N    3.379 --    60 C    1.226    57 C    1.210    55 Fe   0.663
    62   6 C    3.921 --    69 C    1.337    60 C    1.314    63 C    1.023
    63   6 C    3.986 --    68 C    1.395    64 C    1.394    62 C    1.023
                            66 N    0.107
    64   6 C    3.987 --    65 C    1.441    63 C    1.394    95 H    0.973
                            67 C    0.109
    65   6 C    3.972 --    64 C    1.441    66 N    1.416    96 H    0.972
                            68 C    0.109
    66   7 N    3.031 --    67 C    1.416    65 C    1.416    63 C    0.107
    67   6 C    3.972 --    68 C    1.441    66 N    1.416    97 H    0.972
                            64 C    0.109
    68   6 C    3.987 --    67 C    1.441    63 C    1.395    98 H    0.973
                            65 C    0.109
    69   6 C    3.918 --    62 C    1.337    72 N    1.199    70 C    1.178
    70   6 C    3.956 --    71 C    1.640    69 C    1.178    99 H    0.973
    71   6 C    3.960 --    70 C    1.640    73 C    1.187   100 H    0.973
    72   7 N    3.377 --    73 C    1.248    69 C    1.199    55 Fe   0.656
    73   6 C    3.902 --    74 C    1.249    72 N    1.248    71 C    1.187
    74   6 C    3.918 --    73 C    1.249    75 C    1.249   120 C    1.206
    75   6 C    3.902 --    74 C    1.249    79 N    1.248    76 C    1.187
    76   6 C    3.960 --    77 C    1.640    75 C    1.187   101 H    0.973
    77   6 C    3.956 --    76 C    1.640    78 C    1.178   102 H    0.972
    78   6 C    3.918 --    80 C    1.336    79 N    1.199    77 C    1.178
    79   7 N    3.377 --    75 C    1.248    78 C    1.199    55 Fe   0.656
    80   6 C    3.921 --    78 C    1.336    87 C    1.313    81 C    1.026
    81   6 C    3.986 --    86 C    1.394    82 C    1.393    80 C    1.026
                            84 N    0.107
    82   6 C    3.987 --    83 C    1.442    81 C    1.393   103 H    0.973
                            85 C    0.109
    83   6 C    3.972 --    82 C    1.442    84 N    1.416   104 H    0.972
                            86 C    0.109
    84   7 N    3.031 --    85 C    1.416    83 C    1.416    81 C    0.107
    85   6 C    3.972 --    86 C    1.441    84 N    1.416   105 H    0.972
                            82 C    0.109
    86   6 C    3.987 --    85 C    1.441    81 C    1.394   106 H    0.973
                            83 C    0.109
    87   6 C    3.920 --    80 C    1.313    91 N    1.226    88 C    1.175
    88   6 C    3.961 --    89 C    1.650    87 C    1.175   107 H    0.973
    89   6 C    3.959 --    88 C    1.650    90 C    1.172   108 H    0.975
    90   6 C    3.924 --    56 C    1.363    91 N    1.210    89 C    1.172
    91   7 N    3.379 --    87 C    1.226    90 C    1.210    55 Fe   0.663
    92   1 H    1.000 --    56 C    0.970
    93   1 H    0.997 --    58 C    0.975
    94   1 H    1.004 --    59 C    0.973
    95   1 H    1.003 --    64 C    0.973
    96   1 H    1.013 --    65 C    0.972
    97   1 H    1.013 --    67 C    0.972
    98   1 H    1.003 --    68 C    0.973
    99   1 H    1.004 --    70 C    0.973
   100   1 H    1.002 --    71 C    0.973
   101   1 H    1.002 --    76 C    0.973
   102   1 H    1.004 --    77 C    0.972
   103   1 H    1.003 --    82 C    0.973
   104   1 H    1.013 --    83 C    0.972
   105   1 H    1.013 --    85 C    0.972
   106   1 H    1.003 --    86 C    0.973
   107   1 H    1.004 --    88 C    0.973
   108   1 H    0.997 --    89 C    0.975
   109   6 C    3.914 --   110 C    2.340   113 C    1.353   112 C    0.186
   110   6 C    3.912 --   109 C    2.340   111 C    1.351   114 C    0.186
   111   6 C    3.924 --   112 C    2.424   110 C    1.351
   112   6 C    3.875 --   111 C    2.424    20 C    1.201   109 C    0.186
   113   6 C    3.919 --   114 C    2.420   109 C    1.353
   114   6 C    3.877 --   113 C    2.420   122 C    1.208   110 C    0.186
   115   6 C    3.911 --   116 C    2.334   119 C    1.356   118 C    0.185
   116   6 C    3.914 --   115 C    2.334   117 C    1.358   120 C    0.186
   117   6 C    3.918 --   118 C    2.414   116 C    1.358
   118   6 C    3.877 --   117 C    2.414   140 C    1.212   115 C    0.185
   119   6 C    3.923 --   120 C    2.418   115 C    1.356
   120   6 C    3.875 --   119 C    2.418    74 C    1.206   116 C    0.186
   121  26 Fe   3.074 --   138 N    0.651   157 N    0.651   127 N    0.650
                           145 N    0.650
   122   6 C    3.905 --   123 C    1.247   156 C    1.246   114 C    1.208
   123   6 C    3.904 --   122 C    1.247   127 N    1.245   124 C    1.191
   124   6 C    3.959 --   125 C    1.633   123 C    1.191   158 H    0.973
   125   6 C    3.958 --   124 C    1.633   126 C    1.183   159 H    0.973
   126   6 C    3.915 --   128 C    1.320   127 N    1.205   125 C    1.183
   127   7 N    3.367 --   123 C    1.245   126 C    1.205   121 Fe   0.650
   128   6 C    3.914 --   135 C    1.322   126 C    1.320   129 C    1.032
   129   6 C    3.986 --   134 C    1.391   130 C    1.391   128 C    1.032
                           132 N    0.106
   130   6 C    3.986 --   131 C    1.442   129 C    1.391   160 H    0.972
                           133 C    0.109
   131   6 C    3.972 --   130 C    1.442   132 N    1.416   161 H    0.972
                           134 C    0.109
   132   7 N    3.030 --   133 C    1.416   131 C    1.416   129 C    0.106
   133   6 C    3.972 --   134 C    1.442   132 N    1.416   162 H    0.972
                           130 C    0.109
   134   6 C    3.986 --   133 C    1.442   129 C    1.391   163 H    0.973
                           131 C    0.109
   135   6 C    3.915 --   128 C    1.322   138 N    1.203   136 C    1.183
   136   6 C    3.958 --   137 C    1.633   135 C    1.183   164 H    0.973
   137   6 C    3.959 --   136 C    1.633   139 C    1.191   165 H    0.973
   138   7 N    3.367 --   139 C    1.247   135 C    1.203   121 Fe   0.651
   139   6 C    3.903 --   138 N    1.247   140 C    1.244   137 C    1.191
   140   6 C    3.904 --   141 C    1.244   139 C    1.244   118 C    1.212
   141   6 C    3.903 --   145 N    1.246   140 C    1.244   142 C    1.191
   142   6 C    3.959 --   143 C    1.633   141 C    1.191   166 H    0.973
   143   6 C    3.958 --   142 C    1.633   144 C    1.183   167 H    0.973
   144   6 C    3.915 --   146 C    1.321   145 N    1.204   143 C    1.183
   145   7 N    3.367 --   141 C    1.246   144 C    1.204   121 Fe   0.650
   146   6 C    3.914 --   153 C    1.321   144 C    1.321   147 C    1.031
   147   6 C    3.986 --   152 C    1.392   148 C    1.391   146 C    1.031
                           150 N    0.106
   148   6 C    3.986 --   149 C    1.442   147 C    1.391   168 H    0.973
                           151 C    0.109
   149   6 C    3.972 --   148 C    1.442   150 N    1.416   169 H    0.972
                           152 C    0.109
   150   7 N    3.030 --   151 C    1.416   149 C    1.416   147 C    0.106
   151   6 C    3.972 --   152 C    1.441   150 N    1.416   170 H    0.972
                           148 C    0.109
   152   6 C    3.986 --   151 C    1.441   147 C    1.392   171 H    0.973
                           149 C    0.109
   153   6 C    3.915 --   146 C    1.321   157 N    1.204   154 C    1.183
   154   6 C    3.958 --   155 C    1.634   153 C    1.183   172 H    0.973
   155   6 C    3.959 --   154 C    1.634   156 C    1.191   173 H    0.973
   156   6 C    3.904 --   122 C    1.246   157 N    1.246   155 C    1.191
   157   7 N    3.368 --   156 C    1.246   153 C    1.204   121 Fe   0.651
   158   1 H    1.001 --   124 C    0.973
   159   1 H    1.004 --   125 C    0.973
   160   1 H    1.004 --   130 C    0.972
   161   1 H    1.013 --   131 C    0.972
   162   1 H    1.013 --   133 C    0.972
   163   1 H    1.004 --   134 C    0.973
   164   1 H    1.004 --   136 C    0.973
   165   1 H    1.001 --   137 C    0.973
   166   1 H    1.001 --   142 C    0.973
   167   1 H    1.003 --   143 C    0.973
   168   1 H    1.004 --   148 C    0.973
   169   1 H    1.013 --   149 C    0.972
   170   1 H    1.013 --   151 C    0.972
   171   1 H    1.004 --   152 C    0.973
   172   1 H    1.004 --   154 C    0.973
   173   1 H    1.001 --   155 C    0.973
 ---------------------------------------------------------------------------

           -------------------------------------------------
          | TOTAL ENERGY             -308.640009914733 Eh   |
          | GRADIENT NORM               0.000639716475 Eh/α |
          | HOMO-LUMO GAP               0.054541068470 eV   |
           -------------------------------------------------

 * finished run on 2022/07/29 at 17:14:51.422
