   * xtb version 6.5.1 (b24c23e) compiled by 'conda@728c89f4b128' on 2022-07-12
          program call               : xtb PhCN_C6_3.xyz --gfn 1 --opt -T 48

   ID    Z sym.   atoms
    1    6 C      1-5, 7-12, 14-18, 20-25, 27-32, 34-39, 60-64, 66-71, 73-77,
                  79-84, 86-91, 93-98, 119-135, 137-142, 144-148, 150-155,
                  157-162, 164-169
    2    7 N      6, 13, 19, 26, 33, 40, 65, 72, 78, 85, 92, 99, 136, 143,
                  149, 156, 163, 170
    3    1 H      41-59, 100-118, 171-188

          :  Hamiltonian                  GFN1-xTB          :
 * total energy  :  -327.2139181 Eh     change       -0.6463324E-08 Eh
 * total energy  :  -327.4528247 Eh     change       -0.2389066E+00 Eh
 * total energy  :  -327.5647887 Eh     change       -0.1119640E+00 Eh
 * total energy  :  -327.6228671 Eh     change       -0.5807835E-01 Eh
 * total energy  :  -327.6783971 Eh     change       -0.5553000E-01 Eh
 * total energy  :  -327.7379598 Eh     change       -0.5956274E-01 Eh
 * total energy  :  -327.7760586 Eh     change       -0.3809883E-01 Eh
 * total energy  :  -327.8043812 Eh     change       -0.2832255E-01 Eh
 * total energy  :  -327.8284731 Eh     change       -0.2409192E-01 Eh
 * total energy  :  -327.8495247 Eh     change       -0.2105164E-01 Eh
 * total energy  :  -327.9855274 Eh     change       -0.6630652E-05 Eh
 * total energy  :  -327.9855353 Eh     change       -0.7924041E-05 Eh
 * total energy  :  -327.9855434 Eh     change       -0.8105111E-05 Eh
 * total energy  :  -327.9855507 Eh     change       -0.7295013E-05 Eh
 * total energy  :  -327.9855614 Eh     change       -0.1069287E-04 Eh
 * total energy  :  -327.9855660 Eh     change       -0.4566231E-05 Eh
 * total energy  :  -327.9855684 Eh     change       -0.2429976E-05 Eh
 * total energy  :  -327.9855764 Eh     change       -0.7978250E-05 Eh
 * total energy  :  -327.9855811 Eh     change       -0.4725139E-05 Eh
   *** GEOMETRY OPTIMIZATION CONVERGED AFTER 87 ITERATIONS ***

 final structure:
================
188
 xtb: 6.5.1 (b24c23e)
C           26.41670496575800        0.09665955940076        0.04921014295313
C           27.02645893381419        1.34317307008966       -0.00617812603670
C           26.37600818846700        2.60904449785231       -0.01791261821117
C           27.33811942051800        3.57617617764873       -0.09272311028466
C           28.60754877448088        2.93153278963117       -0.13902638026117
N           28.36903578063207        1.58846542769012       -0.07344039483515
C           29.87044494705339        3.53038007283918       -0.21321946291165
C           29.89756458187488        5.00992436638037       -0.30445519200723
C           30.52379459628471        5.77084759664702        0.68544846954187
C           30.54123774508453        7.15183943430477        0.60723859102345
C           29.93384781987982        7.80076395488236       -0.47192388066736
C           29.94865408041822        9.22175303781913       -0.55601940624051
N           29.95957756271205       10.37037941681036       -0.62549499312888
C           29.30963695918090        7.04373327426438       -1.46778290038104
C           29.29087092487051        5.66337759923959       -1.37984539787476
C           31.08680737608093        2.84297763337554       -0.20999300244755
C           32.38198501312772        3.48502299394562       -0.34728671370249
C           33.30335344997026        2.50089347832682       -0.29827033916958
N           31.24251534970287        1.49506873978741       -0.10192058216207
C           32.56971724702116        1.25977311295214       -0.14144445266911
C           33.20734250075044        0.00706503264088       -0.03663716915749
C           32.57146327491439       -1.24394938082386        0.07476746476503
C           33.21627013179966       -2.50299269556073        0.20011187393286
C           32.24963370159929       -3.46815005357554        0.25923260930825
C           30.98326137015009       -2.82712484229136        0.16295669900528
N           31.22969194962614       -1.48349489622413        0.06344595775125
C           29.72088432541818       -3.43011026883280        0.19145687379158
C           29.69010835578978       -4.90944918513840        0.26946458008953
C           29.07286568125231       -5.55045308418520        1.34651866874240
C           29.04450466562438       -6.93124864458791        1.42314020511929
C           29.63197347300602       -7.70169403577894        0.41519360325566
C           29.60362618195119       -9.12297876819801        0.48934667459939
N           29.58176955731359      -10.27206668329687        0.54840778497931
C           30.24852653269693       -7.06557683646916       -0.66640976039650
C           30.27795729801355       -5.68431736744879       -0.73359151791792
C           28.50307168688064       -2.74228689081788        0.15089973630647
C           27.19842303354856       -3.38590245416924        0.12842061928320
C           26.28456258027851       -2.39558657026709        0.09317521727394
C           27.02958542950626       -1.14882910536399        0.08061687191236
N           28.36225992853965       -1.39662703535510        0.10670787520920
H           25.33157819400375        0.10661034164806        0.06604447206324
H           25.30784945941083        2.74795431607310        0.03107703009690
H           27.18796944062199        4.64350441329396       -0.10553922094414
H           29.09341794058579        0.87822386129502       -0.07213309547436
H           30.98445534220303        5.27198050758187        1.53054772403618
H           31.02310127583155        7.73570894784155        1.38269078501936
H           28.84191407110719        7.54288028668924       -2.30836020708344
H           28.81677382137555        5.07964509641205       -2.16089156974358
H           32.54216708519588        4.54300867984306       -0.47736117821537
H           34.37644873387256        2.57969341098599       -0.36747532667325
H           34.28437746537796       -2.64211314617882        0.24368766533745
H           32.39781086753230       -4.52979306857868        0.37094769474939
H           30.50721343559229       -0.77405913846907       -0.00273171935286
H           28.62813364830902       -4.95688956903824        2.13719847950706
H           28.56890598800494       -7.42078172984776        2.26492358316041
H           30.70116693871710       -7.65931240647979       -1.45194863994351
H           30.74444204756431       -5.19562173956147       -1.58160105827224
H           27.02925296470389       -4.45060623932460        0.12575784399766
H           25.20873460121583       -2.46965454967536        0.06735813915733
C           65.21639327532796       -0.07055255265593        0.07329198509955
C           64.60570932373071       -1.27907600024274        0.38180942977719
C           65.25543354983580       -2.49752892705042        0.72652640880118
C           64.29206259414161       -3.44210755661272        0.94193411402997
C           63.02257935196164       -2.83277427140381        0.72724745064701
N           63.26240217118324       -1.52846313870085        0.40147130047267
C           61.75853498193283       -3.42152211594337        0.84723555201895
C           61.72843991312737       -4.86500488630753        1.18463127326474
C           61.11913552434464       -5.30731393293318        2.36109302701964
C           61.09311794948522       -6.65358787962741        2.67808666674742
C           61.67494825009169       -7.58819982161024        1.81633690142293
C           61.64725752148384       -8.97500074214011        2.13640473637161
N           61.62586755808119      -10.09605402000429        2.39546135774812
C           62.28430889228362       -7.15094864005739        0.63651687307621
C           62.31186993381036       -5.80255513397133        0.32904183877764
C           60.54260718862702       -2.75704499933244        0.66911798604724
C           59.24527899438237       -3.40439306307464        0.74873390383950
C           58.32510599178121       -2.44572511047505        0.51673185474722
N           60.38884685158804       -1.43682711637947        0.37469838081228
C           59.06145143914191       -1.21807016532139        0.28426735781747
C           58.42500012089356        0.00783071237943        0.00206927743005
C           59.06178768388606        1.23112464189914       -0.28027789360981
C           58.41825782309947        2.47023927458530       -0.53956275838597
C           59.38599471456191        3.40908200087854       -0.76658764270351
C           60.65190727654510        2.76842073872567       -0.66189989260234
N           60.40384084257330        1.45560779766315       -0.35971902139321
C           61.91545188913359        3.35248466778270       -0.80322234075176
C           61.95244204549921        4.79278802042968       -1.14945539454912
C           62.56751745921993        5.70923515236133       -0.29268379891148
C           62.60740994921256        7.05473895960373       -0.61031721225347
C           62.03371730737295        7.51125780977106       -1.80079727231264
C           62.07684114613794        8.89495982373637       -2.13220797537215
N           62.11225735410986       10.01303985193196       -2.40185134142474
C           61.41823004537152        6.59851667195474       -2.66254393292587
C           61.37721180737720        5.25493872365985       -2.33567305577695
C           63.13219276812131        2.68076765063202       -0.64014097762625
C           64.43755169197753        3.28953094908140       -0.84699863179396
C           65.35046583616713        2.32958670124776       -0.59782653803760
C           64.60436305927942        1.13273407576788       -0.25102471104076
N           63.27178721699450        1.37925850120005       -0.29536148573355
H           66.30160628794492       -0.07769523257984        0.08600402648875
H           66.32401646288616       -2.62042867148310        0.80195577956192
H           64.44127610121235       -4.46907734247104        1.23344687583868
H           62.53839462034362       -0.84512545608493        0.20629548215375
H           60.67774970962058       -4.58453871625589        3.03788045722350
H           60.62333079784087       -6.98861728510923        3.59539334725339
H           62.73264666881906       -7.87279198211337       -0.03609820433470
H           62.77376648120609       -5.46911756292901       -0.59346418450813
H           59.08245610501356       -4.45224849504922        0.94196870043712
H           57.25109703941761       -2.53665543080939        0.49019114860918
H           57.35015065246520        2.61612035877157       -0.54311447714192
H           59.23890591189317        4.45579144240820       -0.97708466528720
H           61.12569771193895        0.75884837455641       -0.20765910106054
H           63.00226847982667        5.36115431280077        0.63744173557710
H           63.08190632855079        7.75979224866401        0.06213103082678
H           60.97613620833851        6.94793324725767       -3.58824587114380
H           60.91232189335479        4.54894999620200       -3.01462127525074
H           64.60746187374177        4.30843628713734       -1.15555613359135
H           66.42630795467765        2.39184868733003       -0.64501300457688
C           38.41025548646609       -0.05830329815111       -0.03810800079130
C           37.18195333747452       -0.04422887219203       -0.04451397165419
C           35.83739880142294       -0.02741500692102       -0.04481753761519
C           34.61359520707655       -0.01049414558191       -0.04283698472068
C           39.75473483940292       -0.06732875033870       -0.03781084403619
C           40.97880428809542       -0.07418774174824       -0.03318690187736
C           54.45024520198439        0.02840740713700       -0.00584494182128
C           53.22181258144737        0.02285837005678       -0.00685441917518
C           51.87743018266461        0.01194248553355       -0.00898013275011
C           50.65334785823126        0.00031422496185       -0.01409195479748
C           55.79482270617201        0.02879612558564       -0.00435160435821
C           57.01878898908324        0.02206085771129       -0.00309733379963
C           42.38415958485437       -0.06985935025555       -0.03516125503218
C           43.00488839588512        0.84659665407449       -0.90567712435991
C           42.35026443725376        1.77362790296601       -1.75727682268314
C           43.31004669755919        2.45165551467394       -2.45770253876761
C           44.57952660642565        1.95120989316339       -2.05877169720715
N           44.34456826644707        0.99222779284430       -1.11053020582864
C           45.83582755008686        2.36036064977665       -2.52294552121109
C           45.83966562194483        3.38321798826195       -3.59681445805623
C           45.23801535702216        3.11658386211934       -4.82901972746794
C           45.24406046468315        4.06457030704130       -5.83637262784259
C           45.84992182328814        5.30676613335448       -5.62585347598620
C           45.85576132200544        6.28560585107488       -6.65950028876030
N           45.86170008073757        7.07483760326247       -7.49684433634367
C           46.44961145721662        5.58029170183191       -4.39292748621290
C           46.44500264468233        4.62529923536430       -3.39219437427751
C           47.06594354893831        1.88529404677640       -2.06436471746971
C           48.34727088867328        2.29418411747536       -2.61223597255237
C           49.29125805649028        1.63483420647458       -1.90955045947728
N           47.25198369303162        0.97803029255299       -1.06680025317422
C           48.58514670936049        0.81629787943856       -0.94374829073605
C           49.24816945909790       -0.01562223558913       -0.01946356419142
C           48.62720761277535       -0.87524147326847        0.90704751177346
C           49.28106122241135       -1.69596057787531        1.86207387611281
C           48.32138628124881       -2.38404884730937        2.55278156758420
C           47.05270641664205       -2.00954935995298        2.03164085163274
N           47.28811822876735       -1.08771989088776        1.04716560996921
C           45.79641555999735       -2.47044941545791        2.44448282872197
C           45.79007195230351       -3.50293038471662        3.50913440054315
C           46.40556447729491       -4.73968893705998        3.30226329003341
C           46.39804599199866       -5.70525234433236        4.29288134788969
C           45.77659021085541       -5.44733194311939        5.51833053782244
C           45.77006164100472       -6.43745768565042        6.54114161562286
N           45.76448657655944       -7.23762862267949        7.36796201557279
C           45.16193469689052       -4.20988578297510        5.73168464624572
C           45.16823852790468       -3.25131840418434        4.73446525916624
C           44.56701109435132       -2.04115962586238        1.94044771168374
C           43.28727946402165       -2.59234753776232        2.35009502739130
C           42.34320000118916       -1.92225363474316        1.65767292206162
C           43.04770682339719       -0.97135379747970        0.82064425134731
N           44.38036113104570       -1.07394297985751        1.00125276274453
H           41.28163140238319        1.90192163160541       -1.81711816646561
H           43.15429142754398        3.23652473208840       -3.17961401355943
H           45.06869540420377        0.46906255275573       -0.62974903637615
H           44.77882600108807        2.14958475062257       -5.00108039292365
H           44.78143667539364        3.84738597074142       -6.79200781525153
H           46.91660581192362        6.54364788719810       -4.22489361511985
H           46.90074240219240        4.84539335778680       -2.43350750541187
H           48.48422385001369        2.98064848163665       -3.43188123458201
H           50.36300666964407        1.67302925489289       -2.02068292703298
H           50.34909636708409       -1.74334607516743        2.00029260440017
H           48.47682440523785       -3.08200187484672        3.35910111722357
H           46.56422818632529       -0.62641596692476        0.50642000095175
H           46.87690383242819       -4.94909373547594        2.34858724434356
H           46.87181550798390       -6.66486155133361        4.12225552509277
H           44.68223601464969       -4.00508297539749        6.68160809989582
H           44.70083977330600       -2.28862685590401        4.90778710675928
H           43.15181076987286       -3.39254852864741        3.05943100230908
H           41.27242813959594       -2.04533262209826        1.68596282738986

          :  Hamiltonian                  GFN1-xTB          :
         :: total energy            -327.985581109999 Eh    ::
         :: gradient norm              0.000751136460 Eh/a0 ::
         :: HOMO-LUMO gap              0.913761216660 eV    ::
         :: SCC energy              -333.857148039465 Eh    ::
         :: repulsion energy           6.033850256303 Eh    ::

    * Orbital Energies and Occupations

         #    Occupation            Energy/Eh            Energy/eV
      -------------------------------------------------------------
         1        2.0000           -0.8175713             -22.2472
       ...           ...                  ...                  ...
       289        2.0000           -0.4285653             -11.6619
       290        2.0000           -0.4282553             -11.6534
       291        2.0000           -0.4274604             -11.6318
       292        2.0000           -0.4271212             -11.6226
       293        2.0000           -0.4261361             -11.5958
       294        2.0000           -0.4256127             -11.5815
       295        2.0000           -0.4241967             -11.5430
       296        2.0000           -0.4121429             -11.2150
       297        2.0000           -0.4108754             -11.1805
       298        2.0000           -0.4108227             -11.1791
       299        2.0000           -0.3994444             -10.8694
       300        2.0000           -0.3951164             -10.7517
       301        2.0000           -0.3895018             -10.5989 (HOMO)
       302                         -0.3559217              -9.6851 (LUMO)
       303                         -0.3482396              -9.4761
       304                         -0.3455522              -9.4030
       305                         -0.3448172              -9.3830
       306                         -0.3442801              -9.3683
       307                         -0.3428272              -9.3288
       308                         -0.3209164              -8.7326
       309                         -0.3149384              -8.5699
       310                         -0.3140782              -8.5465
       311                         -0.3052298              -8.3057
       312                         -0.3045329              -8.2868
       ...                                ...                  ...
       640                          1.5672674              42.6475
      -------------------------------------------------------------
                  HL-Gap            0.0335801 Eh            0.9138 eV

Wiberg/Mayer (AO) data.
largest (>0.10) Wiberg bond orders for each atom

     #   Z sym  total        # sym  WBO       # sym  WBO       # sym  WBO
 ---------------------------------------------------------------------------
     1   6 C    3.926 --    39 C    1.367     2 C    1.347    41 H    0.971
     2   6 C    3.901 --     1 C    1.347     3 C    1.229     6 N    1.169
     3   6 C    3.954 --     4 C    1.596     2 C    1.229    42 H    0.976
     4   6 C    3.959 --     3 C    1.596     5 C    1.233    43 H    0.974
     5   6 C    3.897 --     7 C    1.302     4 C    1.233     6 N    1.179
     6   7 N    3.470 --     5 C    1.179     2 C    1.169    44 H    0.873
     7   6 C    3.938 --    16 C    1.334     5 C    1.302     8 C    1.031
     8   6 C    3.963 --    15 C    1.385     9 C    1.385     7 C    1.031
     9   6 C    3.988 --    10 C    1.464     8 C    1.385    45 H    0.971
                            14 C    0.102
    10   6 C    3.993 --     9 C    1.464    11 C    1.364    46 H    0.972
                            15 C    0.102
    11   6 C    3.984 --    10 C    1.364    14 C    1.364    12 C    1.098
    12   6 C    3.958 --    13 N    2.820    11 C    1.098
    13   7 N    2.973 --    12 C    2.820
    14   6 C    3.993 --    15 C    1.464    11 C    1.364    47 H    0.972
                             9 C    0.102
    15   6 C    3.987 --    14 C    1.464     8 C    1.385    48 H    0.971
                            10 C    0.102
    16   6 C    3.914 --     7 C    1.334    19 N    1.287    17 C    1.124
    17   6 C    3.966 --    18 C    1.711    16 C    1.124    49 H    0.974
    18   6 C    3.964 --    17 C    1.711    20 C    1.127    50 H    0.974
    19   7 N    3.022 --    20 C    1.343    16 C    1.287
    20   6 C    3.908 --    19 N    1.343    21 C    1.255    18 C    1.127
    21   6 C    3.938 --    20 C    1.255    22 C    1.253   122 C    1.189
    22   6 C    3.884 --    21 C    1.253    23 C    1.248    26 N    1.188
    23   6 C    3.959 --    24 C    1.584    22 C    1.248    51 H    0.975
    24   6 C    3.955 --    23 C    1.584    25 C    1.240    52 H    0.974
    25   6 C    3.898 --    27 C    1.308    24 C    1.240    26 N    1.167
    26   7 N    3.475 --    22 C    1.188    25 C    1.167    53 H    0.873
    27   6 C    3.925 --    36 C    1.319    25 C    1.308    28 C    1.034
    28   6 C    3.963 --    35 C    1.384    29 C    1.384    27 C    1.034
    29   6 C    3.987 --    30 C    1.464    28 C    1.384    54 H    0.971
                            34 C    0.102
    30   6 C    3.993 --    29 C    1.464    31 C    1.364    55 H    0.972
                            35 C    0.102
    31   6 C    3.983 --    30 C    1.364    34 C    1.364    32 C    1.098
    32   6 C    3.958 --    33 N    2.819    31 C    1.098
    33   7 N    2.973 --    32 C    2.819
    34   6 C    3.993 --    35 C    1.464    31 C    1.364    56 H    0.972
                            29 C    0.102
    35   6 C    3.986 --    34 C    1.464    28 C    1.384    57 H    0.971
                            30 C    0.102
    36   6 C    3.928 --    27 C    1.319    40 N    1.318    37 C    1.117
    37   6 C    3.967 --    38 C    1.724    36 C    1.117    58 H    0.973
    38   6 C    3.966 --    37 C    1.724    39 C    1.116    59 H    0.975
    39   6 C    3.928 --     1 C    1.367    40 N    1.299    38 C    1.116
    40   7 N    3.013 --    36 C    1.318    39 C    1.299
    41   1 H    1.002 --     1 C    0.971
    42   1 H    0.997 --     3 C    0.976
    43   1 H    1.004 --     4 C    0.974
    44   1 H    0.986 --     6 N    0.873
    45   1 H    1.004 --     9 C    0.971
    46   1 H    1.000 --    10 C    0.972
    47   1 H    1.000 --    14 C    0.972
    48   1 H    1.003 --    15 C    0.971
    49   1 H    1.004 --    17 C    0.974
    50   1 H    1.002 --    18 C    0.974
    51   1 H    1.002 --    23 C    0.975
    52   1 H    1.004 --    24 C    0.974
    53   1 H    0.987 --    26 N    0.873
    54   1 H    1.004 --    29 C    0.971
    55   1 H    1.000 --    30 C    0.972
    56   1 H    1.000 --    34 C    0.972
    57   1 H    1.004 --    35 C    0.971
    58   1 H    1.004 --    37 C    0.973
    59   1 H    0.998 --    38 C    0.975
    60   6 C    3.926 --    98 C    1.367    61 C    1.347   100 H    0.971
    61   6 C    3.901 --    60 C    1.347    62 C    1.229    65 N    1.169
    62   6 C    3.954 --    63 C    1.596    61 C    1.229   101 H    0.976
    63   6 C    3.959 --    62 C    1.596    64 C    1.233   102 H    0.974
    64   6 C    3.896 --    66 C    1.302    63 C    1.233    65 N    1.179
    65   7 N    3.471 --    64 C    1.179    61 C    1.169   103 H    0.873
    66   6 C    3.938 --    75 C    1.334    64 C    1.302    67 C    1.031
    67   6 C    3.963 --    74 C    1.385    68 C    1.385    66 C    1.031
    68   6 C    3.988 --    69 C    1.464    67 C    1.385   104 H    0.971
                            73 C    0.102
    69   6 C    3.993 --    68 C    1.464    70 C    1.364   105 H    0.972
                            74 C    0.102
    70   6 C    3.984 --    69 C    1.364    73 C    1.364    71 C    1.098
    71   6 C    3.958 --    72 N    2.820    70 C    1.098
    72   7 N    2.973 --    71 C    2.820
    73   6 C    3.993 --    74 C    1.464    70 C    1.364   106 H    0.972
                            68 C    0.102
    74   6 C    3.987 --    73 C    1.464    67 C    1.385   107 H    0.971
                            69 C    0.102
    75   6 C    3.914 --    66 C    1.334    78 N    1.286    76 C    1.124
    76   6 C    3.966 --    77 C    1.711    75 C    1.124   108 H    0.973
    77   6 C    3.964 --    76 C    1.711    79 C    1.127   109 H    0.974
    78   7 N    3.022 --    79 C    1.344    75 C    1.286
    79   6 C    3.908 --    78 N    1.344    80 C    1.255    77 C    1.127
    80   6 C    3.938 --    79 C    1.255    81 C    1.253   130 C    1.189
    81   6 C    3.884 --    80 C    1.253    82 C    1.248    85 N    1.189
    82   6 C    3.959 --    83 C    1.584    81 C    1.248   110 H    0.975
    83   6 C    3.955 --    82 C    1.584    84 C    1.240   111 H    0.974
    84   6 C    3.898 --    86 C    1.308    83 C    1.240    85 N    1.166
    85   7 N    3.474 --    81 C    1.189    84 C    1.166   112 H    0.873
    86   6 C    3.925 --    95 C    1.319    84 C    1.308    87 C    1.034
    87   6 C    3.963 --    94 C    1.385    88 C    1.383    86 C    1.034
    88   6 C    3.987 --    89 C    1.464    87 C    1.383   113 H    0.971
                            93 C    0.102
    89   6 C    3.993 --    88 C    1.464    90 C    1.363   114 H    0.972
                            94 C    0.102
    90   6 C    3.983 --    93 C    1.364    89 C    1.363    91 C    1.098
    91   6 C    3.958 --    92 N    2.819    90 C    1.098
    92   7 N    2.973 --    91 C    2.819
    93   6 C    3.993 --    94 C    1.464    90 C    1.364   115 H    0.972
                            88 C    0.102
    94   6 C    3.986 --    93 C    1.464    87 C    1.385   116 H    0.971
                            89 C    0.102
    95   6 C    3.928 --    99 N    1.319    86 C    1.319    96 C    1.117
    96   6 C    3.967 --    97 C    1.724    95 C    1.117   117 H    0.973
    97   6 C    3.966 --    96 C    1.724    98 C    1.116   118 H    0.975
    98   6 C    3.928 --    60 C    1.367    99 N    1.299    97 C    1.116
    99   7 N    3.013 --    95 C    1.319    98 C    1.299
   100   1 H    1.002 --    60 C    0.971
   101   1 H    0.997 --    62 C    0.976
   102   1 H    1.004 --    63 C    0.974
   103   1 H    0.986 --    65 N    0.873
   104   1 H    1.004 --    68 C    0.971
   105   1 H    1.000 --    69 C    0.972
   106   1 H    1.000 --    73 C    0.972
   107   1 H    1.003 --    74 C    0.971
   108   1 H    1.004 --    76 C    0.973
   109   1 H    1.003 --    77 C    0.974
   110   1 H    1.002 --    82 C    0.975
   111   1 H    1.004 --    83 C    0.974
   112   1 H    0.987 --    85 N    0.873
   113   1 H    1.004 --    88 C    0.971
   114   1 H    1.000 --    89 C    0.972
   115   1 H    1.000 --    93 C    0.972
   116   1 H    1.003 --    94 C    0.971
   117   1 H    1.004 --    96 C    0.973
   118   1 H    0.998 --    97 C    0.975
   119   6 C    3.924 --   120 C    2.368   123 C    1.334   122 C    0.190
   120   6 C    3.922 --   119 C    2.368   121 C    1.334   124 C    0.189
   121   6 C    3.932 --   122 C    2.450   120 C    1.334
   122   6 C    3.889 --   121 C    2.450    21 C    1.189   119 C    0.190
   123   6 C    3.929 --   124 C    2.448   119 C    1.334
   124   6 C    3.890 --   123 C    2.448   131 C    1.192   120 C    0.189
   125   6 C    3.923 --   126 C    2.368   129 C    1.334   128 C    0.189
   126   6 C    3.924 --   125 C    2.368   127 C    1.335   130 C    0.190
   127   6 C    3.929 --   128 C    2.447   126 C    1.335
   128   6 C    3.890 --   127 C    2.447   151 C    1.192   125 C    0.189
   129   6 C    3.932 --   130 C    2.449   125 C    1.334
   130   6 C    3.889 --   129 C    2.449    80 C    1.189   126 C    0.190
   131   6 C    3.926 --   169 C    1.255   132 C    1.248   124 C    1.192
   132   6 C    3.885 --   133 C    1.253   131 C    1.248   136 N    1.188
   133   6 C    3.956 --   134 C    1.578   132 C    1.253   171 H    0.975
   134   6 C    3.955 --   133 C    1.578   135 C    1.245   172 H    0.974
   135   6 C    3.893 --   137 C    1.298   134 C    1.245   136 N    1.168
   136   7 N    3.472 --   132 C    1.188   135 C    1.168   173 H    0.874
   137   6 C    3.927 --   146 C    1.336   135 C    1.298   138 C    1.031
   138   6 C    3.963 --   139 C    1.385   145 C    1.385   137 C    1.031
   139   6 C    3.987 --   140 C    1.464   138 C    1.385   174 H    0.971
                           144 C    0.102
   140   6 C    3.993 --   139 C    1.464   141 C    1.364   175 H    0.972
                           145 C    0.102
   141   6 C    3.984 --   144 C    1.364   140 C    1.364   142 C    1.098
   142   6 C    3.958 --   143 N    2.820   141 C    1.098
   143   7 N    2.973 --   142 C    2.820
   144   6 C    3.993 --   145 C    1.464   141 C    1.364   176 H    0.972
                           139 C    0.102
   145   6 C    3.987 --   144 C    1.464   138 C    1.385   177 H    0.971
                           140 C    0.102
   146   6 C    3.916 --   137 C    1.336   149 N    1.285   147 C    1.124
   147   6 C    3.966 --   148 C    1.710   146 C    1.124   178 H    0.973
   148   6 C    3.964 --   147 C    1.710   150 C    1.128   179 H    0.974
   149   7 N    3.010 --   150 C    1.343   146 C    1.285
   150   6 C    3.908 --   149 N    1.343   151 C    1.255   148 C    1.128
   151   6 C    3.926 --   150 C    1.255   152 C    1.248   128 C    1.192
   152   6 C    3.885 --   153 C    1.253   151 C    1.248   156 N    1.189
   153   6 C    3.956 --   154 C    1.578   152 C    1.253   180 H    0.975
   154   6 C    3.955 --   153 C    1.578   155 C    1.245   181 H    0.974
   155   6 C    3.893 --   157 C    1.299   154 C    1.245   156 N    1.167
   156   7 N    3.472 --   152 C    1.189   155 C    1.167   182 H    0.874
   157   6 C    3.927 --   166 C    1.336   155 C    1.299   158 C    1.031
   158   6 C    3.963 --   159 C    1.386   165 C    1.385   157 C    1.031
   159   6 C    3.987 --   160 C    1.463   158 C    1.386   183 H    0.971
                           164 C    0.102
   160   6 C    3.993 --   159 C    1.463   161 C    1.364   184 H    0.972
                           165 C    0.102
   161   6 C    3.984 --   160 C    1.364   164 C    1.364   162 C    1.098
   162   6 C    3.958 --   163 N    2.820   161 C    1.098
   163   7 N    2.973 --   162 C    2.820
   164   6 C    3.993 --   165 C    1.464   161 C    1.364   185 H    0.972
                           159 C    0.102
   165   6 C    3.987 --   164 C    1.464   158 C    1.385   186 H    0.971
                           160 C    0.102
   166   6 C    3.916 --   157 C    1.336   170 N    1.286   167 C    1.124
   167   6 C    3.966 --   168 C    1.710   166 C    1.124   187 H    0.973
   168   6 C    3.964 --   167 C    1.710   169 C    1.129   188 H    0.974
   169   6 C    3.908 --   170 N    1.342   131 C    1.255   168 C    1.129
   170   7 N    3.010 --   169 C    1.342   166 C    1.286
   171   1 H    1.001 --   133 C    0.975
   172   1 H    1.004 --   134 C    0.974
   173   1 H    0.987 --   136 N    0.874
   174   1 H    1.003 --   139 C    0.971
   175   1 H    1.000 --   140 C    0.972
   176   1 H    1.000 --   144 C    0.972
   177   1 H    1.004 --   145 C    0.971
   178   1 H    1.004 --   147 C    0.973
   179   1 H    1.002 --   148 C    0.974
   180   1 H    1.001 --   153 C    0.975
   181   1 H    1.004 --   154 C    0.974
   182   1 H    0.987 --   156 N    0.874
   183   1 H    1.003 --   159 C    0.971
   184   1 H    1.000 --   160 C    0.972
   185   1 H    1.000 --   164 C    0.972
   186   1 H    1.004 --   165 C    0.971
   187   1 H    1.004 --   167 C    0.973
   188   1 H    1.002 --   168 C    0.974
 ---------------------------------------------------------------------------

           -------------------------------------------------
          | TOTAL ENERGY             -327.985581109999 Eh   |
          | GRADIENT NORM               0.000751136460 Eh/α |
          | HOMO-LUMO GAP               0.913761216660 eV   |
           -------------------------------------------------

 * finished run on 2022/07/27 at 19:35:02.329
