   * xtb version 6.5.1 (b24c23e) compiled by 'conda@728c89f4b128' on 2022-07-12
          program call               : xtb Co_Ph3Me_C2_2.xyz --gfn 1 --opt -T 48

   ID    Z sym.   atoms
    1   27 Co     1, 75
    2    6 C      2-6, 8-20, 22-27, 29-42, 76-80, 82-94, 96-101, 103-116,
                  149, 150
    3    7 N      7, 21, 28, 43, 81, 95, 102, 117
    4    1 H      44-74, 118-148
########################################################################
[WARNING] Please study the warnings concerning your input carefully
-1- prog_main_parseArguments: Unknown option '-T' provided
########################################################################

          :  Hamiltonian                  GFN1-xTB          :
 * total energy  :  -230.7215204 Eh     change       -0.1466816E-08 Eh
 * total energy  :  -230.8727058 Eh     change       -0.1511854E+00 Eh
 * total energy  :  -230.9334445 Eh     change       -0.6073869E-01 Eh
 * total energy  :  -230.9522267 Eh     change       -0.1878217E-01 Eh
 * total energy  :  -230.9594548 Eh     change       -0.7228146E-02 Eh
 * total energy  :  -230.9635815 Eh     change       -0.4126647E-02 Eh
 * total energy  :  -230.9655777 Eh     change       -0.1996189E-02 Eh
 * total energy  :  -230.9667793 Eh     change       -0.1201640E-02 Eh
 * total energy  :  -230.9676135 Eh     change       -0.8341602E-03 Eh
 * total energy  :  -230.9681215 Eh     change       -0.5080745E-03 Eh
 * total energy  :  -230.9695818 Eh     change       -0.1428707E-04 Eh
 * total energy  :  -230.9696007 Eh     change       -0.1885701E-04 Eh
 * total energy  :  -230.9696285 Eh     change       -0.2781081E-04 Eh
 * total energy  :  -230.9696542 Eh     change       -0.2574369E-04 Eh
 * total energy  :  -230.9696742 Eh     change       -0.2001699E-04 Eh
 * total energy  :  -230.9696903 Eh     change       -0.1609461E-04 Eh
 * total energy  :  -230.9697023 Eh     change       -0.1192909E-04 Eh
 * total energy  :  -230.9697090 Eh     change       -0.6741411E-05 Eh
 * total energy  :  -230.9697136 Eh     change       -0.4551626E-05 Eh
   *** GEOMETRY OPTIMIZATION CONVERGED AFTER 37 ITERATIONS ***

 final structure:
================
150
 xtb: 6.5.1 (b24c23e)
Co          17.08761441637044        0.09561589048989        0.00202950807002
C           13.69990464599087        0.15221778803487       -0.00821665668674
C           14.36855261918607        1.16114147371246        0.65063726239561
C           13.71166936234509        2.24015439467072        1.32479711157533
C           14.67975328566292        3.10589935184256        1.70599710173593
C           15.92580793857563        2.55312997873572        1.26247355537318
N           15.72987086224575        1.33692357801786        0.65935936401860
C           17.13231491781266        3.23127930157095        1.33066945701059
C           17.14739813088368        4.61295047376787        1.88655350470231
C           16.94987678201026        5.70618254086688        1.03846146932810
C           16.72824503360369        5.48462571074036       -0.43401517008600
C           16.95798667012570        6.99119018045638        1.56846535039001
C           17.15722049632196        7.20187911122821        2.92876437264977
C           17.17963796190843        8.59788012196228        3.49031579255401
C           17.35491838538857        6.10588319955685        3.76281889829869
C           17.35212281158520        4.81232794970464        3.25482838027453
C           17.56407387107470        3.62998787494957        4.16223533095001
C           18.31924141637898        2.67381290346578        0.88794829929854
C           19.57571512875909        3.35875726003971        0.91806023108814
C           20.51857272079876        2.45692828402269        0.55352637388373
N           18.48781965780265        1.37202527219830        0.47437997512880
C           19.83688321300102        1.22476134040537        0.31019242685288
C           20.49476122864182        0.01953748279872        0.05329146891563
C           19.79499460471697       -1.16192034365348       -0.20208049153951
C           20.43383936845571       -2.41970585599925       -0.43143212921428
C           19.46141014398617       -3.29079924764058       -0.79179865705041
C           18.23059599819599       -2.55977166404593       -0.77975891150048
N           18.44140965602395       -1.26409317030371       -0.36488037027404
C           17.03310427717766       -3.07337267722272       -1.24554443777490
C           17.01198327343850       -4.45329312633032       -1.80533564429483
C           17.28315089131353       -4.65727557838057       -3.16185635532607
C           17.59378170537236       -3.48239573541727       -4.05041592265025
C           17.26407931318064       -5.94834989074680       -3.67425618799234
C           16.98115528890710       -7.03849574352772       -2.85612013891182
C           16.95562453331813       -8.42766727779338       -3.43429887108847
C           16.71192061044625       -6.82307573155282       -1.50937591813625
C           16.72403853707346       -5.53934532439301       -0.97491903794455
C           16.43267240675497       -5.31279832713132        0.48454619224717
C           15.85401883061265       -2.34570522311058       -1.21308030584981
C           14.59956871046191       -2.84312202316992       -1.69593269004768
C           13.65896160839485       -1.93525218808309       -1.34397206303198
C           14.34143862563812       -0.88603840721689       -0.64872901471351
N           15.69185185300828       -1.12597142194684       -0.60807236262776
H           12.61663096038487        0.17682072269527       -0.02374539553838
H           12.64477331240920        2.31282900769735        1.46462076266655
H           14.57889864420396        4.04436067976850        2.22710673833574
H           15.84046316527276        4.87010632764668       -0.59496464000033
H           17.58008283634623        4.96038465842560       -0.87120751191794
H           16.59633507241982        6.43243446999861       -0.95492928364145
H           16.80338197988383        7.84005839273255        0.91045545620158
H           16.77167589596704        8.61553267144530        4.50136119809179
H           18.20773943475639        8.96490783656726        3.53352869643671
H           16.60192089882898        9.27841469448950        2.86456090258909
H           17.51111891267128        6.26147961804443        4.82531318145984
H           18.43902086898753        3.06028206083340        3.84358127560684
H           17.71224417300346        3.95141212080399        5.19269234713067
H           16.70041977357725        2.96337972250991        4.12419283444456
H           19.70274734700303        4.39351067931956        1.19247996465106
H           21.58334401728638        2.59630921086831        0.46072409085390
H           21.49230564429852       -2.59627778005006       -0.33050684950692
H           19.55246439129357       -4.33178284304559       -1.05658977929771
H           16.77492780937329       -2.76102393719984       -4.02610037798440
H           17.74758733876531       -3.80292345039036       -5.08033757372694
H           18.49586933154636       -2.97441453521684       -3.70390640599023
H           17.47449501039161       -6.10851345827100       -4.72668345005113
H           17.82735788736869       -8.59536039942624       -4.06839157328862
H           16.94529915773167       -9.17942311124745       -2.64518612567119
H           16.06228210749995       -8.56089072899343       -4.04839828814154
H           16.49034740912020       -7.66653323846145       -0.86367443455064
H           15.55690686078039       -4.67145523823045        0.60037828093643
H           17.27606852433703       -4.81543555574700        0.96707324421848
H           16.24427356526543       -6.25662457435090        0.99520946960377
H           14.47425233398554       -3.77544463118658       -2.22277765410653
H           12.59511291746131       -1.95988972139889       -1.51926358961257
Co          27.93189176230076       -0.07039097377675       -0.06475724864297
C           31.31959490113474       -0.10413166024873       -0.11133665631230
C           30.65094946124255       -1.28830971324773       -0.33436401146543
C           31.30782905741500       -2.53366190257930       -0.59486872523916
C           30.33974494227466       -3.42229410230342       -0.91915564646492
C           29.09369480747868       -2.71634691944387       -0.85656714114285
N           29.28963284997817       -1.42118713967404       -0.44979269389089
C           27.88719869681474       -3.25289204884616       -1.27690515516746
C           27.87211973176195       -4.63474236387662       -1.83234335327050
C           28.06971344325232       -4.83645624072577       -3.20117470960228
C           28.29143107447270       -3.65715859982954       -4.11029164734210
C           28.06160014769179       -6.13063522342902       -3.70837175528519
C           27.86229206615010       -7.22442738761860       -2.87267285700441
C           27.83986711755147       -8.62053845574382       -3.43395031501782
C           27.66452630379548       -7.01100104870623       -1.51205678509030
C           27.66732413474705       -5.72589401423672       -0.98305770423955
C           27.45529666214309       -5.50094658062011        0.49026579353171
C           26.70028021367801       -2.54410516597870       -1.21048120268869
C           25.44381630336830       -3.05917190685366       -1.66301478589021
C           24.50095590625499       -2.15604705024299       -1.30170879207128
N           26.53169449463508       -1.31843865210516       -0.60763148067982
C           25.18263375715322       -1.09848971565829       -0.62418735196704
C           24.52475112000162       -0.05098509065789        0.02488259948955
C           25.22451664734637        0.97831602248352        0.65860250556129
C           24.58567736538791        2.04467256167368        1.36395139819243
C           25.55810577917181        2.92272957029553        1.70700567099300
C           26.78891391329750        2.38692616231645        1.20953628776613
N           26.57809964323715        1.16476332126652        0.61185426847444
C           27.98639543175043        3.08002734920264        1.22897631621382
C           28.00751887654504        4.46330295831190        1.78042411482546
C           27.73626384406782        5.54966134812413        0.94284783469445
C           27.42553633749402        5.31708615097122       -0.51170691931223
C           27.75534082526366        6.83601640896121        1.46698246785679
C           28.03835394506564        7.05620662197999        2.81205883095413
C           28.06388961010621        8.45888694953573        3.35664642846267
C           28.30767319670059        5.96836347962928        3.63466309031751
C           28.29555312583115        4.67203694692478        3.13152793399596
C           28.58700857835647        3.49812396388355        4.02776380990616
C           29.16547181703636        2.53249913772226        0.74857121306542
C           30.41991381792081        3.22573247562248        0.74448123900644
C           31.36052142262903        2.32696172261939        0.36989340397035
C           30.67805631137471        1.08851135755879        0.14523607788124
N           29.32764520676936        1.23348903345895        0.34070425666850
H           32.40286835498371       -0.11112942037119       -0.13958343087784
H           32.37472305786773       -2.68291282136868       -0.54425946253255
H           30.44059779634017       -4.46026513310667       -1.19280147839465
H           29.17922950751557       -3.10234506332031       -3.80095092408071
H           27.43962479437271       -2.97615343369927       -4.06284378265401
H           28.42336094917424       -3.98044413976180       -5.14236428811849
H           28.21625987983773       -6.28761606024269       -4.77086603499236
H           28.24777209097415       -9.33325798813467       -2.71659273606475
H           26.81176940517368       -8.91527049093888       -3.65692469235286
H           28.41763125625032       -8.67839401171764       -4.35660671233483
H           27.50826937140538       -7.85886327950686       -0.85310573124063
H           26.58033230494854       -4.86925376624662        0.65470221738906
H           27.30711281693859       -6.44629094799274        1.01129887631304
H           28.31892182368554       -4.99357846610970        0.92436376794884
H           25.31679142063601       -3.99580867098975       -2.18141080769227
H           23.43618993657025       -2.19235574690465       -1.46521024591827
H           23.52721420801086        2.10219767880850        1.55904307723068
H           25.46705316996160        3.85719245054156        2.23666642646398
H           28.24436265132784        4.77973955982058       -0.99365345959251
H           27.27168427704246        6.26142506873306       -1.03294212144433
H           26.52344790169188        4.71062985236014       -0.61331000413479
H           27.54485982587898        7.68022138621855        0.81848742263232
H           27.19212446338581        9.01888198629713        3.01526003319826
H           28.07428182739168        8.45499253274081        4.44651762129287
H           28.95720079873594        8.98020167748964        3.00571456406119
H           28.52931383358629        6.12993374727075        4.68452790392819
H           29.46277249402675        2.95518686640791        3.66726423952686
H           27.74363659695906        2.80513931191550        4.03163900934924
H           28.77545396212886        3.82560755083665        5.04968453563019
H           30.54522472107427        4.26323831513042        1.00976288096849
H           32.42436488279579        2.46611180852910        0.26042563260232
C           21.90126146599415       -0.00587258428945        0.04918227614021
C           23.11825112752768       -0.02982153075073        0.03952822350157

          :  Hamiltonian                  GFN1-xTB          :
         :: total energy            -230.969713560309 Eh    ::
         :: gradient norm              0.000329205770 Eh/a0 ::
         :: HOMO-LUMO gap              0.013680679533 eV    ::
         :: SCC energy              -234.583892946519 Eh    ::
         :: repulsion energy           3.751361267475 Eh    ::

    * Orbital Energies and Occupations

         #    Occupation            Energy/Eh            Energy/eV
      -------------------------------------------------------------
         1        2.0000           -0.7692363             -20.9320
       ...           ...                  ...                  ...
       204        2.0000           -0.4204270             -11.4404
       205        2.0000           -0.4201967             -11.4341
       206        2.0000           -0.3979797             -10.8296
       207        2.0000           -0.3952909             -10.7564
       208        2.0000           -0.3952707             -10.7559
       209        2.0000           -0.3933142             -10.7026
       210        2.0000           -0.3932432             -10.7007
       211        1.9999           -0.3901558             -10.6167
       212        1.9999           -0.3901530             -10.6166
       213        1.9998           -0.3900525             -10.6139
       214        1.9998           -0.3900516             -10.6138
       215        1.9306           -0.3842439             -10.4558
       216        1.1664           -0.3814034             -10.3785 (HOMO)
       217        0.9036           -0.3809007             -10.3648 (LUMO)
       218                         -0.3368616              -9.1665
       219                         -0.3243010              -8.8247
       220                         -0.3242884              -8.8243
       221                         -0.3205582              -8.7228
       222                         -0.2935928              -7.9891
       223                         -0.2932072              -7.9786
       224                         -0.2928981              -7.9702
       225                         -0.2841844              -7.7331
       226                         -0.2563254              -6.9750
       227                         -0.2563134              -6.9746
       ...                                ...                  ...
       486                          1.3409155              36.4882
      -------------------------------------------------------------
                  HL-Gap            0.0005028 Eh            0.0137 eV

Wiberg/Mayer (AO) data.
largest (>0.10) Wiberg bond orders for each atom

     #   Z sym  total        # sym  WBO       # sym  WBO       # sym  WBO
 ---------------------------------------------------------------------------
     1  27 Co   3.051 --     7 N    0.640    43 N    0.636    28 N    0.635
                            21 N    0.632
     2   6 C    3.927 --     3 C    1.365    42 C    1.363    44 H    0.970
     3   6 C    3.926 --     2 C    1.365     7 N    1.203     4 C    1.174
     4   6 C    3.960 --     5 C    1.650     3 C    1.174    45 H    0.975
     5   6 C    3.963 --     4 C    1.650     6 C    1.175    46 H    0.974
     6   6 C    3.920 --     8 C    1.325     7 N    1.210     5 C    1.175
     7   7 N    3.344 --     6 C    1.210     3 C    1.203     1 Co   0.640
     8   6 C    3.931 --    18 C    1.336     6 C    1.325     9 C    1.004
     9   6 C    3.987 --    10 C    1.381    16 C    1.380     8 C    1.004
                            13 C    0.104
    10   6 C    3.984 --    12 C    1.420     9 C    1.381    11 C    1.021
                            15 C    0.103
    11   6 C    3.995 --    10 C    1.021    49 H    0.986    48 H    0.974
                            47 H    0.974
    12   6 C    3.992 --    10 C    1.420    13 C    1.415    50 H    0.970
                            16 C    0.102
    13   6 C    3.988 --    12 C    1.415    15 C    1.413    14 C    1.020
                             9 C    0.104
    14   6 C    3.996 --    13 C    1.020    53 H    0.984    51 H    0.982
                            52 H    0.971
    15   6 C    3.993 --    16 C    1.422    13 C    1.413    54 H    0.970
                            10 C    0.103
    16   6 C    3.984 --    15 C    1.422     9 C    1.380    17 C    1.021
                            12 C    0.102
    17   6 C    3.995 --    16 C    1.021    56 H    0.986    55 H    0.974
                            57 H    0.974
    18   6 C    3.917 --     8 C    1.336    21 N    1.192    19 C    1.181
    19   6 C    3.959 --    20 C    1.636    18 C    1.181    58 H    0.974
    20   6 C    3.962 --    19 C    1.636    22 C    1.190    59 H    0.970
    21   7 N    3.347 --    22 C    1.233    18 C    1.192     1 Co   0.632
    22   6 C    3.911 --    23 C    1.262    21 N    1.233    20 C    1.190
    23   6 C    3.932 --    24 C    1.263    22 C    1.262   149 C    1.180
    24   6 C    3.911 --    23 C    1.263    28 N    1.233    25 C    1.189
    25   6 C    3.963 --    26 C    1.638    24 C    1.189    60 H    0.970
    26   6 C    3.959 --    25 C    1.638    27 C    1.180    61 H    0.974
    27   6 C    3.918 --    29 C    1.339    28 N    1.191    26 C    1.180
    28   7 N    3.346 --    24 C    1.233    27 C    1.191     1 Co   0.635
    29   6 C    3.931 --    27 C    1.339    39 C    1.322    30 C    1.004
    30   6 C    3.987 --    37 C    1.383    31 C    1.377    29 C    1.004
                            34 C    0.104
    31   6 C    3.984 --    33 C    1.425    30 C    1.377    32 C    1.020
                            36 C    0.102
    32   6 C    3.995 --    31 C    1.020    63 H    0.986    62 H    0.974
                            64 H    0.973
    33   6 C    3.993 --    31 C    1.425    34 C    1.410    65 H    0.971
                            37 C    0.103
    34   6 C    3.988 --    36 C    1.418    33 C    1.410    35 C    1.020
                            30 C    0.104
    35   6 C    3.996 --    34 C    1.020    67 H    0.985    66 H    0.979
                            68 H    0.973
    36   6 C    3.992 --    34 C    1.418    37 C    1.417    69 H    0.970
                            31 C    0.102
    37   6 C    3.984 --    36 C    1.417    30 C    1.383    38 C    1.021
                            33 C    0.103
    38   6 C    3.995 --    37 C    1.021    72 H    0.986    71 H    0.974
                            70 H    0.974
    39   6 C    3.920 --    29 C    1.322    43 N    1.211    40 C    1.176
    40   6 C    3.963 --    41 C    1.648    39 C    1.176    73 H    0.974
    41   6 C    3.960 --    40 C    1.648    42 C    1.175    74 H    0.975
    42   6 C    3.926 --     2 C    1.363    43 N    1.204    41 C    1.175
    43   7 N    3.346 --    39 C    1.211    42 C    1.204     1 Co   0.636
    44   1 H    1.000 --     2 C    0.970
    45   1 H    0.998 --     4 C    0.975
    46   1 H    1.001 --     5 C    0.974
    47   1 H    1.007 --    11 C    0.974
    48   1 H    1.007 --    11 C    0.974
    49   1 H    1.004 --    11 C    0.986
    50   1 H    1.000 --    12 C    0.970
    51   1 H    1.005 --    14 C    0.982
    52   1 H    1.006 --    14 C    0.971
    53   1 H    1.004 --    14 C    0.984
    54   1 H    1.000 --    15 C    0.970
    55   1 H    1.007 --    17 C    0.974
    56   1 H    1.004 --    17 C    0.986
    57   1 H    1.007 --    17 C    0.974
    58   1 H    1.001 --    19 C    0.974
    59   1 H    1.005 --    20 C    0.970
    60   1 H    1.005 --    25 C    0.970
    61   1 H    1.001 --    26 C    0.974
    62   1 H    1.007 --    32 C    0.974
    63   1 H    1.004 --    32 C    0.986
    64   1 H    1.007 --    32 C    0.973
    65   1 H    0.999 --    33 C    0.971
    66   1 H    1.005 --    35 C    0.979
    67   1 H    1.004 --    35 C    0.985
    68   1 H    1.006 --    35 C    0.973
    69   1 H    1.000 --    36 C    0.970
    70   1 H    1.007 --    38 C    0.974
    71   1 H    1.007 --    38 C    0.974
    72   1 H    1.004 --    38 C    0.986
    73   1 H    1.001 --    40 C    0.974
    74   1 H    0.998 --    41 C    0.975
    75  27 Co   3.052 --    81 N    0.640   117 N    0.636   102 N    0.635
                            95 N    0.632
    76   6 C    3.927 --    77 C    1.365   116 C    1.363   118 H    0.970
    77   6 C    3.926 --    76 C    1.365    81 N    1.203    78 C    1.174
    78   6 C    3.960 --    79 C    1.650    77 C    1.174   119 H    0.975
    79   6 C    3.963 --    78 C    1.650    80 C    1.175   120 H    0.974
    80   6 C    3.920 --    82 C    1.325    81 N    1.210    79 C    1.175
    81   7 N    3.344 --    80 C    1.210    77 C    1.203    75 Co   0.640
    82   6 C    3.931 --    92 C    1.336    80 C    1.325    83 C    1.004
    83   6 C    3.987 --    84 C    1.381    90 C    1.380    82 C    1.004
                            87 C    0.104
    84   6 C    3.984 --    86 C    1.420    83 C    1.381    85 C    1.021
                            89 C    0.103
    85   6 C    3.995 --    84 C    1.021   123 H    0.986   122 H    0.974
                           121 H    0.974
    86   6 C    3.992 --    84 C    1.420    87 C    1.415   124 H    0.970
                            90 C    0.102
    87   6 C    3.988 --    86 C    1.415    89 C    1.413    88 C    1.020
                            83 C    0.104
    88   6 C    3.996 --    87 C    1.020   127 H    0.984   125 H    0.982
                           126 H    0.971
    89   6 C    3.993 --    90 C    1.422    87 C    1.413   128 H    0.970
                            84 C    0.103
    90   6 C    3.984 --    89 C    1.422    83 C    1.380    91 C    1.021
                            86 C    0.102
    91   6 C    3.995 --    90 C    1.021   130 H    0.986   129 H    0.974
                           131 H    0.974
    92   6 C    3.917 --    82 C    1.336    95 N    1.192    93 C    1.181
    93   6 C    3.959 --    94 C    1.636    92 C    1.181   132 H    0.974
    94   6 C    3.962 --    93 C    1.636    96 C    1.190   133 H    0.970
    95   7 N    3.347 --    96 C    1.233    92 C    1.192    75 Co   0.632
    96   6 C    3.911 --    97 C    1.262    95 N    1.233    94 C    1.190
    97   6 C    3.932 --    98 C    1.263    96 C    1.262   150 C    1.180
    98   6 C    3.911 --    97 C    1.263   102 N    1.233    99 C    1.189
    99   6 C    3.963 --   100 C    1.638    98 C    1.189   134 H    0.970
   100   6 C    3.959 --    99 C    1.638   101 C    1.180   135 H    0.974
   101   6 C    3.918 --   103 C    1.339   102 N    1.191   100 C    1.180
   102   7 N    3.346 --    98 C    1.233   101 C    1.191    75 Co   0.635
   103   6 C    3.931 --   101 C    1.339   113 C    1.322   104 C    1.004
   104   6 C    3.987 --   111 C    1.383   105 C    1.377   103 C    1.004
                           108 C    0.104
   105   6 C    3.984 --   107 C    1.425   104 C    1.377   106 C    1.020
                           110 C    0.102
   106   6 C    3.995 --   105 C    1.020   137 H    0.986   136 H    0.974
                           138 H    0.973
   107   6 C    3.993 --   105 C    1.425   108 C    1.410   139 H    0.971
                           111 C    0.103
   108   6 C    3.988 --   110 C    1.418   107 C    1.410   109 C    1.020
                           104 C    0.104
   109   6 C    3.996 --   108 C    1.020   141 H    0.985   140 H    0.979
                           142 H    0.973
   110   6 C    3.992 --   108 C    1.418   111 C    1.417   143 H    0.970
                           105 C    0.102
   111   6 C    3.984 --   110 C    1.417   104 C    1.383   112 C    1.021
                           107 C    0.103
   112   6 C    3.995 --   111 C    1.021   146 H    0.986   145 H    0.974
                           144 H    0.974
   113   6 C    3.920 --   103 C    1.322   117 N    1.211   114 C    1.176
   114   6 C    3.963 --   115 C    1.648   113 C    1.176   147 H    0.974
   115   6 C    3.960 --   114 C    1.648   116 C    1.175   148 H    0.975
   116   6 C    3.926 --    76 C    1.363   117 N    1.204   115 C    1.175
   117   7 N    3.346 --   113 C    1.211   116 C    1.204    75 Co   0.636
   118   1 H    1.000 --    76 C    0.970
   119   1 H    0.998 --    78 C    0.975
   120   1 H    1.001 --    79 C    0.974
   121   1 H    1.007 --    85 C    0.974
   122   1 H    1.007 --    85 C    0.974
   123   1 H    1.004 --    85 C    0.986
   124   1 H    1.000 --    86 C    0.970
   125   1 H    1.005 --    88 C    0.982
   126   1 H    1.006 --    88 C    0.971
   127   1 H    1.004 --    88 C    0.984
   128   1 H    1.000 --    89 C    0.970
   129   1 H    1.007 --    91 C    0.974
   130   1 H    1.004 --    91 C    0.986
   131   1 H    1.007 --    91 C    0.974
   132   1 H    1.001 --    93 C    0.974
   133   1 H    1.005 --    94 C    0.970
   134   1 H    1.005 --    99 C    0.970
   135   1 H    1.001 --   100 C    0.974
   136   1 H    1.007 --   106 C    0.974
   137   1 H    1.004 --   106 C    0.986
   138   1 H    1.007 --   106 C    0.973
   139   1 H    0.999 --   107 C    0.971
   140   1 H    1.005 --   109 C    0.979
   141   1 H    1.004 --   109 C    0.985
   142   1 H    1.006 --   109 C    0.973
   143   1 H    1.000 --   110 C    0.970
   144   1 H    1.007 --   112 C    0.974
   145   1 H    1.007 --   112 C    0.974
   146   1 H    1.004 --   112 C    0.986
   147   1 H    1.001 --   114 C    0.974
   148   1 H    0.998 --   115 C    0.975
   149   6 C    3.930 --   150 C    2.570    23 C    1.180
   150   6 C    3.930 --   149 C    2.570    97 C    1.180
 ---------------------------------------------------------------------------

           -------------------------------------------------
          | TOTAL ENERGY             -230.969713560309 Eh   |
          | GRADIENT NORM               0.000329205770 Eh/α |
          | HOMO-LUMO GAP               0.013680679533 eV   |
           -------------------------------------------------

 * finished run on 2022/07/30 at 01:38:02.420
