   * xtb version 6.5.1 (b24c23e) compiled by 'conda@728c89f4b128' on 2022-07-12
          program call               : xtb Co_H_C2_2.xyz --gfn 1 --opt -T 48

   ID    Z sym.   atoms
    1   27 Co     1, 37
    2    6 C      2-6, 8-11, 13-18, 20-24, 38-42, 44-47, 49-54, 56-60, 73, 74
    3    7 N      7, 12, 19, 25, 43, 48, 55, 61
    4    1 H      26-36, 62-72
########################################################################
[WARNING] Please study the warnings concerning your input carefully
-1- prog_main_parseArguments: Unknown option '-T' provided
########################################################################

          :  Hamiltonian                  GFN1-xTB          :
 * total energy  :  -133.0310447 Eh     change        0.5780947E-08 Eh
 * total energy  :  -133.0980412 Eh     change       -0.6699652E-01 Eh
 * total energy  :  -133.1394113 Eh     change       -0.4137011E-01 Eh
 * total energy  :  -133.1479040 Eh     change       -0.8492618E-02 Eh
 * total energy  :  -133.1524363 Eh     change       -0.4532346E-02 Eh
 * total energy  :  -133.1544697 Eh     change       -0.2033373E-02 Eh
 * total energy  :  -133.1556518 Eh     change       -0.1182142E-02 Eh
 * total energy  :  -133.1562581 Eh     change       -0.6063147E-03 Eh
 * total energy  :  -133.1565619 Eh     change       -0.3037747E-03 Eh
 * total energy  :  -133.1566803 Eh     change       -0.1184159E-03 Eh
 * total energy  :  -133.1573827 Eh     change       -0.2649913E-04 Eh
 * total energy  :  -133.1574179 Eh     change       -0.3517275E-04 Eh
 * total energy  :  -133.1574571 Eh     change       -0.3921901E-04 Eh
 * total energy  :  -133.1574963 Eh     change       -0.3918325E-04 Eh
 * total energy  :  -133.1575251 Eh     change       -0.2876188E-04 Eh
 * total energy  :  -133.1575401 Eh     change       -0.1509043E-04 Eh
 * total energy  :  -133.1575489 Eh     change       -0.8704695E-05 Eh
 * total energy  :  -133.1575552 Eh     change       -0.6318246E-05 Eh
 * total energy  :  -133.1575594 Eh     change       -0.4214905E-05 Eh
   *** GEOMETRY OPTIMIZATION CONVERGED AFTER 40 ITERATIONS ***

 final structure:
================
74
 xtb: 6.5.1 (b24c23e)
Co           9.09286270846873       -0.04628623701274        0.00662990495024
C            5.69227097059866       -0.14427816690144        0.06965175765294
C            6.35242515120839       -0.92763920387478       -0.85171885305713
C            5.68490677805843       -1.77972778307566       -1.79101472804166
C            6.65077320267265       -2.43470541629016       -2.47545520249577
C            7.90469946817115       -1.98869221715931       -1.94414332636211
N            7.71405875140238       -1.03979806176382       -0.97260741362284
C            9.11969066875642       -2.52541681399178       -2.30952793779958
C           10.31963170720138       -2.12990952365164       -1.76188749412060
C           11.57479894394724       -2.72700602792449       -2.10107123382184
C           12.52495549584363       -2.03852281827774       -1.42597747134766
N           10.49560607702629       -1.09518845278832       -0.87328121487693
C           11.84802835016303       -1.01929777364354       -0.68474660454934
C           12.51591147506676       -0.02398932295611        0.02978884738282
C           11.82838772329160        0.98813861578381        0.70083787130967
C           12.48341751997866        2.04373581171149        1.40967651111941
C           11.51210664821921        2.78451044531560        1.99295960200508
C           10.26730535537216        2.16913500748906        1.64803622135786
N           10.47040295066395        1.08347543203398        0.82790469585270
C            9.05561000451232        2.57596566750368        2.15948596151520
C            7.86050112731320        1.95672274759160        1.86486818517479
C            6.60494154983657        2.34439679692878        2.43610638113262
C            5.66024867438003        1.56452922767533        1.86170517009561
C            6.34103060403229        0.71050175215388        0.93363576169140
N            7.69342312930269        0.93866009432491        0.96216917087616
H            4.61005336489649       -0.18788673892821        0.10284710749885
H            4.61364160036836       -1.85225780485462       -1.89269194825238
H            6.54824856706394       -3.16646964229757       -3.26109712457831
H            9.13042240497368       -3.31540081330308       -3.05133127619567
H           11.69206880376250       -3.56217774838957       -2.77300913833909
H           13.59302907016345       -2.18302259236020       -1.43159640545436
H           13.55174485449430        2.18024444859940        1.45164280491096
H           11.60877866535649        3.65926019547173        2.61603039384799
H            9.04411049178460        3.41586618813574        2.84426372477108
H            6.48659264730197        3.11859329984110        3.17762226108604
H            4.59420423532955        1.55871097437368        2.02512941125597
Co          19.97339171588862        0.02978669118022        0.03602163982825
C           23.37398513519416        0.05988196337134        0.14859754723376
C           22.71383035644190        1.25933084707294       -0.00599769284317
C           23.38134609760899        2.52168757368758       -0.12761252983484
C           22.41547697585184        3.46674601755075       -0.19329990347382
C           21.16155109898346        2.77930490052903       -0.10030835872716
N           21.35219708188967        1.42364068828201       -0.01997870017836
C           19.94655733034828        3.42221415085024       -0.00950704711027
C           18.74661437063093        2.76115351793969        0.12954566436895
C           17.49144598503640        3.43109983144850        0.28034821013653
C           16.54128691855649        2.46754090423355        0.31657255457805
N           18.57063547154824        1.39778805560419        0.09076624612902
C           17.21821207720764        1.21479420412194        0.17921318357476
C           16.55034378148518       -0.00230804902317        0.03822920314753
C           17.23788197684809       -1.20257528517256       -0.14631508169341
C           16.58285035876536       -2.46043855138398       -0.33211905790382
C           17.55415928278108       -3.40091576479543       -0.39898186825625
C           18.79895940945304       -2.71358031354735       -0.24014279041504
N           18.59586486212864       -1.35859789843153       -0.11648216261416
C           20.01065321779830       -3.35866665768834       -0.13548143788889
C           21.20576011244238       -2.70231480480834        0.06316723037920
C           22.46132097108391       -3.37345326993102        0.22494434019398
C           23.40601125799251       -2.41002985171321        0.32468708422106
C           22.72522585695873       -1.15379463515124        0.21268203859195
N           21.37283243676787       -1.34179062176033        0.08028133024892
H           24.45620271134175        0.06980978695944        0.20249358346884
H           24.45261124244604        2.64375800535160       -0.15403299280871
H           22.51799969256559        4.53670403025668       -0.28219296708233
H           19.93582528554343        4.50574884890490       -0.02679767074533
H           17.37417850655988        4.50105900470270        0.34515924041234
H           15.47321402917304        2.57822600310753        0.40963873238924
H           15.51452227114500       -2.58966481017791       -0.39291395930958
H           17.45748544704642       -4.46727996218513       -0.52654278309850
H           20.02215292312114       -4.44076421236799       -0.19396010477234
H           22.57967269092259       -4.44511443867158        0.25265226969197
H           24.47205619167457       -2.51567596713563        0.44950760332655
C           13.92489307297789       -0.02315537914063        0.04745162050633
C           15.14136305476859       -0.01492709749167        0.05087241374086

          :  Hamiltonian                  GFN1-xTB          :
         :: total energy            -133.157559386762 Eh    ::
         :: gradient norm              0.000473988213 Eh/a0 ::
         :: HOMO-LUMO gap              0.005697054292 eV    ::
         :: SCC energy              -135.206743475724 Eh    ::
         :: repulsion energy           2.113442657232 Eh    ::

    * Orbital Energies and Occupations

         #    Occupation            Energy/Eh            Energy/eV
      -------------------------------------------------------------
         1        2.0000           -0.7719711             -21.0064
       ...           ...                  ...                  ...
       112        2.0000           -0.4298965             -11.6981
       113        2.0000           -0.4298949             -11.6980
       114        2.0000           -0.4040413             -10.9945
       115        2.0000           -0.3986818             -10.8487
       116        2.0000           -0.3986029             -10.8465
       117        2.0000           -0.3980585             -10.8317
       118        2.0000           -0.3980322             -10.8310
       119        1.9998           -0.3952883             -10.7563
       120        1.9998           -0.3952868             -10.7563
       121        1.9998           -0.3950929             -10.7510
       122        1.9998           -0.3950927             -10.7510
       123        1.9198           -0.3894822             -10.5983
       124        1.0955           -0.3866467             -10.5212 (HOMO)
       125        0.9856           -0.3864373             -10.5155 (LUMO)
       126                         -0.3391739              -9.2294
       127                         -0.3288901              -8.9496
       128                         -0.3288884              -8.9495
       129                         -0.3234515              -8.8016
       130                         -0.2993666              -8.1462
       131                         -0.2993347              -8.1453
       132                         -0.2959227              -8.0525
       133                         -0.2875060              -7.8234
       134                         -0.2327033              -6.3322
       135                         -0.2326821              -6.3316
       ...                                ...                  ...
       262                          1.3388683              36.4325
      -------------------------------------------------------------
                  HL-Gap            0.0002094 Eh            0.0057 eV

Wiberg/Mayer (AO) data.
largest (>0.10) Wiberg bond orders for each atom

     #   Z sym  total        # sym  WBO       # sym  WBO       # sym  WBO
 ---------------------------------------------------------------------------
     1  27 Co   3.026 --     7 N    0.640    25 N    0.639    19 N    0.636
                            12 N    0.635
     2   6 C    3.935 --    24 C    1.366     3 C    1.366    26 H    0.970
     3   6 C    3.924 --     2 C    1.366     7 N    1.207     4 C    1.170
     4   6 C    3.960 --     5 C    1.656     3 C    1.170    27 H    0.975
     5   6 C    3.962 --     4 C    1.656     6 C    1.170    28 H    0.975
     6   6 C    3.921 --     8 C    1.364     7 N    1.207     5 C    1.170
     7   7 N    3.350 --     3 C    1.207     6 C    1.207     1 Co   0.640
     8   6 C    3.939 --     9 C    1.371     6 C    1.364    29 H    0.970
     9   6 C    3.917 --     8 C    1.371    12 N    1.193    10 C    1.176
    10   6 C    3.958 --    11 C    1.643     9 C    1.176    30 H    0.975
    11   6 C    3.962 --    10 C    1.643    13 C    1.185    31 H    0.969
    12   7 N    3.354 --    13 C    1.231     9 C    1.193     1 Co   0.635
    13   6 C    3.910 --    14 C    1.270    12 N    1.231    11 C    1.185
    14   6 C    3.940 --    13 C    1.270    15 C    1.269    73 C    1.171
    15   6 C    3.910 --    14 C    1.269    19 N    1.233    16 C    1.185
    16   6 C    3.962 --    17 C    1.643    15 C    1.185    32 H    0.969
    17   6 C    3.958 --    16 C    1.643    18 C    1.176    33 H    0.975
    18   6 C    3.917 --    20 C    1.373    19 N    1.191    17 C    1.176
    19   7 N    3.352 --    15 C    1.233    18 C    1.191     1 Co   0.636
    20   6 C    3.939 --    18 C    1.373    21 C    1.362    34 H    0.970
    21   6 C    3.921 --    20 C    1.362    25 N    1.208    22 C    1.171
    22   6 C    3.962 --    23 C    1.655    21 C    1.171    35 H    0.975
    23   6 C    3.960 --    22 C    1.655    24 C    1.170    36 H    0.975
    24   6 C    3.924 --     2 C    1.366    25 N    1.206    23 C    1.170
    25   7 N    3.351 --    21 C    1.208    24 C    1.206     1 Co   0.639
    26   1 H    1.000 --     2 C    0.970
    27   1 H    0.997 --     4 C    0.975
    28   1 H    0.997 --     5 C    0.975
    29   1 H    1.000 --     8 C    0.970
    30   1 H    0.997 --    10 C    0.975
    31   1 H    1.005 --    11 C    0.969
    32   1 H    1.005 --    16 C    0.969
    33   1 H    0.997 --    17 C    0.975
    34   1 H    1.000 --    20 C    0.970
    35   1 H    0.997 --    22 C    0.975
    36   1 H    0.997 --    23 C    0.975
    37  27 Co   3.026 --    43 N    0.640    61 N    0.639    55 N    0.636
                            48 N    0.635
    38   6 C    3.935 --    60 C    1.366    39 C    1.366    62 H    0.970
    39   6 C    3.924 --    38 C    1.366    43 N    1.207    40 C    1.170
    40   6 C    3.960 --    41 C    1.656    39 C    1.170    63 H    0.975
    41   6 C    3.962 --    40 C    1.656    42 C    1.170    64 H    0.975
    42   6 C    3.921 --    44 C    1.364    43 N    1.207    41 C    1.170
    43   7 N    3.350 --    39 C    1.207    42 C    1.207    37 Co   0.640
    44   6 C    3.939 --    45 C    1.371    42 C    1.364    65 H    0.970
    45   6 C    3.917 --    44 C    1.371    48 N    1.193    46 C    1.176
    46   6 C    3.958 --    47 C    1.643    45 C    1.176    66 H    0.975
    47   6 C    3.962 --    46 C    1.643    49 C    1.185    67 H    0.969
    48   7 N    3.354 --    49 C    1.231    45 C    1.193    37 Co   0.635
    49   6 C    3.910 --    50 C    1.270    48 N    1.231    47 C    1.185
    50   6 C    3.940 --    49 C    1.270    51 C    1.269    74 C    1.171
    51   6 C    3.910 --    50 C    1.269    55 N    1.233    52 C    1.185
    52   6 C    3.962 --    53 C    1.644    51 C    1.185    68 H    0.969
    53   6 C    3.958 --    52 C    1.644    54 C    1.176    69 H    0.975
    54   6 C    3.917 --    56 C    1.373    55 N    1.191    53 C    1.176
    55   7 N    3.352 --    51 C    1.233    54 C    1.191    37 Co   0.636
    56   6 C    3.939 --    54 C    1.373    57 C    1.362    70 H    0.970
    57   6 C    3.921 --    56 C    1.362    61 N    1.208    58 C    1.171
    58   6 C    3.962 --    59 C    1.655    57 C    1.171    71 H    0.975
    59   6 C    3.960 --    58 C    1.655    60 C    1.170    72 H    0.975
    60   6 C    3.924 --    38 C    1.366    61 N    1.206    59 C    1.170
    61   7 N    3.351 --    57 C    1.208    60 C    1.206    37 Co   0.639
    62   1 H    1.000 --    38 C    0.970
    63   1 H    0.997 --    40 C    0.975
    64   1 H    0.997 --    41 C    0.975
    65   1 H    1.000 --    44 C    0.970
    66   1 H    0.997 --    46 C    0.975
    67   1 H    1.005 --    47 C    0.969
    68   1 H    1.005 --    52 C    0.969
    69   1 H    0.997 --    53 C    0.975
    70   1 H    1.000 --    56 C    0.970
    71   1 H    0.997 --    58 C    0.975
    72   1 H    0.997 --    59 C    0.975
    73   6 C    3.932 --    74 C    2.582    14 C    1.171
    74   6 C    3.932 --    73 C    2.582    50 C    1.171
 ---------------------------------------------------------------------------

           -------------------------------------------------
          | TOTAL ENERGY             -133.157559386762 Eh   |
          | GRADIENT NORM               0.000473988213 Eh/α |
          | HOMO-LUMO GAP               0.005697054292 eV   |
           -------------------------------------------------

 * finished run on 2022/07/29 at 21:49:31.385
