   * xtb version 6.5.1 (b24c23e) compiled by 'conda@728c89f4b128' on 2022-07-12
          program call               : xtb Zn_C2Py_C4_3.xyz --gfn 1 --opt -T 48

   ID    Z sym.   atoms
    1   30 Zn     1, 59, 125
    2    6 C      2-6, 8-13, 15-19, 21-26, 28-33, 35-40, 60-64, 66-71, 73-77,
                  79-84, 86-91, 93-98, 117-124, 126-130, 132-137, 139-143,
                  145-150, 152-157, 159-164
    3    7 N      7, 14, 20, 27, 34, 41, 65, 72, 78, 85, 92, 99, 131, 138,
                  144, 151, 158, 165
    4    1 H      42-58, 100-116, 166-181
########################################################################
[WARNING] Please study the warnings concerning your input carefully
-1- prog_main_parseArguments: Unknown option '-T' provided
########################################################################

          :  Hamiltonian                  GFN1-xTB          :
 * total energy  :  -318.0338158 Eh     change       -0.9862902E-09 Eh
 * total energy  :  -318.2980417 Eh     change       -0.2642259E+00 Eh
 * total energy  :  -318.4494953 Eh     change       -0.1514536E+00 Eh
 * total energy  :  -318.5380376 Eh     change       -0.8854229E-01 Eh
 * total energy  :  -318.5930288 Eh     change       -0.5499117E-01 Eh
 * total energy  :  -318.6230314 Eh     change       -0.3000260E-01 Eh
 * total energy  :  -318.6430233 Eh     change       -0.1999188E-01 Eh
 * total energy  :  -318.6551064 Eh     change       -0.1208315E-01 Eh
 * total energy  :  -318.6629093 Eh     change       -0.7802923E-02 Eh
 * total energy  :  -318.6694312 Eh     change       -0.6521872E-02 Eh
 * total energy  :  -318.6949690 Eh     change       -0.8175364E-05 Eh
 * total energy  :  -318.6949818 Eh     change       -0.1282545E-04 Eh
 * total energy  :  -318.6949956 Eh     change       -0.1381790E-04 Eh
 * total energy  :  -318.6950084 Eh     change       -0.1280897E-04 Eh
 * total energy  :  -318.6950228 Eh     change       -0.1438325E-04 Eh
 * total energy  :  -318.6950440 Eh     change       -0.2120574E-04 Eh
 * total energy  :  -318.6950665 Eh     change       -0.2245552E-04 Eh
 * total energy  :  -318.6950849 Eh     change       -0.1842637E-04 Eh
 * total energy  :  -318.6950877 Eh     change       -0.2861858E-05 Eh
   *** GEOMETRY OPTIMIZATION CONVERGED AFTER 94 ITERATIONS ***

 final structure:
================
181
 xtb: 6.5.1 (b24c23e)
Zn          32.26192243434112       -0.19081161503703       -0.15008497401744
C           28.84362554702594       -0.10837818992094       -0.12429776532210
C           29.49080655265032        0.75703105447494        0.74914854221881
C           28.83941509908811        1.66879075967058        1.64758156342754
C           29.81625970794408        2.32617109025542        2.32292865945246
C           31.07226331359050        1.82194688333948        1.84235435269019
N           30.84581458185873        0.87625946280149        0.89298448864447
C           32.33827362391997        2.24534580287361        2.28839369597668
C           32.36749127030086        3.24221327004214        3.28879594815088
C           32.39001406806939        4.09859983515885        4.14864463364110
C           32.41233126543989        5.09292565837337        5.15286583554414
C           33.61979507444246        5.58184811334881        5.66561261111193
C           33.58598021649733        6.55432080084396        6.64889938920068
N           32.45463506293800        7.05542269756408        7.13867513102261
C           31.30246808268297        6.59621958941781        6.65626586625063
C           31.22682529793310        5.62581197334278        5.67336401180122
C           33.57557297305181        1.76275959388447        1.82450689114320
C           34.85666216812653        2.20935028465271        2.28917265846214
C           35.79503744396153        1.50935689541693        1.60023401965137
N           33.75035468458707        0.80592880814649        0.86887687192883
C           35.09297373138025        0.63072074523554        0.71096943409046
C           35.70493888151769       -0.26720364603108       -0.18355326371529
C           35.03555197005645       -1.13812227443986       -1.06358943408615
C           35.68037260250306       -2.04923223719918       -1.96332141129533
C           34.69858414415638       -2.71055114437807       -2.62951408408362
C           33.44789890951292       -2.20699099212930       -2.14104108060821
N           33.68356290234792       -1.25494842251435       -1.19366258090175
C           32.18196982716957       -2.63674310917755       -2.57930808294075
C           32.15127854109159       -3.64297925052226       -3.57020369062313
C           32.12420249241229       -4.51061424305446       -4.41840476809075
C           32.10928048624370       -5.52402472063732       -5.40347860624384
C           33.30056137034557       -6.05730222603036       -5.91048286372165
C           33.23571884570632       -7.04641276646705       -6.87519407401173
N           32.08861787743405       -7.52336007685214       -7.35257781337807
C           30.95196371860366       -7.02148784843316       -6.87620051664011
C           30.90733917539586       -6.03101159683276       -5.91136775351506
C           30.94465980569485       -2.15124368477761       -2.11688144364997
C           29.65858521926268       -2.59472694059328       -2.57736791503516
C           28.72521040712337       -1.88698160476049       -1.89148316818801
C           29.43373866231185       -1.00561095384453       -1.00599052995707
N           30.77894784595684       -1.19171539602298       -1.16896998656536
H           27.75826756170114       -0.08123159474436       -0.11604727825421
H           27.77073337489973        1.78244707089827        1.74089638489099
H           29.70740132713589        3.08627718900688        3.08043612541851
H           34.56449932237932        5.20192434293041        5.29569968465752
H           34.50793696298654        6.95103037583756        7.06439799706818
H           30.39837926749738        7.02639669352316        7.07769462189006
H           30.26655457362154        5.28066780749298        5.30942198517179
H           35.00987015197980        2.96273524707763        3.04552911993164
H           36.86834419721482        1.57635462952439        1.68081825588478
H           36.74784711988240       -2.16305461591467       -2.06567535128458
H           34.80361273118131       -3.47246787260954       -3.38552623569446
H           34.25683679807175       -5.69787169044988       -5.54989035191801
H           34.14446784752929       -7.47788449407475       -7.28507759975940
H           30.03446133763702       -7.43308445325804       -7.28708057595045
H           29.95837586951881       -5.65140155924835       -5.55218151367943
H           29.50144173713122       -3.35128574043990       -3.32994220250864
H           27.65098833226331       -1.94786744970546       -1.96934957692921
Zn          59.26910030158923       -0.29962158400100       -0.15316368622601
C           62.68849705819811       -0.30078642969521       -0.10975088396986
C           62.07298625859526       -1.50865535003211       -0.41457072267670
C           62.75652023303346       -2.73655626033141       -0.71108005587292
C           61.80370710121013       -3.67251590007650       -0.95331958231641
C           60.53063479178896       -3.02448156055649       -0.80545718633071
N           60.72312967098548       -1.71894515688489       -0.48084626185881
C           59.28027437436685       -3.64898957637284       -0.97004198905758
C           59.28294367258734       -5.01876163132213       -1.31488676010809
C           59.28416114999911       -6.19443722080607       -1.61626793369845
C           59.27231994308244       -7.56224070084317       -1.97180850752506
C           58.06752180492392       -8.25026159362183       -2.16034471483673
C           58.10670167367899       -9.58780857449528       -2.51054292566908
N           59.24108336849135      -10.26295139868791       -2.67944278387847
C           60.39046380877613       -9.61635483331610       -2.50161569912749
C           60.46078850582305       -8.27994054950208       -2.15097066182217
C           58.02669195409696       -3.02756214632226       -0.82387439805581
C           56.76237433910727       -3.68316863386576       -0.99104392763881
C           55.79943324152597       -2.75109170139230       -0.76943555836120
N           57.81770544279199       -1.71805837321872       -0.50600845815179
C           56.46964872413034       -1.52032448360641       -0.46706463953101
C           55.82527983029343       -0.30025019648220       -0.18752267048140
C           56.46290136439931        0.92095380404817        0.10126143972771
C           55.78587292611159        2.15312301066869        0.38196017681391
C           56.74360153529669        3.08780704016856        0.61528124360429
C           58.01146262551992        2.43190352102225        0.47873769172267
N           57.80978779129816        1.11997619080579        0.16588822569175
C           59.26167958422473        3.05425401742693        0.64688660792488
C           59.26114851682155        4.42799145685453        0.97571996116330
C           59.26753572666525        5.60873716405032        1.25663321594200
C           59.27867852009052        6.98198825422094        1.59069852453128
C           58.08852931348110        7.70252717077043        1.74682818729136
C           58.15537559328610        9.04458591767019        2.07551309175924
N           59.30313328809451        9.69434872906756        2.25300895523892
C           60.43894892464478        9.01669148639604        2.10583914905905
C           60.48157791160291        7.67330121307640        1.77861074884810
C           60.51531438041182        2.42732828956455        0.51785244293426
C           61.78479344415951        3.07556001153977        0.69403660066147
C           62.74280987825750        2.13726793589838        0.48357875061473
C           62.06627142305478        0.90815666123479        0.17647887855048
N           60.71521487051047        1.11971377005287        0.20680035783969
H           63.77412505418494       -0.30124830660326       -0.09549560909396
H           63.82859920665393       -2.85495546792418       -0.72931431616436
H           61.93929309946102       -4.71150383035095       -1.20934379802278
H           57.12098729913249       -7.73880978584501       -2.03321333293305
H           57.18706136561885      -10.14538269683000       -2.66334971667047
H           61.29697785053440      -10.19690985490951       -2.64726128296156
H           61.41918341523083       -7.79303701954841       -2.01668059273993
H           56.63596898231665       -4.72355227322896       -1.24544026999156
H           54.72916923720501       -2.87763027744795       -0.80723250336668
H           54.71485120185209        2.27835591805556        0.39724647496005
H           56.61169724503923        4.13005741159294        0.85912821935439
H           57.13158239657629        7.21302871966479        1.61159805739587
H           57.24754063418001        9.62737348205757        2.20281044206398
H           61.35715381194338        9.57701392044472        2.25740536431386
H           61.42953982414156        7.16047707055136        1.66870472650818
H           61.91488964332331        4.11614509881099        0.94636450155829
H           63.81413297877054        2.25518367215475        0.52903640508889
C           38.33520108715008       -0.33080398844575       -0.21564167340198
C           37.11486871724686       -0.29855258027198       -0.20025687107431
C           39.68790567152455       -0.35923018283053       -0.23207695067244
C           40.90828520190644       -0.38608372022149       -0.25513249051160
C           51.84252105200279       -0.33953404969448       -0.23387712077078
C           50.62179176690020       -0.36408045482582       -0.25139806732750
C           53.19485832188037       -0.32058292101301       -0.21835260761550
C           54.41565019987118       -0.30366131696432       -0.20120818676917
Zn          45.76494858470738       -0.43187410373357       -0.29476434714230
C           42.31804586832822       -0.40989836880444       -0.27392565634904
C           42.95835980990525        0.30622630870720       -1.30261733158904
C           42.28395915464840        1.03023685448629       -2.33968329264693
C           43.24384318456872        1.57027322597227       -3.13502113752885
C           44.50981047591833        1.18409845256540       -2.58437782170916
N           44.30599914853670        0.41735336392644       -1.47556228210972
C           45.76192756516452        1.55349245005869       -3.10848015400402
C           45.76017986353428        2.33461847775818       -4.28585903324164
C           45.75681539536964        2.98606357066663       -5.30987763322402
C           45.75221659487227        3.73879103622973       -6.50630344546079
C           46.94537858545372        4.16347494394005       -7.10283259101344
C           46.88571493288246        4.89046696917032       -8.27830728699456
N           45.74220656823722        5.21100974300926       -8.87870125363661
C           44.60352702361426        4.81165410339779       -8.31765253858047
C           44.55377932924441        4.08120311417797       -7.14394967024251
C           47.01505336839566        1.21089718103515       -2.56915145355684
C           48.27922328290233        1.62531074732741       -3.10313699537723
C           49.24080419019106        1.09225908698000       -2.30507181262126
N           47.22164593455363        0.43763282173189       -1.46533719879145
C           48.56925354868145        0.34465905485810       -1.28302833427907
C           49.21273944198781       -0.38959385193286       -0.26896636533819
C           48.57236172890378       -1.15790329285049        0.72164105232710
C           49.24718314571400       -1.92277446744842        1.72864904677671
C           48.28763289298033       -2.51997734370375        2.48248932991729
C           47.02153668125720       -2.11888985083378        1.94294931072987
N           47.22506688352384       -1.29492246164865        0.87578299029828
C           45.76950823216963       -2.51192303998283        2.44960262652625
C           45.77236817615257       -3.39181227255256        3.55511935495887
C           45.77849025863465       -4.16031185858422        4.49447180391331
C           45.78930049813834       -5.06156821934366        5.58337465749556
C           44.59918952706447       -5.52485662950444        6.15675431818749
C           44.66618956168813       -6.41135846426672        7.21675158569875
N           45.81394766211735       -6.85180129577452        7.72599464075672
C           46.94984815284668       -6.41571594233358        7.18690717745565
C           46.99233029186416       -5.52952457246410        6.12560318297313
C           44.51616037604434       -2.11021709458378        1.95301399884537
C           43.25191850130057       -2.50063056440103        2.50464378000215
C           42.29002448591201       -1.90627648190462        1.75155053446758
C           42.96134609390882       -1.15480808085616        0.73218424281950
N           44.30937951811006       -1.29389123420393        0.88081010503718
H           41.21317958571653        1.10798042047677       -2.44108002341785
H           43.11409653699243        2.17917128872565       -4.01562785869770
H           47.89924367999858        3.92390358445160       -6.64854605387878
H           47.79611219771687        5.23224260180170       -8.76239139975105
H           43.68895839258125        5.08976227038716       -8.83361009909264
H           43.60371273675242        3.77586167649140       -6.72236635198523
H           48.40684942874418        2.24607586105954       -3.97573454067648
H           50.31101166973898        1.18857656684205       -2.39614213476669
H           50.31792028448072       -1.99067017423229        1.83731709493545
H           48.41818716317130       -3.17251884526102        3.33114556433214
H           43.64196279082658       -5.19280755234858        5.77324051476293
H           43.75814337072746       -6.78700338267917        7.67973269544792
H           47.86813381926866       -6.79474594562985        7.62633019834814
H           47.94041392398104       -5.20108874534532        5.71704966474221
H           43.12478267737632       -3.14523101554915        3.35986153041983
H           41.21969469271514       -1.96912824468907        1.86709976476933

          :  Hamiltonian                  GFN1-xTB          :
         :: total energy            -318.695087752018 Eh    ::
         :: gradient norm              0.000873175081 Eh/a0 ::
         :: HOMO-LUMO gap              1.148304934005 eV    ::
         :: SCC energy              -324.222015859362 Eh    ::
         :: repulsion energy           5.679376524392 Eh    ::

    * Orbital Energies and Occupations

         #    Occupation            Energy/Eh            Energy/eV
      -------------------------------------------------------------
         1        2.0000           -0.7691233             -20.9289
       ...           ...                  ...                  ...
       281        2.0000           -0.4227709             -11.5042
       282        2.0000           -0.4192229             -11.4076
       283        2.0000           -0.4192172             -11.4075
       284        2.0000           -0.4186707             -11.3926
       285        2.0000           -0.4186592             -11.3923
       286        2.0000           -0.4186531             -11.3921
       287        2.0000           -0.4186407             -11.3918
       288        2.0000           -0.4021313             -10.9426
       289        2.0000           -0.4009460             -10.9103
       290        2.0000           -0.4009328             -10.9099
       291        2.0000           -0.3894706             -10.5980
       292        2.0000           -0.3878228             -10.5532
       293        2.0000           -0.3852779             -10.4839 (HOMO)
       294                         -0.3430785              -9.3356 (LUMO)
       295                         -0.3426192              -9.3231
       296                         -0.3422146              -9.3121
       297                         -0.3421981              -9.3117
       298                         -0.3373121              -9.1787
       299                         -0.3357218              -9.1355
       300                         -0.3173981              -8.6368
       301                         -0.3128374              -8.5127
       302                         -0.3125277              -8.5043
       303                         -0.2876802              -7.8282
       304                         -0.2869620              -7.8086
       ...                                ...                  ...
       624                          1.5104428              41.1012
      -------------------------------------------------------------
                  HL-Gap            0.0421994 Eh            1.1483 eV

Wiberg/Mayer (AO) data.
largest (>0.10) Wiberg bond orders for each atom

     #   Z sym  total        # sym  WBO       # sym  WBO       # sym  WBO
 ---------------------------------------------------------------------------
     1  30 Zn   1.991 --     7 N    0.458    41 N    0.457    27 N    0.454
                            20 N    0.454
     2   6 C    3.930 --     3 C    1.360    40 C    1.360    42 H    0.971
     3   6 C    3.912 --     2 C    1.360     7 N    1.223     4 C    1.173
     4   6 C    3.960 --     5 C    1.654     3 C    1.173    43 H    0.976
     5   6 C    3.962 --     4 C    1.654     6 C    1.179    44 H    0.974
     6   6 C    3.910 --     8 C    1.264     7 N    1.264     5 C    1.179
     7   7 N    3.294 --     6 C    1.264     3 C    1.223     1 Zn   0.458
     8   6 C    3.932 --    17 C    1.271     6 C    1.264     9 C    1.162
     9   6 C    3.957 --    10 C    2.622     8 C    1.162
    10   6 C    3.932 --     9 C    2.622    11 C    1.143
    11   6 C    3.987 --    12 C    1.350    16 C    1.349    10 C    1.143
    12   6 C    3.973 --    13 C    1.458    11 C    1.350    45 H    0.974
                            15 C    0.103
    13   6 C    3.973 --    12 C    1.458    14 N    1.406    46 H    0.972
                            16 C    0.103
    14   7 N    2.993 --    13 C    1.406    15 C    1.406
    15   6 C    3.973 --    16 C    1.458    14 N    1.406    47 H    0.972
                            12 C    0.103
    16   6 C    3.973 --    15 C    1.458    11 C    1.349    48 H    0.974
                            13 C    0.103
    17   6 C    3.903 --     8 C    1.271    20 N    1.247    18 C    1.186
    18   6 C    3.961 --    19 C    1.642    17 C    1.186    49 H    0.974
    19   6 C    3.962 --    18 C    1.642    21 C    1.187    50 H    0.974
    20   7 N    3.295 --    21 C    1.248    17 C    1.247     1 Zn   0.454
    21   6 C    3.897 --    22 C    1.265    20 N    1.248    19 C    1.187
    22   6 C    3.937 --    21 C    1.265    23 C    1.265   118 C    1.171
    23   6 C    3.897 --    22 C    1.265    27 N    1.247    24 C    1.187
    24   6 C    3.962 --    25 C    1.642    23 C    1.187    51 H    0.974
    25   6 C    3.961 --    24 C    1.642    26 C    1.186    52 H    0.974
    26   6 C    3.903 --    28 C    1.270    27 N    1.247    25 C    1.186
    27   7 N    3.295 --    23 C    1.247    26 C    1.247     1 Zn   0.454
    28   6 C    3.932 --    26 C    1.270    37 C    1.265    29 C    1.162
    29   6 C    3.957 --    30 C    2.622    28 C    1.162
    30   6 C    3.932 --    29 C    2.622    31 C    1.143
    31   6 C    3.987 --    36 C    1.350    32 C    1.349    30 C    1.143
    32   6 C    3.973 --    33 C    1.458    31 C    1.349    53 H    0.974
                            35 C    0.103
    33   6 C    3.973 --    32 C    1.458    34 N    1.406    54 H    0.972
                            36 C    0.103
    34   7 N    2.993 --    35 C    1.407    33 C    1.406
    35   6 C    3.973 --    36 C    1.457    34 N    1.407    55 H    0.972
                            32 C    0.103
    36   6 C    3.973 --    35 C    1.457    31 C    1.350    56 H    0.974
                            33 C    0.103
    37   6 C    3.910 --    28 C    1.265    41 N    1.264    38 C    1.179
    38   6 C    3.962 --    39 C    1.654    37 C    1.179    57 H    0.974
    39   6 C    3.960 --    38 C    1.654    40 C    1.173    58 H    0.976
    40   6 C    3.912 --     2 C    1.360    41 N    1.223    39 C    1.173
    41   7 N    3.294 --    37 C    1.264    40 C    1.223     1 Zn   0.457
    42   1 H    1.001 --     2 C    0.971
    43   1 H    0.998 --     4 C    0.976
    44   1 H    1.003 --     5 C    0.974
    45   1 H    1.002 --    12 C    0.974
    46   1 H    1.013 --    13 C    0.972
    47   1 H    1.013 --    15 C    0.972
    48   1 H    1.002 --    16 C    0.974
    49   1 H    1.003 --    18 C    0.974
    50   1 H    1.002 --    19 C    0.974
    51   1 H    1.002 --    24 C    0.974
    52   1 H    1.003 --    25 C    0.974
    53   1 H    1.002 --    32 C    0.974
    54   1 H    1.013 --    33 C    0.972
    55   1 H    1.013 --    35 C    0.972
    56   1 H    1.002 --    36 C    0.974
    57   1 H    1.003 --    38 C    0.974
    58   1 H    0.998 --    39 C    0.976
    59  30 Zn   1.991 --    99 N    0.457    65 N    0.457    78 N    0.454
                            85 N    0.454
    60   6 C    3.930 --    98 C    1.360    61 C    1.360   100 H    0.971
    61   6 C    3.912 --    60 C    1.360    65 N    1.223    62 C    1.173
    62   6 C    3.960 --    63 C    1.654    61 C    1.173   101 H    0.976
    63   6 C    3.962 --    62 C    1.654    64 C    1.179   102 H    0.974
    64   6 C    3.910 --    66 C    1.264    65 N    1.264    63 C    1.179
    65   7 N    3.294 --    64 C    1.264    61 C    1.223    59 Zn   0.457
    66   6 C    3.932 --    75 C    1.271    64 C    1.264    67 C    1.162
    67   6 C    3.957 --    68 C    2.622    66 C    1.162
    68   6 C    3.932 --    67 C    2.622    69 C    1.143
    69   6 C    3.987 --    74 C    1.350    70 C    1.349    68 C    1.143
    70   6 C    3.973 --    71 C    1.458    69 C    1.349   103 H    0.974
                            73 C    0.103
    71   6 C    3.973 --    70 C    1.458    72 N    1.406   104 H    0.972
                            74 C    0.103
    72   7 N    2.993 --    73 C    1.407    71 C    1.406
    73   6 C    3.973 --    74 C    1.457    72 N    1.407   105 H    0.972
                            70 C    0.103
    74   6 C    3.973 --    73 C    1.457    69 C    1.350   106 H    0.974
                            71 C    0.103
    75   6 C    3.903 --    66 C    1.271    78 N    1.247    76 C    1.186
    76   6 C    3.960 --    77 C    1.642    75 C    1.186   107 H    0.974
    77   6 C    3.962 --    76 C    1.642    79 C    1.187   108 H    0.974
    78   7 N    3.295 --    79 C    1.248    75 C    1.247    59 Zn   0.454
    79   6 C    3.896 --    80 C    1.264    78 N    1.248    77 C    1.187
    80   6 C    3.937 --    81 C    1.264    79 C    1.264   124 C    1.174
    81   6 C    3.896 --    80 C    1.264    85 N    1.248    82 C    1.187
    82   6 C    3.962 --    83 C    1.642    81 C    1.187   109 H    0.974
    83   6 C    3.960 --    82 C    1.642    84 C    1.186   110 H    0.974
    84   6 C    3.903 --    86 C    1.271    85 N    1.247    83 C    1.186
    85   7 N    3.295 --    81 C    1.248    84 C    1.247    59 Zn   0.454
    86   6 C    3.932 --    84 C    1.271    95 C    1.264    87 C    1.162
    87   6 C    3.957 --    88 C    2.622    86 C    1.162
    88   6 C    3.932 --    87 C    2.622    89 C    1.143
    89   6 C    3.987 --    90 C    1.349    94 C    1.349    88 C    1.143
    90   6 C    3.973 --    91 C    1.458    89 C    1.349   111 H    0.974
                            93 C    0.103
    91   6 C    3.973 --    90 C    1.458    92 N    1.406   112 H    0.972
                            94 C    0.103
    92   7 N    2.993 --    93 C    1.406    91 C    1.406
    93   6 C    3.973 --    94 C    1.458    92 N    1.406   113 H    0.972
                            90 C    0.103
    94   6 C    3.973 --    93 C    1.458    89 C    1.349   114 H    0.974
                            91 C    0.103
    95   6 C    3.910 --    99 N    1.264    86 C    1.264    96 C    1.179
    96   6 C    3.962 --    97 C    1.654    95 C    1.179   115 H    0.974
    97   6 C    3.960 --    96 C    1.654    98 C    1.173   116 H    0.976
    98   6 C    3.912 --    60 C    1.360    99 N    1.223    97 C    1.173
    99   7 N    3.294 --    95 C    1.264    98 C    1.223    59 Zn   0.457
   100   1 H    1.001 --    60 C    0.971
   101   1 H    0.998 --    62 C    0.976
   102   1 H    1.003 --    63 C    0.974
   103   1 H    1.002 --    70 C    0.974
   104   1 H    1.013 --    71 C    0.972
   105   1 H    1.013 --    73 C    0.972
   106   1 H    1.002 --    74 C    0.974
   107   1 H    1.003 --    76 C    0.974
   108   1 H    1.002 --    77 C    0.974
   109   1 H    1.002 --    82 C    0.974
   110   1 H    1.003 --    83 C    0.974
   111   1 H    1.002 --    90 C    0.974
   112   1 H    1.013 --    91 C    0.972
   113   1 H    1.013 --    93 C    0.972
   114   1 H    1.002 --    94 C    0.974
   115   1 H    1.003 --    96 C    0.974
   116   1 H    0.998 --    97 C    0.976
   117   6 C    3.933 --   118 C    2.493   119 C    1.291
   118   6 C    3.918 --   117 C    2.493    22 C    1.171   120 C    0.196
   119   6 C    3.932 --   120 C    2.492   117 C    1.291
   120   6 C    3.919 --   119 C    2.492   126 C    1.172   118 C    0.196
   121   6 C    3.932 --   122 C    2.490   123 C    1.294
   122   6 C    3.920 --   121 C    2.490   146 C    1.175   124 C    0.197
   123   6 C    3.933 --   124 C    2.491   121 C    1.294
   124   6 C    3.919 --   123 C    2.491    80 C    1.174   122 C    0.197
   125  30 Zn   1.990 --   165 N    0.455   131 N    0.455   151 N    0.455
                           144 N    0.455
   126   6 C    3.930 --   164 C    1.264   127 C    1.264   120 C    1.172
   127   6 C    3.897 --   126 C    1.264   131 N    1.247   128 C    1.188
   128   6 C    3.961 --   129 C    1.640   127 C    1.188   166 H    0.974
   129   6 C    3.961 --   128 C    1.640   130 C    1.188   167 H    0.974
   130   6 C    3.902 --   132 C    1.268   131 N    1.247   129 C    1.188
   131   7 N    3.292 --   127 C    1.247   130 C    1.247   125 Zn   0.455
   132   6 C    3.929 --   141 C    1.268   130 C    1.268   133 C    1.162
   133   6 C    3.957 --   134 C    2.623   132 C    1.162
   134   6 C    3.931 --   133 C    2.623   135 C    1.142
   135   6 C    3.987 --   136 C    1.350   140 C    1.349   134 C    1.142
   136   6 C    3.973 --   137 C    1.457   135 C    1.350   168 H    0.974
                           139 C    0.103
   137   6 C    3.973 --   136 C    1.457   138 N    1.407   169 H    0.972
                           140 C    0.103
   138   7 N    2.993 --   137 C    1.407   139 C    1.406
   139   6 C    3.973 --   140 C    1.458   138 N    1.406   170 H    0.972
                           136 C    0.103
   140   6 C    3.973 --   139 C    1.458   135 C    1.349   171 H    0.974
                           137 C    0.103
   141   6 C    3.902 --   132 C    1.268   144 N    1.246   142 C    1.188
   142   6 C    3.961 --   143 C    1.640   141 C    1.188   172 H    0.974
   143   6 C    3.961 --   142 C    1.640   145 C    1.188   173 H    0.974
   144   7 N    3.292 --   145 C    1.248   141 C    1.246   125 Zn   0.455
   145   6 C    3.896 --   146 C    1.263   144 N    1.248   143 C    1.188
   146   6 C    3.930 --   145 C    1.263   147 C    1.263   122 C    1.175
   147   6 C    3.896 --   146 C    1.263   151 N    1.248   148 C    1.188
   148   6 C    3.961 --   149 C    1.640   147 C    1.188   174 H    0.974
   149   6 C    3.961 --   148 C    1.640   150 C    1.188   175 H    0.974
   150   6 C    3.902 --   152 C    1.268   151 N    1.246   149 C    1.188
   151   7 N    3.292 --   147 C    1.248   150 C    1.246   125 Zn   0.455
   152   6 C    3.929 --   150 C    1.268   161 C    1.268   153 C    1.162
   153   6 C    3.957 --   154 C    2.623   152 C    1.162
   154   6 C    3.931 --   153 C    2.623   155 C    1.142
   155   6 C    3.987 --   156 C    1.350   160 C    1.349   154 C    1.142
   156   6 C    3.973 --   157 C    1.457   155 C    1.350   176 H    0.974
                           159 C    0.103
   157   6 C    3.973 --   156 C    1.457   158 N    1.407   177 H    0.972
                           160 C    0.103
   158   7 N    2.993 --   157 C    1.407   159 C    1.406
   159   6 C    3.973 --   160 C    1.458   158 N    1.406   178 H    0.972
                           156 C    0.103
   160   6 C    3.973 --   159 C    1.458   155 C    1.349   179 H    0.974
                           157 C    0.103
   161   6 C    3.902 --   152 C    1.268   165 N    1.247   162 C    1.188
   162   6 C    3.961 --   163 C    1.640   161 C    1.188   180 H    0.974
   163   6 C    3.961 --   162 C    1.640   164 C    1.188   181 H    0.974
   164   6 C    3.897 --   126 C    1.264   165 N    1.247   163 C    1.188
   165   7 N    3.292 --   164 C    1.247   161 C    1.247   125 Zn   0.455
   166   1 H    1.002 --   128 C    0.974
   167   1 H    1.003 --   129 C    0.974
   168   1 H    1.002 --   136 C    0.974
   169   1 H    1.013 --   137 C    0.972
   170   1 H    1.013 --   139 C    0.972
   171   1 H    1.002 --   140 C    0.974
   172   1 H    1.003 --   142 C    0.974
   173   1 H    1.002 --   143 C    0.974
   174   1 H    1.002 --   148 C    0.974
   175   1 H    1.003 --   149 C    0.974
   176   1 H    1.002 --   156 C    0.974
   177   1 H    1.013 --   157 C    0.972
   178   1 H    1.013 --   159 C    0.972
   179   1 H    1.002 --   160 C    0.974
   180   1 H    1.003 --   162 C    0.974
   181   1 H    1.002 --   163 C    0.974
 ---------------------------------------------------------------------------

           -------------------------------------------------
          | TOTAL ENERGY             -318.695087752018 Eh   |
          | GRADIENT NORM               0.000873175081 Eh/α |
          | HOMO-LUMO GAP               1.148304934005 eV   |
           -------------------------------------------------

 * finished run on 2022/07/30 at 10:47:46.273
