   * xtb version 6.5.1 (b24c23e) compiled by 'conda@728c89f4b128' on 2022-07-12
          program call               : xtb Fe_PhNO2_C4_3.xyz --gfn 1 --opt -T 48

   ID    Z sym.   atoms
    1   26 Fe     1, 61, 129
    2    6 C      2-6, 8-12, 16-20, 22-27, 29-33, 37-42, 62-66, 68-72, 76-80,
                  82-87, 89-93, 97-102, 121-128, 130-134, 136-140, 144-148,
                  150-155, 157-161, 165-170
    3    7 N      7, 13, 21, 28, 34, 43, 67, 73, 81, 88, 94, 103, 135, 141,
                  149, 156, 162, 171
    4    8 O      14, 15, 35, 36, 74, 75, 95, 96, 142, 143, 163, 164
    5    1 H      44-60, 104-120, 172-187
########################################################################
[WARNING] Please study the warnings concerning your input carefully
-1- prog_main_parseArguments: Unknown option '-T' provided
########################################################################

          :  Hamiltonian                  GFN1-xTB          :
 * total energy  :  -367.3623865 Eh     change       -0.1830364E-07 Eh
 * total energy  :  -368.2071633 Eh     change       -0.8447769E+00 Eh
 * total energy  :  -368.4677563 Eh     change       -0.2605930E+00 Eh
 * total energy  :  -368.5954462 Eh     change       -0.1276899E+00 Eh
 * total energy  :  -368.6638732 Eh     change       -0.6842696E-01 Eh
 * total energy  :  -368.7023015 Eh     change       -0.3842833E-01 Eh
 * total energy  :  -368.7236059 Eh     change       -0.2130443E-01 Eh
 * total energy  :  -368.7364283 Eh     change       -0.1282239E-01 Eh
 * total energy  :  -368.7448348 Eh     change       -0.8406535E-02 Eh
 * total energy  :  -368.7524584 Eh     change       -0.7623558E-02 Eh
 * total energy  :  -368.7789561 Eh     change       -0.7937174E-05 Eh
 * total energy  :  -368.7789645 Eh     change       -0.8407013E-05 Eh
 * total energy  :  -368.7789730 Eh     change       -0.8516225E-05 Eh
 * total energy  :  -368.7789742 Eh     change       -0.1268648E-05 Eh
 * total energy  :  -368.7789823 Eh     change       -0.8016240E-05 Eh
 * total energy  :  -368.7789220 Eh     change        0.6029028E-04 Eh
 * total energy  :  -368.7789832 Eh     change       -0.6118646E-04 Eh
 * total energy  :  -368.7789951 Eh     change       -0.1194346E-04 Eh
 * total energy  :  -368.7789987 Eh     change       -0.3604687E-05 Eh
   *** GEOMETRY OPTIMIZATION CONVERGED AFTER 49 ITERATIONS ***

 final structure:
================
187
 xtb: 6.5.1 (b24c23e)
Fe          32.33159984099911       -0.00257482979305       -0.05859350709492
C           28.94300694489223       -0.02150738850341       -0.19646873168825
C           29.59588569710868       -1.23569899377096       -0.24010215014290
C           28.92042403448787       -2.49602082320785       -0.31554860839171
C           29.88021185397849       -3.44416952760940       -0.42236194506216
C           31.14084918204738       -2.75869000593069       -0.42512892944356
N           30.95454108663420       -1.41176649900617       -0.27529838001742
C           32.36814814998620       -3.39064345898845       -0.59542230361383
C           32.38043043122778       -4.85003937514847       -0.84749550763242
C           33.00830966547741       -5.71930215979767        0.04908915837194
C           33.02212225388602       -7.08206747578219       -0.18748958233582
C           32.40770872059312       -7.57833133025573       -1.33355232364796
N           32.42385410740982       -9.00836519273954       -1.58971090180451
O           31.87495885268771       -9.40199214237690       -2.58651608059371
O           32.98611591046483       -9.71131644650666       -0.79006746976529
C           31.77865716058695       -6.72928956952177       -2.23947337725778
C           31.76525181566028       -5.36898467081540       -1.99066291647942
C           33.57954292869830       -2.71463685441577       -0.55841228885164
C           34.84993018498485       -3.33646912422721       -0.78901397574638
C           35.79038068884221       -2.37676875534438       -0.61967308766832
N           33.74467932598477       -1.37803560112599       -0.28466275059335
C           35.09223486670502       -1.17223987341939       -0.29458871520034
C           35.74337561110058        0.02816801443793        0.01379879201543
C           35.05921292183945        1.21145621800931        0.31674461255230
C           35.72091837864095        2.42015669871696        0.69737517664184
C           34.75518918878366        3.35496856700326        0.86465334399296
C           33.50702861129653        2.71639310465189        0.56739505594434
N           33.70878683171733        1.39048574308344        0.26696954168009
C           32.28451457285034        3.37281555233337        0.55157062970036
C           32.25447459277962        4.82655425035997        0.83311754438723
C           31.55291647684282        5.31153000391060        1.94089721467450
C           31.51860870912185        6.66718765343701        2.21223899904015
C           32.18661092903501        7.54579965546175        1.36422768871125
N           32.15037385857413        8.97139284284725        1.64227065900400
O           31.52760637222923        9.33526051532607        2.60643304344195
O           32.74540027594009        9.70077164620318        0.89149776476308
C           32.88769707142671        7.08345677206458        0.25431933895448
C           32.92091333610077        5.72515436679526       -0.00482093840868
C           31.08160485146247        2.73028690980549        0.27700079364561
C           29.81802967984079        3.40339985469983        0.18016101935963
C           28.88336646400893        2.44996433456569       -0.04098979000954
C           29.57713836940531        1.19800146879427       -0.08324330819893
N           30.92488374378419        1.38579359439217        0.08035121021551
H           27.86014183669647       -0.02650169930827       -0.24688097787881
H           27.84956023553331       -2.61854981984646       -0.28676208783039
H           29.75902418064817       -4.51314700937014       -0.48824185333001
H           33.47408272227572       -5.32066055425812        0.94272704082128
H           33.50113194100745       -7.76514171940110        0.50362846145610
H           31.31083475274380       -7.14067379757347       -3.12580639154303
H           31.28879122332762       -4.69539347671203       -2.69332889951455
H           34.99348390613190       -4.37125400982696       -1.05368921494615
H           36.86164357278666       -2.46173618494189       -0.70444052891881
H           36.78671039025760        2.52308170744136        0.82225094236505
H           34.86799768649572        4.38366747592996        1.16550949569802
H           31.04491861252311        4.61540481209135        2.59802542043772
H           30.98268702908470        7.05254839877366        3.07128632283897
H           33.39525375448306        7.78897906848704       -0.39245088286984
H           33.45302123513892        5.35309861216637       -0.87250484610467
H           29.67852275356880        4.46893341368028        0.26337647491740
H           27.81829489174023        2.56338844076913       -0.16481146243680
Fe          59.17730677409313        0.05642451658373       -0.02132768339868
C           62.56370798635329        0.11690791914034       -0.15503798801378
C           61.91508933436539        1.25779428868843        0.26995160523331
C           62.59308602559453        2.45027100347357        0.68082945964105
C           61.63589522867787        3.37476113235324        0.92792166347143
C           60.37438229477246        2.74786985091629        0.65470336489061
N           60.55718426154454        1.44133631513143        0.29315205742008
C           59.14992135946451        3.40602464480321        0.70900513391768
C           59.14011047435633        4.85452987595954        1.01657131271690
C           58.49072432523274        5.32903003430369        2.15990537546258
C           58.48047090196955        6.68102028545913        2.45149186167607
C           59.11965810052824        7.56627296586896        1.58836740324693
N           59.10810244785188        8.98803287367396        1.88772148585606
O           59.67822198626646        9.72292262559401        1.12312336398454
O           58.53004306455162        9.34318863469158        2.88243443430252
C           59.76933350546600        7.11428016733997        0.44342909407844
C           59.77940480885227        5.75974658647554        0.16432843562925
C           57.93825158362039        2.76961131516839        0.47864011128108
C           56.67072512917236        3.43818651679553        0.46768069818251
C           55.72761078391231        2.48317684048740        0.28510691517729
N           57.76909811238065        1.42304012370730        0.26303216167512
C           56.42150085079667        1.23786567021214        0.17785162507390
C           55.76825986634386        0.00291027547644        0.07707919982537
C           56.45248415953764       -1.21280575995494       -0.04821449744454
C           55.79306886367662       -2.47997879613211       -0.10288546106509
C           56.75502872271367       -3.40879342167313       -0.31970564060266
C           57.99835708877345       -2.70173411426381       -0.40952179508724
N           57.79900926832119       -1.35804574847070       -0.20088091108244
C           59.21298834656692       -3.30134415395193       -0.71124546368101
C           59.23458231027166       -4.75330025533240       -1.00212076381178
C           59.96244220330008       -5.62346869582728       -0.18519923925414
C           59.98755229060198       -6.98046857490707       -0.45116023843486
C           59.28414822862687       -7.46996734275485       -1.54791174040238
N           59.31137642383075       -8.89408382963675       -1.83502620209156
O           59.95665451859782       -9.59795177899045       -1.10162981609939
O           58.68765457377700       -9.28198611828434       -2.78908755716832
C           58.55598369329790       -6.61989510777774       -2.37515942333840
C           58.53163537046650       -5.26532795190821       -2.09648544874171
C           60.41413301477517       -2.60070727390959       -0.75635208149795
C           61.67151372120644       -3.18559930634867       -1.12494200591074
C           62.61002784815814       -2.22224987388314       -0.97297886053566
C           61.92423712534152       -1.04960631584920       -0.51993258502526
N           60.57713108688585       -1.28346968494033       -0.42593329787216
H           63.64658468511536        0.13695950087317       -0.20133432895440
H           63.66373915088509        2.54739065264853        0.76364817419602
H           61.75955068864981        4.38987889905471        1.26851404797058
H           58.00574530480535        4.62772038715738        2.82880899228757
H           57.98556636959205        7.05844841995251        3.33822581694884
H           60.25587563799602        7.82470660290442       -0.21404092901124
H           60.27218460392460        5.39549218235869       -0.72951246443121
H           56.53088056004053        4.50101729985985        0.57875975584455
H           54.65713276792140        2.59658196872564        0.22793968325042
H           54.73106577156162       -2.62459698077414        0.01268785191377
H           56.64308455350160       -4.47706746129584       -0.40798280085994
H           60.49812117348056       -5.23018693489055        0.67085776378714
H           60.54342548999645       -7.66403741034087        0.17925978402926
H           58.02069770367653       -7.02599515557616       -3.22500956096053
H           57.97779446495039       -4.59088384347787       -2.73902699213088
H           61.80492816572469       -4.20108920420523       -1.46074017644665
H           63.67285694986590       -2.28116240117541       -1.14474814907560
C           38.36883197473677        0.04606892551630        0.02467651955497
C           37.14490370686358        0.04164706724945        0.02529238982044
C           39.71526154021726        0.04679295165104        0.01951856744786
C           40.93940170254067        0.03733456665408        0.01641428057827
C           51.79827184860292       -0.02380297808787        0.11672412614384
C           50.57376003802351       -0.01999030192537        0.11046936832873
C           53.14387205936733       -0.02136915300568        0.11406440048362
C           54.36812367888066       -0.01474800933371        0.10157269604822
Fe          45.75735223378075        0.00483172536543        0.01575815663711
C           42.33972412763549        0.02674474696982        0.00645308605015
C           43.00244692158251       -1.19603176393536        0.17440173337903
C           42.31875146920546       -2.43406998444682        0.37982211421930
C           43.26686232068725       -3.40210323509346        0.39404379603705
C           44.52500967208616       -2.74840014402489        0.19118368659407
N           44.34901230807932       -1.39021718989740        0.09346613869200
C           45.73747684644537       -3.41699648608689        0.07483846398321
C           45.72895827266045       -4.89792894072838        0.10475135322742
C           46.38761288109269       -5.58422545501737        1.12897756701743
C           46.37950538121722       -6.96683486277940        1.16554913581621
C           45.71309203015362       -7.66785421633547        0.16492349545811
N           45.70463015638373       -9.12117736410542        0.19685209233669
O           45.11719188590087       -9.69374701544073       -0.68399384653719
O           46.28592201473100       -9.66108343458533        1.10223801800745
C           45.05433795578691       -7.00319084322233       -0.86515941951455
C           45.06182287120566       -5.62015266749228       -0.88862997464017
C           46.95821131321530       -2.76725358143110       -0.05677170100564
C           48.21166041400016       -3.44201450075578       -0.21526181040098
C           49.17194221971769       -2.48592558874542       -0.20541482514990
N           47.14981358953177       -1.40849804689566        0.00078892243573
C           48.49990057682262       -1.23400238694009       -0.05364095690577
C           49.17453415555288       -0.01371609831107        0.08753017200259
C           48.50735124522846        1.21452555680101        0.18790214542896
C           49.18534131685035        2.46240417112978        0.34663003721287
C           48.23834379405898        3.42916499866519        0.27514171791295
C           46.98684628141863        2.76422306580152        0.06800523291553
N           47.16417276056227        1.40279397455263        0.05574248184311
C           45.78052264511975        3.42405287020401       -0.13216856449754
C           45.79499314864551        4.90301039674693       -0.21077525562021
C           46.50347648418242        5.54464107904867       -1.23074671178777
C           46.51713205347748        6.92513920330581       -1.31478625628707
C           45.82223016078061        7.66934645208890       -0.36604959868207
N           45.83482767891226        9.12061160469642       -0.44884388768967
O           46.46181409466762        9.62125197798687       -1.34624776834501
O           45.21717471518078        9.73088191849743        0.38479339851966
C           45.11536498569300        7.04969003497403        0.66017166715235
C           45.10220203439774        5.66836335169174        0.73152395138871
C           44.56250643932403        2.76714578506075       -0.25478990779641
C           43.31367348799212        3.43040861352342       -0.48328821764876
C           42.35146536969287        2.47796911813701       -0.42655732856163
C           43.01833502996622        1.23795150327724       -0.18206260861381
N           44.36756620859605        1.41496186459839       -0.11335233544438
H           41.25168132743016       -2.53467188070183        0.49464788943116
H           43.13585813588519       -4.46246925480818        0.53499487838580
H           46.89426097533538       -5.02534792376063        1.90705399801920
H           46.88109068033473       -7.50854496353846        1.95842315992977
H           44.54617884272258       -7.57312848549019       -1.63369675805146
H           44.56068353024052       -5.08979484806547       -1.68987696024464
H           48.33206789451701       -4.50748655106326       -0.32320631926836
H           50.23998354126824       -2.60322078844267       -0.29194949437459
H           50.24822065449924        2.57021186140276        0.49028063024825
H           48.36595658791692        4.49583937123392        0.36092703307439
H           47.03216943517211        4.95244182308030       -1.96847174856478
H           47.05720042839729        7.43231710335023       -2.10522165645270
H           44.58661910515072        7.65258044180779        1.38862436734579
H           44.56444888264948        5.17323345325991        1.53156600613666
H           43.19701524830223        4.48614253578431       -0.66539545526283
H           41.28555224753590        2.58957562434121       -0.54196406902920

          :  Hamiltonian                  GFN1-xTB          :
         :: total energy            -368.778998732539 Eh    ::
         :: gradient norm              0.000698787871 Eh/a0 ::
         :: HOMO-LUMO gap              0.052810822428 eV    ::
         :: SCC energy              -373.936451972873 Eh    ::
         :: repulsion energy           5.329208282447 Eh    ::

    * Orbital Energies and Occupations

         #    Occupation            Energy/Eh            Energy/eV
      -------------------------------------------------------------
         1        2.0000           -0.9273101             -25.2334
       ...           ...                  ...                  ...
       314        2.0000           -0.4230868             -11.5128
       315        2.0000           -0.4227316             -11.5031
       316        1.9996           -0.4183260             -11.3832
       317        1.9926           -0.4154973             -11.3063
       318        1.9924           -0.4154704             -11.3055
       319        1.9921           -0.4154306             -11.3044
       320        1.9665           -0.4140477             -11.2668
       321        1.9595           -0.4138643             -11.2618
       322        1.9496           -0.4136526             -11.2561
       323        1.9474           -0.4136108             -11.2549
       324        1.9426           -0.4135252             -11.2526
       325        1.9400           -0.4134822             -11.2514
       326        1.2723           -0.4107105             -11.1760 (HOMO)
       327        0.3696           -0.4087697             -11.1232 (LUMO)
       328        0.3396           -0.4086719             -11.1205
       329        0.3362           -0.4086603             -11.1202
       330                         -0.3709475             -10.0940
       331                         -0.3628750              -9.8743
       332                         -0.3602091              -9.8018
       333                         -0.3598226              -9.7913
       334                         -0.3597641              -9.7897
       335                         -0.3538251              -9.6281
       336                         -0.3521967              -9.5838
       337                         -0.3518621              -9.5747
       ...                                ...                  ...
       663                          1.4831434              40.3584
      -------------------------------------------------------------
                  HL-Gap            0.0019408 Eh            0.0528 eV

Wiberg/Mayer (AO) data.
largest (>0.10) Wiberg bond orders for each atom

     #   Z sym  total        # sym  WBO       # sym  WBO       # sym  WBO
 ---------------------------------------------------------------------------
     1  26 Fe   3.091 --     7 N    0.665    43 N    0.665    28 N    0.656
                            21 N    0.656
     2   6 C    3.919 --    42 C    1.364     3 C    1.363    44 H    0.970
     3   6 C    3.921 --     2 C    1.363     7 N    1.208     4 C    1.172
     4   6 C    3.959 --     5 C    1.651     3 C    1.172    45 H    0.974
     5   6 C    3.961 --     4 C    1.651     6 C    1.173    46 H    0.973
     6   6 C    3.920 --     8 C    1.312     7 N    1.226     5 C    1.173
     7   7 N    3.380 --     6 C    1.226     3 C    1.208     1 Fe   0.665
     8   6 C    3.920 --    18 C    1.332     6 C    1.312     9 C    1.031
     9   6 C    3.985 --    10 C    1.385    17 C    1.384     8 C    1.031
    10   6 C    3.987 --    11 C    1.462     9 C    1.385    47 H    0.971
                            16 C    0.102
    11   6 C    3.987 --    10 C    1.462    12 C    1.388    48 H    0.964
                            17 C    0.102
    12   6 C    3.942 --    11 C    1.388    16 C    1.388    13 N    0.920
    13   7 N    3.866 --    15 O    1.455    14 O    1.455    12 C    0.920
    14   8 O    1.830 --    13 N    1.455    15 O    0.252
    15   8 O    1.830 --    13 N    1.455    14 O    0.252
    16   6 C    3.987 --    17 C    1.463    12 C    1.388    49 H    0.964
                            10 C    0.102
    17   6 C    3.986 --    16 C    1.463     9 C    1.384    50 H    0.971
                            11 C    0.102
    18   6 C    3.917 --     8 C    1.332    21 N    1.202    19 C    1.178
    19   6 C    3.955 --    20 C    1.640    18 C    1.178    51 H    0.973
    20   6 C    3.960 --    19 C    1.640    22 C    1.186    52 H    0.973
    21   7 N    3.378 --    22 C    1.245    18 C    1.202     1 Fe   0.656
    22   6 C    3.902 --    23 C    1.252    21 N    1.245    20 C    1.186
    23   6 C    3.919 --    22 C    1.252    24 C    1.252   122 C    1.201
    24   6 C    3.902 --    23 C    1.252    28 N    1.246    25 C    1.187
    25   6 C    3.960 --    26 C    1.640    24 C    1.187    53 H    0.973
    26   6 C    3.955 --    25 C    1.640    27 C    1.177    54 H    0.973
    27   6 C    3.917 --    29 C    1.333    28 N    1.201    26 C    1.177
    28   7 N    3.378 --    24 C    1.246    27 C    1.201     1 Fe   0.656
    29   6 C    3.920 --    27 C    1.333    39 C    1.311    30 C    1.031
    30   6 C    3.985 --    38 C    1.385    31 C    1.384    29 C    1.031
    31   6 C    3.986 --    32 C    1.463    30 C    1.384    55 H    0.971
                            37 C    0.102
    32   6 C    3.987 --    31 C    1.463    33 C    1.388    56 H    0.964
                            38 C    0.102
    33   6 C    3.942 --    37 C    1.388    32 C    1.388    34 N    0.920
    34   7 N    3.866 --    36 O    1.455    35 O    1.455    33 C    0.920
    35   8 O    1.830 --    34 N    1.455    36 O    0.252
    36   8 O    1.830 --    34 N    1.455    35 O    0.252
    37   6 C    3.987 --    38 C    1.462    33 C    1.388    57 H    0.964
                            31 C    0.102
    38   6 C    3.987 --    37 C    1.462    30 C    1.385    58 H    0.971
                            32 C    0.102
    39   6 C    3.920 --    29 C    1.311    43 N    1.227    40 C    1.173
    40   6 C    3.961 --    41 C    1.651    39 C    1.173    59 H    0.973
    41   6 C    3.958 --    40 C    1.651    42 C    1.171    60 H    0.974
    42   6 C    3.921 --     2 C    1.364    43 N    1.207    41 C    1.171
    43   7 N    3.380 --    39 C    1.227    42 C    1.207     1 Fe   0.665
    44   1 H    1.000 --     2 C    0.970
    45   1 H    0.997 --     4 C    0.974
    46   1 H    1.003 --     5 C    0.973
    47   1 H    1.003 --    10 C    0.971
    48   1 H    1.006 --    11 C    0.964
    49   1 H    1.006 --    16 C    0.964
    50   1 H    1.003 --    17 C    0.971
    51   1 H    1.003 --    19 C    0.973
    52   1 H    1.001 --    20 C    0.973
    53   1 H    1.001 --    25 C    0.973
    54   1 H    1.003 --    26 C    0.973
    55   1 H    1.003 --    31 C    0.971
    56   1 H    1.006 --    32 C    0.964
    57   1 H    1.006 --    37 C    0.964
    58   1 H    1.003 --    38 C    0.971
    59   1 H    1.003 --    40 C    0.973
    60   1 H    0.997 --    41 C    0.974
    61  26 Fe   3.094 --    67 N    0.665   103 N    0.665    88 N    0.656
                            81 N    0.655
    62   6 C    3.918 --   102 C    1.364    63 C    1.363   104 H    0.970
    63   6 C    3.921 --    62 C    1.363    67 N    1.208    64 C    1.172
    64   6 C    3.959 --    65 C    1.651    63 C    1.172   105 H    0.974
    65   6 C    3.961 --    64 C    1.651    66 C    1.173   106 H    0.973
    66   6 C    3.920 --    68 C    1.311    67 N    1.227    65 C    1.173
    67   7 N    3.379 --    66 C    1.227    63 C    1.208    61 Fe   0.665
    68   6 C    3.919 --    78 C    1.332    66 C    1.311    69 C    1.031
    69   6 C    3.985 --    70 C    1.385    77 C    1.384    68 C    1.031
    70   6 C    3.987 --    71 C    1.463    69 C    1.385   107 H    0.971
                            76 C    0.102
    71   6 C    3.987 --    70 C    1.463    72 C    1.388   108 H    0.964
                            77 C    0.102
    72   6 C    3.942 --    71 C    1.388    76 C    1.388    73 N    0.920
    73   7 N    3.866 --    74 O    1.455    75 O    1.455    72 C    0.920
    74   8 O    1.830 --    73 N    1.455    75 O    0.252
    75   8 O    1.830 --    73 N    1.455    74 O    0.252
    76   6 C    3.987 --    77 C    1.463    72 C    1.388   109 H    0.964
                            70 C    0.102
    77   6 C    3.986 --    76 C    1.463    69 C    1.384   110 H    0.971
                            71 C    0.102
    78   6 C    3.917 --    68 C    1.332    81 N    1.201    79 C    1.178
    79   6 C    3.955 --    80 C    1.639    78 C    1.178   111 H    0.973
    80   6 C    3.960 --    79 C    1.639    82 C    1.187   112 H    0.973
    81   7 N    3.377 --    82 C    1.247    78 C    1.201    61 Fe   0.655
    82   6 C    3.901 --    83 C    1.249    81 N    1.247    80 C    1.187
    83   6 C    3.917 --    82 C    1.249    84 C    1.249   128 C    1.206
    84   6 C    3.902 --    83 C    1.249    88 N    1.247    85 C    1.187
    85   6 C    3.960 --    86 C    1.639    84 C    1.187   113 H    0.973
    86   6 C    3.955 --    85 C    1.639    87 C    1.178   114 H    0.973
    87   6 C    3.917 --    89 C    1.333    88 N    1.201    86 C    1.178
    88   7 N    3.377 --    84 C    1.247    87 C    1.201    61 Fe   0.656
    89   6 C    3.918 --    87 C    1.333    99 C    1.310    90 C    1.031
    90   6 C    3.985 --    98 C    1.385    91 C    1.384    89 C    1.031
    91   6 C    3.986 --    92 C    1.463    90 C    1.384   115 H    0.971
                            97 C    0.102
    92   6 C    3.987 --    91 C    1.463    93 C    1.388   116 H    0.964
                            98 C    0.102
    93   6 C    3.942 --    97 C    1.388    92 C    1.388    94 N    0.920
    94   7 N    3.866 --    95 O    1.455    96 O    1.455    93 C    0.920
    95   8 O    1.830 --    94 N    1.455    96 O    0.252
    96   8 O    1.830 --    94 N    1.455    95 O    0.252
    97   6 C    3.987 --    98 C    1.462    93 C    1.388   117 H    0.964
                            91 C    0.102
    98   6 C    3.987 --    97 C    1.462    90 C    1.385   118 H    0.971
                            92 C    0.102
    99   6 C    3.920 --    89 C    1.310   103 N    1.227   100 C    1.173
   100   6 C    3.961 --   101 C    1.651    99 C    1.173   119 H    0.973
   101   6 C    3.959 --   100 C    1.651   102 C    1.171   120 H    0.974
   102   6 C    3.922 --    62 C    1.364   103 N    1.208   101 C    1.171
   103   7 N    3.379 --    99 C    1.227   102 C    1.208    61 Fe   0.665
   104   1 H    1.000 --    62 C    0.970
   105   1 H    0.997 --    64 C    0.974
   106   1 H    1.003 --    65 C    0.973
   107   1 H    1.003 --    70 C    0.971
   108   1 H    1.006 --    71 C    0.964
   109   1 H    1.006 --    76 C    0.964
   110   1 H    1.003 --    77 C    0.971
   111   1 H    1.003 --    79 C    0.973
   112   1 H    1.001 --    80 C    0.973
   113   1 H    1.001 --    85 C    0.973
   114   1 H    1.003 --    86 C    0.973
   115   1 H    1.003 --    91 C    0.971
   116   1 H    1.006 --    92 C    0.964
   117   1 H    1.006 --    97 C    0.964
   118   1 H    1.003 --    98 C    0.971
   119   1 H    1.003 --   100 C    0.973
   120   1 H    0.997 --   101 C    0.974
   121   6 C    3.923 --   122 C    2.448   123 C    1.326
   122   6 C    3.909 --   121 C    2.448    23 C    1.201   124 C    0.195
   123   6 C    3.918 --   124 C    2.445   121 C    1.326
   124   6 C    3.913 --   123 C    2.445   130 C    1.207   122 C    0.195
   125   6 C    3.918 --   126 C    2.440   127 C    1.331
   126   6 C    3.913 --   125 C    2.440   151 C    1.211   128 C    0.195
   127   6 C    3.923 --   128 C    2.443   125 C    1.331
   128   6 C    3.910 --   127 C    2.443    83 C    1.206   126 C    0.195
   129  26 Fe   3.048 --   171 N    0.647   149 N    0.647   135 N    0.646
                           156 N    0.646
   130   6 C    3.904 --   131 C    1.248   170 C    1.247   124 C    1.207
   131   6 C    3.904 --   130 C    1.248   135 N    1.248   132 C    1.189
   132   6 C    3.959 --   133 C    1.636   131 C    1.189   172 H    0.973
   133   6 C    3.958 --   132 C    1.636   134 C    1.182   173 H    0.973
   134   6 C    3.915 --   136 C    1.321   135 N    1.207   133 C    1.182
   135   7 N    3.367 --   131 C    1.248   134 C    1.207   129 Fe   0.646
   136   6 C    3.912 --   146 C    1.323   134 C    1.321   137 C    1.030
   137   6 C    3.985 --   145 C    1.385   138 C    1.385   136 C    1.030
   138   6 C    3.986 --   139 C    1.462   137 C    1.385   174 H    0.971
                           144 C    0.103
   139   6 C    3.987 --   138 C    1.462   140 C    1.389   175 H    0.964
                           145 C    0.103
   140   6 C    3.943 --   144 C    1.389   139 C    1.389   141 N    0.919
   141   7 N    3.867 --   142 O    1.456   143 O    1.456   140 C    0.919
   142   8 O    1.832 --   141 N    1.456   143 O    0.253
   143   8 O    1.832 --   141 N    1.456   142 O    0.253
   144   6 C    3.987 --   145 C    1.462   140 C    1.389   176 H    0.964
                           138 C    0.103
   145   6 C    3.986 --   144 C    1.462   137 C    1.385   177 H    0.971
                           139 C    0.103
   146   6 C    3.915 --   136 C    1.323   149 N    1.205   147 C    1.181
   147   6 C    3.957 --   148 C    1.635   146 C    1.181   178 H    0.973
   148   6 C    3.959 --   147 C    1.635   150 C    1.190   179 H    0.973
   149   7 N    3.367 --   150 C    1.250   146 C    1.205   129 Fe   0.647
   150   6 C    3.903 --   149 N    1.250   151 C    1.245   148 C    1.190
   151   6 C    3.903 --   152 C    1.245   150 C    1.245   126 C    1.211
   152   6 C    3.903 --   156 N    1.248   151 C    1.245   153 C    1.190
   153   6 C    3.959 --   154 C    1.635   152 C    1.190   180 H    0.973
   154   6 C    3.957 --   153 C    1.635   155 C    1.182   181 H    0.973
   155   6 C    3.915 --   157 C    1.321   156 N    1.206   154 C    1.182
   156   7 N    3.367 --   152 C    1.248   155 C    1.206   129 Fe   0.646
   157   6 C    3.912 --   167 C    1.322   155 C    1.321   158 C    1.031
   158   6 C    3.985 --   166 C    1.385   159 C    1.385   157 C    1.031
   159   6 C    3.986 --   160 C    1.462   158 C    1.385   182 H    0.971
                           165 C    0.103
   160   6 C    3.987 --   159 C    1.462   161 C    1.389   183 H    0.964
                           166 C    0.102
   161   6 C    3.943 --   165 C    1.389   160 C    1.389   162 N    0.919
   162   7 N    3.867 --   164 O    1.456   163 O    1.456   161 C    0.919
   163   8 O    1.832 --   162 N    1.456   164 O    0.253
   164   8 O    1.832 --   162 N    1.456   163 O    0.253
   165   6 C    3.987 --   166 C    1.462   161 C    1.389   184 H    0.964
                           159 C    0.103
   166   6 C    3.986 --   165 C    1.462   158 C    1.385   185 H    0.971
                           160 C    0.102
   167   6 C    3.915 --   157 C    1.322   171 N    1.205   168 C    1.181
   168   6 C    3.958 --   169 C    1.635   167 C    1.181   186 H    0.973
   169   6 C    3.959 --   168 C    1.635   170 C    1.190   187 H    0.973
   170   6 C    3.904 --   171 N    1.249   130 C    1.247   169 C    1.190
   171   7 N    3.367 --   170 C    1.249   167 C    1.205   129 Fe   0.647
   172   1 H    1.001 --   132 C    0.973
   173   1 H    1.003 --   133 C    0.973
   174   1 H    1.003 --   138 C    0.971
   175   1 H    1.006 --   139 C    0.964
   176   1 H    1.006 --   144 C    0.964
   177   1 H    1.003 --   145 C    0.971
   178   1 H    1.003 --   147 C    0.973
   179   1 H    1.001 --   148 C    0.973
   180   1 H    1.001 --   153 C    0.973
   181   1 H    1.003 --   154 C    0.973
   182   1 H    1.003 --   159 C    0.971
   183   1 H    1.006 --   160 C    0.964
   184   1 H    1.006 --   165 C    0.964
   185   1 H    1.003 --   166 C    0.971
   186   1 H    1.003 --   168 C    0.973
   187   1 H    1.001 --   169 C    0.973
 ---------------------------------------------------------------------------

           -------------------------------------------------
          | TOTAL ENERGY             -368.778998732539 Eh   |
          | GRADIENT NORM               0.000698787871 Eh/α |
          | HOMO-LUMO GAP               0.052810822428 eV   |
           -------------------------------------------------

 * finished run on 2022/07/29 at 20:34:36.783
