   * xtb version 6.5.1 (b24c23e) compiled by 'conda@728c89f4b128' on 2022-07-12
          program call               : xtb DHP_C2_3.xyz --gfn 1 --opt -T 48

   ID    Z sym.   atoms
    1    6 C      1-5, 7-10, 12-16, 18-23, 25-28, 30-35, 60-64, 66-69, 71-75,
                  77-82, 84-87, 89-94, 119-127, 129-132, 134-138, 140-145,
                  147-150, 152-157
    2    7 N      6, 11, 17, 24, 29, 36, 65, 70, 76, 83, 88, 95, 128, 133,
                  139, 146, 151, 158
    3    1 H      37-59, 96-118, 159-180

          :  Hamiltonian                  GFN1-xTB          :
 * total energy  :  -291.8484981 Eh     change       -0.2136744E-09 Eh
 * total energy  :  -292.1429917 Eh     change       -0.2944936E+00 Eh
 * total energy  :  -292.2838786 Eh     change       -0.1408869E+00 Eh
 * total energy  :  -292.3525577 Eh     change       -0.6867905E-01 Eh
 * total energy  :  -292.3853709 Eh     change       -0.3281328E-01 Eh
 * total energy  :  -292.4089926 Eh     change       -0.2362165E-01 Eh
 * total energy  :  -292.4283323 Eh     change       -0.1933974E-01 Eh
 * total energy  :  -292.4439510 Eh     change       -0.1561869E-01 Eh
 * total energy  :  -292.4564237 Eh     change       -0.1247273E-01 Eh
 * total energy  :  -292.4662388 Eh     change       -0.9815037E-02 Eh
 * total energy  :  -292.5065524 Eh     change       -0.8980112E-05 Eh
 * total energy  :  -292.5065608 Eh     change       -0.8490340E-05 Eh
 * total energy  :  -292.5065673 Eh     change       -0.6452723E-05 Eh
 * total energy  :  -292.5065726 Eh     change       -0.5333535E-05 Eh
 * total energy  :  -292.5065781 Eh     change       -0.5433559E-05 Eh
 * total energy  :  -292.5065845 Eh     change       -0.6407015E-05 Eh
 * total energy  :  -292.5065917 Eh     change       -0.7188886E-05 Eh
 * total energy  :  -292.5065993 Eh     change       -0.7648642E-05 Eh
 * total energy  :  -292.5066016 Eh     change       -0.2278944E-05 Eh
   *** GEOMETRY OPTIMIZATION CONVERGED AFTER 68 ITERATIONS ***

 final structure:
================
180
 xtb: 6.5.1 (b24c23e)
C           28.03914626928015        0.05373897414188        0.06159690171774
C           28.64341540801503        1.22481668770668        0.49939086770948
C           27.98478164403929        2.39886194211266        0.96246633597035
C           28.94134926079203        3.31844901330746        1.28831811049784
C           30.21664785028346        2.74025349795555        1.02658641885858
N           29.98502469344062        1.47543626838449        0.56246624972706
C           31.47578334435230        3.31720005460091        1.21892486251664
C           31.50719187948126        4.71965806576019        1.70071851857739
C           30.95939715781897        5.71927606689268        0.99311083843645
C           30.96671321898105        7.14843122905393        1.47029114310908
N           31.94170974403641        7.34279839565102        2.54657136839901
C           32.32216240230861        6.29272952174124        3.34125502110912
C           32.16637442409261        5.01095089356352        2.96578044708694
C           32.69260275905583        2.66806928044985        0.98643975478905
C           33.99104487888575        3.29768566086106        1.14968373605604
C           34.91155136356883        2.36730619763885        0.82364235339339
N           32.84485111188172        1.38809174329152        0.55569699313843
C           34.17505098168943        1.17376512065294        0.45219240885327
C           34.80694984295643       -0.01129901528467        0.04194415005466
C           34.18133150941910       -1.19811770966514       -0.37107727089783
C           34.83452981994115       -2.40075543026981       -0.75419956739534
C           33.87424019409812       -3.31793977371309       -1.07842828659269
C           32.60295346247705       -2.70106284935705       -0.91237377249996
N           32.84035601136171       -1.42383453175643       -0.47903433946564
C           31.34396604416485       -3.27638291948161       -1.11818766091907
C           31.32111977102370       -4.68039424047446       -1.59333607252191
C           30.73478251968071       -5.65419383928731       -0.88061404245252
C           30.68798635991805       -7.08477671842465       -1.35024465542891
N           31.66779225283081       -7.32575830418445       -2.41309074342218
C           32.08694358515650       -6.29656801337781       -3.21666197877559
C           31.97529888566766       -5.00687749120176       -2.85311960347917
C           30.12708072439222       -2.62038156953427       -0.90435384221667
C           28.82255321566617       -3.19998145124446       -1.18344268973863
C           27.90901333099750       -2.26637317524184       -0.84815812189482
C           28.65413500809122       -1.11288030855424       -0.37586386848560
N           29.98544491232468       -1.35824987079562       -0.43240312756377
H           26.95362365703317        0.05975429834442        0.06293699222452
H           26.91463361297593        2.50973740623849        1.03775974610977
H           28.78451258569695        4.30853028564891        1.68476400948340
H           30.71539431736786        0.81959862511725        0.30602800746283
H           30.47147001686378        5.54489175710595        0.04112130403610
H           29.95710082168295        7.44128907437301        1.81528359897616
H           31.23439214128511        7.82148956098081        0.64445391575265
H           31.87847254316681        8.24423281361738        2.99700366419300
H           32.83301648849109        6.57668155752481        4.25580682715640
H           32.51736135635132        4.19630715481872        3.58306922862560
H           34.15321519742152        4.31647593991108        1.46265755815209
H           35.98625420423373        2.45619308755519        0.81816553098568
H           35.90389657288041       -2.53741006059920       -0.76953207503095
H           34.02857232626696       -4.33528017747428       -1.39937079283917
H           32.11192630168969       -0.75236572221350       -0.25946315364262
H           30.24991116799703       -5.45447847210658        0.06780085116552
H           29.67148281488652       -7.33693746766996       -1.70655594971959
H           30.91738413713218       -7.76363898903434       -0.51789081512629
H           31.56914521319841       -8.22608660071694       -2.85981097883260
H           32.59143218406079       -6.60652443932374       -4.12634188685717
H           32.35441835514150       -4.21114201217600       -3.47863431270732
H           28.65352633229078       -4.18227584300401       -1.59453079872816
H           26.83329395481290       -2.32013748970633       -0.91256946164385
C           56.51814441667303       -0.06355321905009       -0.04459455766223
C           55.91215661729731       -1.28341995755953       -0.31455423864039
C           56.56806306636765       -2.52481985047825       -0.54983052019738
C           55.61023420207688       -3.46910787990851       -0.79000963558035
C           54.33701923680285       -2.83393839175627       -0.72047366077153
N           54.57078485532829       -1.52116426924314       -0.41904589495198
C           53.07762406034326       -3.41272782594719       -0.90521621547415
C           53.04281997204811       -4.85206800035386       -1.26098624935084
C           53.62096713812113       -5.31800261108618       -2.37844604924966
C           53.61234581685938       -6.77940025117928       -2.74553941998749
N           52.60381366998627       -7.51301353360540       -1.97656104752575
C           52.18915994461405       -7.05320940784973       -0.75357498770569
C           52.34643532359689       -5.77294599792098       -0.37381289299642
C           51.86236881517232       -2.73245746495070       -0.77523828476305
C           50.56551165076866       -3.33582779824979       -1.02665758701518
C           49.64543542603407       -2.37766624857674       -0.79263853359084
N           51.71037368756502       -1.43061109950629       -0.41665793013255
C           50.38079711399126       -1.18851035321120       -0.40538171548785
C           49.74911131374169        0.01460426926678       -0.05168768253027
C           50.37641688278132        1.21989103446080        0.30064477442718
C           49.72607524359569        2.42588610612365        0.67788168924825
C           50.68779415337625        3.36909741891101        0.91049764247193
C           51.95693085691275        2.77038080868405        0.67569147578354
N           51.71734268592598        1.47005243680820        0.31963821184766
C           53.21597194064851        3.36921125166333        0.79761600219730
C           53.23886241814494        4.80494312165709        1.16532303471624
C           53.84744013706626        5.23816589907325        2.27977409147565
C           53.89597956041972        6.69484108182500        2.66082150258321
N           52.89437122248139        7.46927324502529        1.92273494553960
C           52.44992617434170        7.03979476487202        0.69849916056432
C           52.55994845773949        5.76031097563078        0.30027088837209
C           54.43207014750470        2.70731343045893        0.59805016236919
C           55.73636615253859        3.34741085180934        0.66683036407258
C           56.64944492109256        2.38164329676298        0.43826759976868
C           55.90405288917704        1.15551040324431        0.21522300325990
N           54.57305143733593        1.39155988938151        0.30690939581335
H           57.60362495215981       -0.07209670163992       -0.03938128552069
H           57.63723484621223       -2.66474319837051       -0.52814386727322
H           55.76492216508731       -4.51701174044479       -0.98994754644699
H           53.84212662306835       -0.82705819501081       -0.29039201438968
H           54.13635740718957       -4.66295660029239       -3.07127944789903
H           54.61285530623955       -7.22112038191511       -2.57800190117954
H           53.37966365210175       -6.90024988307457       -3.81222810710940
H           52.65995482217945       -8.51566213255167       -2.08154817682264
H           51.65140976536156       -7.77996349909348       -0.15303572797556
H           51.96871864822987       -5.41576893324766        0.57362342759155
H           50.40452929228817       -4.35246768241351       -1.34719725037718
H           48.57182246474765       -2.44096206017818       -0.87197064131807
H           48.65762085450535        2.54400857276253        0.76109528899925
H           50.53617232508710        4.38953034547684        1.22282796242238
H           52.44392694301725        0.79375987125117        0.10905152587720
H           54.35038444134327        4.55780281403564        2.95696592835467
H           54.90634522943483        7.10488957806176        2.47398619389328
H           53.69169896413337        6.81221881119957        3.73352243103456
H           52.99034009640475        8.46834916085495        2.03471568075524
H           51.92812132356777        7.79151439175788        0.11476275564813
H           52.16095388682631        5.43003836108675       -0.64839940910350
H           55.90566133572786        4.39612462603269        0.85121688445818
H           57.72490648577362        2.46276542076189        0.40640488013204
C           36.22529203629881       -0.02358742254109        0.03624157377316
C           37.43956348219852       -0.03387523976743        0.02885909454835
C           47.11644666607283        0.03601687935235       -0.02787160196817
C           48.33061215502649        0.02718585197087       -0.04335959596473
C           38.85718674980823       -0.03994691379755        0.01945388602550
C           39.48407435095601       -0.19525225404479        1.26547899285841
C           38.83871285931485       -0.33350892444278        2.52343671364674
C           39.80613581625506       -0.45484565303221        3.48188749249620
C           41.07327364435590       -0.40141060908601        2.83716756383646
N           40.82724138845386       -0.23819544243942        1.50028142900707
C           42.33373685568876       -0.47353386396643        3.43858099597893
C           42.36095920881253       -0.68891481488781        4.90674654079873
C           41.85952945688035       -1.80226638832990        5.46235042151300
C           41.92527039198576       -2.06712106593598        6.94353589430347
N           42.21454469870615       -0.83943888311180        7.68927954910709
C           42.86769278254351        0.20607927337621        7.08988124009611
C           42.94422890757485        0.34061650787674        5.75414059041637
C           43.55526934397883       -0.36394229225859        2.76939453267928
C           44.84658245931046       -0.49888396663683        3.42074700209616
C           45.77883418574815       -0.35125560200784        2.45712212985161
N           43.72307365934284       -0.15158706767606        1.43769125662275
C           45.05628620414402       -0.13496132163892        1.21822783635145
C           45.69855707767549        0.04188959432845       -0.01772533493667
C           45.07165636366715        0.21098060719209       -1.26190739341689
C           45.71696300895290        0.36321749144793       -2.51827392448156
C           44.74943818203091        0.48245231554778       -3.47688228545405
C           43.48223692053730        0.41373866426399       -2.83380779886851
N           43.72834460764113        0.24603029275930       -1.49752895950541
C           42.22193347883002        0.47207990130257       -3.43706114591384
C           42.19476625949344        0.68585724376953       -4.90558060098004
C           42.67989220746679        1.80651899068542       -5.46083743596740
C           42.61305568958980        2.06868821054460       -6.94246721241868
N           42.35044991530047        0.83447212054954       -7.68723681033240
C           41.71137819645729       -0.22053376010956       -7.08917495235847
C           41.63078962873488       -0.35390316773535       -5.75353999858544
C           41.00063871239507        0.35040520329305       -2.76985159704009
C           39.70912133028510        0.46731132696942       -3.42420859114444
C           38.77688056741035        0.32026309104593       -2.46049623625139
C           39.49960143858544        0.12219024774480       -1.21861593262801
N           40.83278119454479        0.14676587937889       -1.43667575016665
H           37.77000594506164       -0.33298090706351        2.66597142787163
H           39.66074761255238       -0.56246034627293        4.54442440215130
H           41.54598896010363       -0.15475001294475        0.78922097315237
H           41.44754328958749       -2.60417364267125        4.86065510013470
H           42.69295016402656       -2.83350420908734        7.16097638694596
H           40.96398074410448       -2.46230907351965        7.29950822962246
H           42.42156579335592       -0.99411139268190        8.66543674629779
H           43.24301711842397        0.95884743215933        7.77580144842179
H           43.39545781087519        1.21178571730257        5.30100352682216
H           44.99588613019407       -0.69392792987713        4.47061407924578
H           46.85286927266439       -0.38940543097343        2.54646795775171
H           46.78574780733700        0.37238736398305       -2.65990745348794
H           44.89487679196430        0.59796572562444       -4.53858047138001
H           43.00967090888459        0.15227060180153       -0.78766682642531
H           43.07786696348335        2.61523219156927       -4.85884235724226
H           41.83078957610462        2.81934476690634       -7.16290767116411
H           43.56722440160218        2.48241257827492       -7.29633865524071
H           42.14648633359442        0.98346783738353       -8.66492498555562
H           41.35176924184857       -0.98059581168126       -7.77547443268315
H           41.19155219523184       -1.23141877174474       -5.30085246857696
H           39.55951743678291        0.65078845190641       -4.47612007820948
H           37.70268383534988        0.34782906267459       -2.55178272589509

          :  Hamiltonian                  GFN1-xTB          :
         :: total energy            -292.506601592991 Eh    ::
         :: gradient norm              0.000380381973 Eh/a0 ::
         :: HOMO-LUMO gap              1.085101113682 eV    ::
         :: SCC energy              -297.094837953163 Eh    ::
         :: repulsion energy           4.741314658658 Eh    ::

    * Orbital Energies and Occupations

         #    Occupation            Energy/Eh            Energy/eV
      -------------------------------------------------------------
         1        2.0000           -0.7930264             -21.5793
       ...           ...                  ...                  ...
       255        2.0000           -0.4042946             -11.0014
       256        2.0000           -0.3880764             -10.5601
       257        2.0000           -0.3880380             -10.5591
       258        2.0000           -0.3879679             -10.5571
       259        2.0000           -0.3752253             -10.2104
       260        2.0000           -0.3745937             -10.1932
       261        2.0000           -0.3721467             -10.1266
       262        2.0000           -0.3686261             -10.0308
       263        2.0000           -0.3686015             -10.0302
       264        2.0000           -0.3680218             -10.0144
       265        2.0000           -0.3666068              -9.9759
       266        2.0000           -0.3664660              -9.9720
       267        2.0000           -0.3655879              -9.9482 (HOMO)
       268                         -0.3257112              -8.8631 (LUMO)
       269                         -0.3228699              -8.7857
       270                         -0.3214530              -8.7472
       271                         -0.3197703              -8.7014
       272                         -0.3196530              -8.6982
       273                         -0.3192625              -8.6876
       274                         -0.2873678              -7.8197
       275                         -0.2850706              -7.7572
       276                         -0.2845633              -7.7434
       277                         -0.2631101              -7.1596
       278                         -0.2630959              -7.1592
       ...                                ...                  ...
       584                          1.3502536              36.7423
      -------------------------------------------------------------
                  HL-Gap            0.0398767 Eh            1.0851 eV

Wiberg/Mayer (AO) data.
largest (>0.10) Wiberg bond orders for each atom

     #   Z sym  total        # sym  WBO       # sym  WBO       # sym  WBO
 ---------------------------------------------------------------------------
     1   6 C    3.930 --    35 C    1.362     2 C    1.349    37 H    0.971
     2   6 C    3.904 --     1 C    1.349     3 C    1.228     6 N    1.170
     3   6 C    3.955 --     4 C    1.596     2 C    1.228    38 H    0.977
     4   6 C    3.960 --     3 C    1.596     5 C    1.233    39 H    0.975
     5   6 C    3.899 --     7 C    1.309     4 C    1.233     6 N    1.174
     6   7 N    3.470 --     5 C    1.174     2 C    1.170    40 H    0.873
     7   6 C    3.941 --    14 C    1.326     5 C    1.309     8 C    1.027
     8   6 C    3.988 --     9 C    1.766    13 C    1.098     7 C    1.027
     9   6 C    3.969 --     8 C    1.766    10 C    1.013    41 H    0.972
    10   6 C    3.961 --     9 C    1.013    43 H    0.976    42 H    0.967
                            11 N    0.949
    11   7 N    3.248 --    12 C    1.161    10 C    0.949    44 H    0.928
                            13 C    0.127
    12   6 C    3.958 --    13 C    1.692    11 N    1.161    45 H    0.971
    13   6 C    3.967 --    12 C    1.692     8 C    1.098    46 H    0.974
                            11 N    0.127
    14   6 C    3.918 --     7 C    1.326    17 N    1.299    15 C    1.124
    15   6 C    3.968 --    16 C    1.713    14 C    1.124    47 H    0.973
    16   6 C    3.967 --    15 C    1.713    18 C    1.126    48 H    0.974
    17   7 N    3.024 --    18 C    1.326    14 C    1.299
    18   6 C    3.921 --    17 N    1.326    19 C    1.281    16 C    1.126
    19   6 C    3.936 --    18 C    1.281    20 C    1.270   119 C    1.140
    20   6 C    3.897 --    19 C    1.270    21 C    1.244    24 N    1.183
    21   6 C    3.959 --    22 C    1.587    20 C    1.244    49 H    0.975
    22   6 C    3.959 --    21 C    1.587    23 C    1.240    50 H    0.973
    23   6 C    3.898 --    25 C    1.307    22 C    1.240    24 N    1.168
    24   7 N    3.475 --    20 C    1.183    23 C    1.168    51 H    0.873
    25   6 C    3.932 --    32 C    1.322    23 C    1.307    26 C    1.029
    26   6 C    3.988 --    27 C    1.766    31 C    1.097    25 C    1.029
    27   6 C    3.970 --    26 C    1.766    28 C    1.013    52 H    0.972
    28   6 C    3.961 --    27 C    1.013    54 H    0.976    53 H    0.966
                            29 N    0.949
    29   7 N    3.246 --    30 C    1.159    28 C    0.949    55 H    0.928
                            31 C    0.127
    30   6 C    3.958 --    31 C    1.693    29 N    1.159    56 H    0.971
    31   6 C    3.967 --    30 C    1.693    26 C    1.097    57 H    0.974
                            29 N    0.127
    32   6 C    3.930 --    25 C    1.322    36 N    1.315    33 C    1.119
    33   6 C    3.967 --    34 C    1.720    32 C    1.119    58 H    0.974
    34   6 C    3.966 --    33 C    1.720    35 C    1.118    59 H    0.976
    35   6 C    3.932 --     1 C    1.362    36 N    1.303    34 C    1.118
    36   7 N    3.018 --    32 C    1.315    35 C    1.303
    37   1 H    1.002 --     1 C    0.971
    38   1 H    0.998 --     3 C    0.977
    39   1 H    1.007 --     4 C    0.975
    40   1 H    0.986 --     6 N    0.873
    41   1 H    1.003 --     9 C    0.972
    42   1 H    1.008 --    10 C    0.967
    43   1 H    1.019 --    10 C    0.976
    44   1 H    0.964 --    11 N    0.928
    45   1 H    1.001 --    12 C    0.971
    46   1 H    1.003 --    13 C    0.974
    47   1 H    1.006 --    15 C    0.973
    48   1 H    1.003 --    16 C    0.974
    49   1 H    1.002 --    21 C    0.975
    50   1 H    1.006 --    22 C    0.973
    51   1 H    0.988 --    24 N    0.873
    52   1 H    1.004 --    27 C    0.972
    53   1 H    1.007 --    28 C    0.966
    54   1 H    1.019 --    28 C    0.976
    55   1 H    0.964 --    29 N    0.928
    56   1 H    1.001 --    30 C    0.971
    57   1 H    1.003 --    31 C    0.974
    58   1 H    1.007 --    33 C    0.974
    59   1 H    0.999 --    34 C    0.976
    60   6 C    3.930 --    94 C    1.362    61 C    1.349    96 H    0.971
    61   6 C    3.904 --    60 C    1.349    62 C    1.228    65 N    1.170
    62   6 C    3.955 --    63 C    1.597    61 C    1.228    97 H    0.977
    63   6 C    3.960 --    62 C    1.597    64 C    1.233    98 H    0.975
    64   6 C    3.899 --    66 C    1.309    63 C    1.233    65 N    1.174
    65   7 N    3.470 --    64 C    1.174    61 C    1.170    99 H    0.873
    66   6 C    3.941 --    73 C    1.325    64 C    1.309    67 C    1.028
    67   6 C    3.988 --    68 C    1.766    72 C    1.098    66 C    1.028
    68   6 C    3.968 --    67 C    1.766    69 C    1.013   100 H    0.972
    69   6 C    3.961 --    68 C    1.013   102 H    0.976   101 H    0.966
                            70 N    0.949
    70   7 N    3.248 --    71 C    1.160    69 C    0.949   103 H    0.928
                            72 C    0.127
    71   6 C    3.957 --    72 C    1.692    70 N    1.160   104 H    0.971
    72   6 C    3.967 --    71 C    1.692    67 C    1.098   105 H    0.974
                            70 N    0.127
    73   6 C    3.918 --    66 C    1.325    76 N    1.300    74 C    1.124
    74   6 C    3.968 --    75 C    1.713    73 C    1.124   106 H    0.973
    75   6 C    3.967 --    74 C    1.713    77 C    1.126   107 H    0.974
    76   7 N    3.024 --    77 C    1.326    73 C    1.300
    77   6 C    3.922 --    76 N    1.326    78 C    1.281    75 C    1.126
    78   6 C    3.936 --    77 C    1.281    79 C    1.271   122 C    1.139
    79   6 C    3.897 --    78 C    1.271    80 C    1.244    83 N    1.182
    80   6 C    3.959 --    81 C    1.587    79 C    1.244   108 H    0.975
    81   6 C    3.959 --    80 C    1.587    82 C    1.240   109 H    0.974
    82   6 C    3.898 --    84 C    1.307    81 C    1.240    83 N    1.168
    83   7 N    3.475 --    79 C    1.182    82 C    1.168   110 H    0.873
    84   6 C    3.933 --    91 C    1.322    82 C    1.307    85 C    1.030
    85   6 C    3.988 --    86 C    1.765    90 C    1.097    84 C    1.030
    86   6 C    3.970 --    85 C    1.765    87 C    1.013   111 H    0.972
    87   6 C    3.961 --    86 C    1.013   113 H    0.976   112 H    0.966
                            88 N    0.949
    88   7 N    3.246 --    89 C    1.159    87 C    0.949   114 H    0.928
                            90 C    0.127
    89   6 C    3.958 --    90 C    1.694    88 N    1.159   115 H    0.971
    90   6 C    3.967 --    89 C    1.694    85 C    1.097   116 H    0.974
                            88 N    0.127
    91   6 C    3.930 --    84 C    1.322    95 N    1.315    92 C    1.119
    92   6 C    3.967 --    93 C    1.720    91 C    1.119   117 H    0.974
    93   6 C    3.966 --    92 C    1.720    94 C    1.118   118 H    0.976
    94   6 C    3.932 --    60 C    1.362    95 N    1.304    93 C    1.118
    95   7 N    3.018 --    91 C    1.315    94 C    1.304
    96   1 H    1.002 --    60 C    0.971
    97   1 H    0.998 --    62 C    0.977
    98   1 H    1.007 --    63 C    0.975
    99   1 H    0.986 --    65 N    0.873
   100   1 H    1.003 --    68 C    0.972
   101   1 H    1.008 --    69 C    0.966
   102   1 H    1.019 --    69 C    0.976
   103   1 H    0.964 --    70 N    0.928
   104   1 H    1.001 --    71 C    0.971
   105   1 H    1.003 --    72 C    0.974
   106   1 H    1.006 --    74 C    0.973
   107   1 H    1.003 --    75 C    0.974
   108   1 H    1.002 --    80 C    0.975
   109   1 H    1.006 --    81 C    0.974
   110   1 H    0.988 --    83 N    0.873
   111   1 H    1.004 --    86 C    0.972
   112   1 H    1.007 --    87 C    0.966
   113   1 H    1.019 --    87 C    0.976
   114   1 H    0.964 --    88 N    0.928
   115   1 H    1.001 --    89 C    0.971
   116   1 H    1.003 --    90 C    0.974
   117   1 H    1.007 --    92 C    0.974
   118   1 H    0.999 --    93 C    0.976
   119   6 C    3.925 --   120 C    2.603    19 C    1.140
   120   6 C    3.927 --   119 C    2.603   123 C    1.141
   121   6 C    3.926 --   122 C    2.604   141 C    1.140
   122   6 C    3.925 --   121 C    2.604    78 C    1.139
   123   6 C    3.929 --   157 C    1.279   124 C    1.269   120 C    1.141
   124   6 C    3.899 --   123 C    1.269   125 C    1.245   128 N    1.182
   125   6 C    3.958 --   126 C    1.585   124 C    1.245   159 H    0.975
   126   6 C    3.959 --   125 C    1.585   127 C    1.240   160 H    0.975
   127   6 C    3.897 --   129 C    1.307   126 C    1.240   128 N    1.167
   128   7 N    3.472 --   124 C    1.182   127 C    1.167   161 H    0.874
   129   6 C    3.933 --   136 C    1.330   127 C    1.307   130 C    1.024
   130   6 C    3.988 --   131 C    1.766   135 C    1.100   129 C    1.024
   131   6 C    3.969 --   130 C    1.766   132 C    1.013   162 H    0.972
   132   6 C    3.961 --   131 C    1.013   164 H    0.975   163 H    0.967
                           133 N    0.949
   133   7 N    3.249 --   134 C    1.161   132 C    0.949   165 H    0.928
                           135 C    0.127
   134   6 C    3.958 --   135 C    1.691   133 N    1.161   166 H    0.971
   135   6 C    3.968 --   134 C    1.691   130 C    1.100   167 H    0.973
                           133 N    0.127
   136   6 C    3.920 --   129 C    1.330   139 N    1.297   137 C    1.124
   137   6 C    3.969 --   138 C    1.712   136 C    1.124   168 H    0.973
   138   6 C    3.966 --   137 C    1.712   140 C    1.127   169 H    0.974
   139   7 N    3.017 --   140 C    1.328   136 C    1.297
   140   6 C    3.922 --   139 N    1.328   141 C    1.279   138 C    1.127
   141   6 C    3.929 --   140 C    1.279   142 C    1.270   121 C    1.140
   142   6 C    3.899 --   141 C    1.270   143 C    1.245   146 N    1.182
   143   6 C    3.958 --   144 C    1.585   142 C    1.245   170 H    0.975
   144   6 C    3.959 --   143 C    1.585   145 C    1.241   171 H    0.975
   145   6 C    3.896 --   147 C    1.307   144 C    1.241   146 N    1.167
   146   7 N    3.472 --   142 C    1.182   145 C    1.167   172 H    0.874
   147   6 C    3.933 --   154 C    1.330   145 C    1.307   148 C    1.024
   148   6 C    3.988 --   149 C    1.767   153 C    1.100   147 C    1.024
   149   6 C    3.970 --   148 C    1.767   150 C    1.013   173 H    0.972
   150   6 C    3.961 --   149 C    1.013   175 H    0.975   174 H    0.967
                           151 N    0.949
   151   7 N    3.249 --   152 C    1.161   150 C    0.949   176 H    0.928
                           153 C    0.127
   152   6 C    3.958 --   153 C    1.691   151 N    1.161   177 H    0.971
   153   6 C    3.968 --   152 C    1.691   148 C    1.100   178 H    0.973
                           151 N    0.127
   154   6 C    3.920 --   147 C    1.330   158 N    1.296   155 C    1.124
   155   6 C    3.969 --   156 C    1.712   154 C    1.124   179 H    0.973
   156   6 C    3.967 --   155 C    1.712   157 C    1.127   180 H    0.974
   157   6 C    3.922 --   158 N    1.328   123 C    1.279   156 C    1.127
   158   7 N    3.017 --   157 C    1.328   154 C    1.296
   159   1 H    1.002 --   125 C    0.975
   160   1 H    1.007 --   126 C    0.975
   161   1 H    0.988 --   128 N    0.874
   162   1 H    1.003 --   131 C    0.972
   163   1 H    1.009 --   132 C    0.967
   164   1 H    1.018 --   132 C    0.975
   165   1 H    0.964 --   133 N    0.928
   166   1 H    1.002 --   134 C    0.971
   167   1 H    1.004 --   135 C    0.973
   168   1 H    1.006 --   137 C    0.973
   169   1 H    1.003 --   138 C    0.974
   170   1 H    1.002 --   143 C    0.975
   171   1 H    1.007 --   144 C    0.975
   172   1 H    0.988 --   146 N    0.874
   173   1 H    1.003 --   149 C    0.972
   174   1 H    1.009 --   150 C    0.967
   175   1 H    1.018 --   150 C    0.975
   176   1 H    0.964 --   151 N    0.928
   177   1 H    1.002 --   152 C    0.971
   178   1 H    1.004 --   153 C    0.973
   179   1 H    1.006 --   155 C    0.973
   180   1 H    1.003 --   156 C    0.974
 ---------------------------------------------------------------------------

           -------------------------------------------------
          | TOTAL ENERGY             -292.506601592991 Eh   |
          | GRADIENT NORM               0.000380381973 Eh/α |
          | HOMO-LUMO GAP               1.085101113682 eV   |
           -------------------------------------------------

 * finished run on 2022/07/27 at 13:50:56.026
