   * xtb version 6.5.1 (b24c23e) compiled by 'conda@728c89f4b128' on 2022-07-12
          program call               : xtb Cu_H_C2_2.xyz --gfn 1 --opt -T 48

   ID    Z sym.   atoms
    1   29 Cu     1, 37
    2    6 C      2-6, 8-11, 13-18, 20-24, 38-42, 44-47, 49-54, 56-60, 73, 74
    3    7 N      7, 12, 19, 25, 43, 48, 55, 61
    4    1 H      26-36, 62-72
########################################################################
[WARNING] Please study the warnings concerning your input carefully
-1- prog_main_parseArguments: Unknown option '-T' provided
########################################################################

          :  Hamiltonian                  GFN1-xTB          :
 * total energy  :  -135.0262833 Eh     change       -0.8068355E-09 Eh
 * total energy  :  -135.1016631 Eh     change       -0.7537986E-01 Eh
 * total energy  :  -135.1423430 Eh     change       -0.4067988E-01 Eh
 * total energy  :  -135.1490988 Eh     change       -0.6755808E-02 Eh
 * total energy  :  -135.1524239 Eh     change       -0.3325064E-02 Eh
 * total energy  :  -135.1538695 Eh     change       -0.1445633E-02 Eh
 * total energy  :  -135.1547699 Eh     change       -0.9003734E-03 Eh
 * total energy  :  -135.1551995 Eh     change       -0.4296308E-03 Eh
 * total energy  :  -135.1553800 Eh     change       -0.1804753E-03 Eh
 * total energy  :  -135.1554558 Eh     change       -0.7585333E-04 Eh
 * total energy  :  -135.1555758 Eh     change       -0.1868399E-04 Eh
 * total energy  :  -135.1556075 Eh     change       -0.3168613E-04 Eh
 * total energy  :  -135.1556345 Eh     change       -0.2696736E-04 Eh
 * total energy  :  -135.1556468 Eh     change       -0.1237352E-04 Eh
 * total energy  :  -135.1556681 Eh     change       -0.2124988E-04 Eh
 * total energy  :  -135.1556743 Eh     change       -0.6161974E-05 Eh
 * total energy  :  -135.1556800 Eh     change       -0.5743564E-05 Eh
 * total energy  :  -135.1556885 Eh     change       -0.8503391E-05 Eh
 * total energy  :  -135.1556930 Eh     change       -0.4513151E-05 Eh
   *** GEOMETRY OPTIMIZATION CONVERGED AFTER 22 ITERATIONS ***

 final structure:
================
74
 xtb: 6.5.1 (b24c23e)
Cu           9.06807138935015       -0.03993278012705       -0.01490966765530
C            5.64427409162291       -0.04342750668495       -0.05355509136119
C            6.28390616848286       -0.91783319097483       -0.92081725863760
C            5.62121966832554       -1.81543627999539       -1.82734423473195
C            6.58921938208336       -2.50380928426923       -2.48187396425058
C            7.85134725729243       -2.03286613717147       -1.98057723354938
N            7.63482698132365       -1.06851447835727       -1.03970517397054
C            9.09462553043324       -2.49717069188330       -2.38511700932632
C           10.32741333742293       -2.06303603878719       -1.91971487893859
C           11.59616343702419       -2.56765824748190       -2.36222563721796
C           12.55228559544893       -1.88021898567527       -1.68739961994594
N           10.52902704327978       -1.08564128620846       -0.98375828036179
C           11.87421781411438       -0.95172549681298       -0.82870356400649
C           12.51280740340166       -0.02809102677251        0.01462870122880
C           11.85355356677000        0.88757609879266        0.85068271298165
C           12.51040205664298        1.81658910461765        1.72519835917720
C           11.53814470489793        2.49333479875913        2.38758590892904
C           10.28068767600509        1.98288156786465        1.92017603758599
N           10.50506181515923        1.01107066826558        0.98367363240831
C            9.03693084641381        2.40993705023103        2.36221919695574
C            7.80415188734941        1.94418727033931        1.92827924817116
C            6.53025212796662        2.41246785357750        2.40127896093482
C            5.57848428591643        1.72550576566296        1.72191469788181
C            6.26300975206647        0.83061256346749        0.82910342438069
N            7.61073596989403        0.98232203672484        0.97977360588701
H            4.55923031456635       -0.04358633842337       -0.06618165529332
H            4.55094783919909       -1.89662819746456       -1.93637048340864
H            6.47539558832050       -3.26513555168616       -3.23777549995529
H            9.10472679837308       -3.27665925652099       -3.14016853174972
H           11.72454169405684       -3.34660484673881       -3.09734006699560
H           13.62371405505353       -1.98134246999793       -1.75886459004693
H           13.57975516638729        1.92437094581718        1.81550492233957
H           11.64848600303212        3.26891687539225        3.12914094149787
H            9.02831209503080        3.18638824572208        3.12038760805814
H            6.39796581204191        3.17162306365672        3.15634500328631
H            4.50587383563011        1.80569937935606        1.80569841610510
Cu          19.99818440354372        0.03957504466835        0.01583176077200
C           23.42198179499641        0.06815826124181       -0.01040205929833
C           22.78235089566130        1.29856003479326       -0.06371394703420
C           23.44503859462686        2.57254000209796       -0.13046722996037
C           22.47703979617807        3.52218390700276       -0.15155864869065
C           21.21491119316902        2.83649706250803       -0.09754282688674
N           21.43143026718033        1.49002681965281       -0.05029115443834
C           19.97163339461964        3.45217631450375       -0.08444282543761
C           18.73884473247407        2.81787126975912       -0.03222071302021
C           17.47009518228217        3.48892540674234       -0.02008706087311
C           16.51397207135980        2.52631870579562        0.01664695711621
N           18.53722962448344        1.46505915750727        0.00262003962697
C           17.19203870131209        1.26166505730061        0.02723184752967
C           16.55344817924694        0.01094427422205        0.02971754302009
C           17.21270077403588       -1.22898658357682        0.03217861174660
C           16.55585112659542       -2.50466682472183        0.05411593248786
C           17.52810765175265       -3.45099541168286        0.08884334094750
C           18.78556533783081       -2.75887746880202        0.08648252572396
N           18.56119227229747       -1.40982864315246        0.04748214295962
C           20.02932163534295       -3.37223159981821        0.12619078178190
C           21.26210142982422       -2.73570511461920        0.11851540287198
C           22.53600054273027       -3.40038617748554        0.15339026758657
C           23.48776937210084       -2.43507917869394        0.11297585065565
C           22.80324522086633       -1.17233073107589        0.05454578938682
N           21.45551882686343       -1.38593894011117        0.06394151221143
H           24.50702558487238        0.07677020540570       -0.01963678484478
H           24.51531056269913        2.70595975481856       -0.15650070192875
H           22.59086458487483        4.59400251159211       -0.19856356233123
H           19.96153334348207        4.53685994689619       -0.11859918382272
H           17.34171792242601        4.55979446195653       -0.03985821806969
H           15.44254365758400        2.64921459359720        0.03181068734113
H           15.48649791998397       -2.64516379042406        0.04840819672835
H           17.41776530200856       -4.52370837642586        0.11564148495678
H           20.03793913737598       -4.45676515915587        0.16469810569194
H           22.66828569927834       -4.47003667158527        0.20123898346725
H           24.56037970276788       -2.55077917953303        0.12100690860496
C           13.92560350902225       -0.01828659363763        0.02234617342223
C           15.14065206183648       -0.00150054369933        0.02883413358633

          :  Hamiltonian                  GFN1-xTB          :
         :: total energy            -135.155693016015 Eh    ::
         :: gradient norm              0.000405100905 Eh/a0 ::
         :: HOMO-LUMO gap              0.000268926682 eV    ::
         :: SCC energy              -137.159812867077 Eh    ::
         :: repulsion energy           2.068679642316 Eh    ::

    * Orbital Energies and Occupations

         #    Occupation            Energy/Eh            Energy/eV
      -------------------------------------------------------------
         1        2.0000           -0.7624692             -20.7478
       ...           ...                  ...                  ...
       114        2.0000           -0.4096521             -11.1472
       115        2.0000           -0.4096094             -11.1460
       116        2.0000           -0.4065033             -11.0615
       117        2.0000           -0.4065005             -11.0614
       118        2.0000           -0.4064765             -11.0608
       119        2.0000           -0.4064756             -11.0608
       120        2.0000           -0.4063501             -11.0573
       121        2.0000           -0.4062682             -11.0551
       122        2.0000           -0.3941293             -10.7248
       123        2.0000           -0.3939725             -10.7205
       124        2.0000           -0.3939667             -10.7204
       125        2.0000           -0.3824486             -10.4070
       126        1.0026           -0.3534288              -9.6173 (HOMO)
       127        0.9974           -0.3534190              -9.6170 (LUMO)
       128                         -0.3346712              -9.1069
       129                         -0.3260371              -8.8719
       130                         -0.3260332              -8.8718
       131                         -0.3217718              -8.7559
       132                         -0.2924693              -7.9585
       133                         -0.2857995              -7.7770
       134                         -0.2248056              -6.1173
       135                         -0.2248045              -6.1172
       136                         -0.2110929              -5.7441
       137                         -0.2065528              -5.6206
       ...                                ...                  ...
       262                          1.3459643              36.6256
      -------------------------------------------------------------
                  HL-Gap            0.0000099 Eh            0.0003 eV

Wiberg/Mayer (AO) data.
largest (>0.10) Wiberg bond orders for each atom

     #   Z sym  total        # sym  WBO       # sym  WBO       # sym  WBO
 ---------------------------------------------------------------------------
     1  29 Cu   2.190 --    25 N    0.507     7 N    0.506    12 N    0.503
                            19 N    0.503
     2   6 C    3.937 --    24 C    1.362     3 C    1.362    26 H    0.972
     3   6 C    3.917 --     2 C    1.362     7 N    1.235     4 C    1.165
     4   6 C    3.955 --     5 C    1.663     3 C    1.165    27 H    0.976
     5   6 C    3.957 --     4 C    1.663     6 C    1.166    28 H    0.976
     6   6 C    3.915 --     8 C    1.362     7 N    1.233     5 C    1.166
     7   7 N    3.248 --     3 C    1.235     6 C    1.233     1 Cu   0.506
     8   6 C    3.941 --     9 C    1.365     6 C    1.362    29 H    0.971
     9   6 C    3.910 --     8 C    1.365    12 N    1.221    10 C    1.173
    10   6 C    3.955 --    11 C    1.651     9 C    1.173    30 H    0.976
    11   6 C    3.957 --    10 C    1.651    13 C    1.180    31 H    0.973
    12   7 N    3.252 --    13 C    1.256     9 C    1.221     1 Cu   0.503
    13   6 C    3.906 --    14 C    1.273    12 N    1.256    11 C    1.180
    14   6 C    3.945 --    13 C    1.273    15 C    1.272    73 C    1.160
    15   6 C    3.906 --    14 C    1.272    19 N    1.256    16 C    1.180
    16   6 C    3.957 --    17 C    1.651    15 C    1.180    32 H    0.973
    17   6 C    3.955 --    16 C    1.651    18 C    1.172    33 H    0.976
    18   6 C    3.910 --    20 C    1.365    19 N    1.221    17 C    1.172
    19   7 N    3.252 --    15 C    1.256    18 C    1.221     1 Cu   0.503
    20   6 C    3.941 --    18 C    1.365    21 C    1.362    34 H    0.971
    21   6 C    3.915 --    20 C    1.362    25 N    1.233    22 C    1.166
    22   6 C    3.957 --    23 C    1.663    21 C    1.166    35 H    0.976
    23   6 C    3.955 --    22 C    1.663    24 C    1.166    36 H    0.976
    24   6 C    3.917 --     2 C    1.362    25 N    1.235    23 C    1.166
    25   7 N    3.248 --    24 C    1.235    21 C    1.233     1 Cu   0.507
    26   1 H    1.001 --     2 C    0.972
    27   1 H    0.998 --     4 C    0.976
    28   1 H    0.998 --     5 C    0.976
    29   1 H    1.002 --     8 C    0.971
    30   1 H    0.998 --    10 C    0.976
    31   1 H    1.003 --    11 C    0.973
    32   1 H    1.003 --    16 C    0.973
    33   1 H    0.998 --    17 C    0.976
    34   1 H    1.002 --    20 C    0.971
    35   1 H    0.998 --    22 C    0.976
    36   1 H    0.998 --    23 C    0.976
    37  29 Cu   2.190 --    61 N    0.507    43 N    0.506    48 N    0.503
                            55 N    0.503
    38   6 C    3.937 --    60 C    1.362    39 C    1.362    62 H    0.972
    39   6 C    3.917 --    38 C    1.362    43 N    1.235    40 C    1.165
    40   6 C    3.955 --    41 C    1.663    39 C    1.165    63 H    0.976
    41   6 C    3.957 --    40 C    1.663    42 C    1.166    64 H    0.976
    42   6 C    3.915 --    44 C    1.362    43 N    1.233    41 C    1.166
    43   7 N    3.248 --    39 C    1.235    42 C    1.233    37 Cu   0.506
    44   6 C    3.941 --    45 C    1.365    42 C    1.362    65 H    0.971
    45   6 C    3.910 --    44 C    1.365    48 N    1.221    46 C    1.173
    46   6 C    3.955 --    47 C    1.651    45 C    1.173    66 H    0.976
    47   6 C    3.957 --    46 C    1.651    49 C    1.180    67 H    0.973
    48   7 N    3.252 --    49 C    1.256    45 C    1.221    37 Cu   0.503
    49   6 C    3.906 --    50 C    1.273    48 N    1.256    47 C    1.180
    50   6 C    3.945 --    49 C    1.273    51 C    1.272    74 C    1.160
    51   6 C    3.906 --    50 C    1.272    55 N    1.256    52 C    1.180
    52   6 C    3.957 --    53 C    1.651    51 C    1.180    68 H    0.973
    53   6 C    3.955 --    52 C    1.651    54 C    1.172    69 H    0.976
    54   6 C    3.910 --    56 C    1.365    55 N    1.221    53 C    1.172
    55   7 N    3.252 --    51 C    1.256    54 C    1.221    37 Cu   0.503
    56   6 C    3.941 --    54 C    1.365    57 C    1.362    70 H    0.971
    57   6 C    3.915 --    56 C    1.362    61 N    1.233    58 C    1.166
    58   6 C    3.957 --    59 C    1.663    57 C    1.166    71 H    0.976
    59   6 C    3.955 --    58 C    1.663    60 C    1.166    72 H    0.976
    60   6 C    3.917 --    38 C    1.362    61 N    1.235    59 C    1.166
    61   7 N    3.248 --    60 C    1.235    57 C    1.233    37 Cu   0.507
    62   1 H    1.001 --    38 C    0.972
    63   1 H    0.998 --    40 C    0.976
    64   1 H    0.998 --    41 C    0.976
    65   1 H    1.002 --    44 C    0.971
    66   1 H    0.998 --    46 C    0.976
    67   1 H    1.003 --    47 C    0.973
    68   1 H    1.003 --    52 C    0.973
    69   1 H    0.998 --    53 C    0.976
    70   1 H    1.002 --    56 C    0.971
    71   1 H    0.998 --    58 C    0.976
    72   1 H    0.998 --    59 C    0.976
    73   6 C    3.934 --    74 C    2.594    14 C    1.160
    74   6 C    3.934 --    73 C    2.594    50 C    1.160
 ---------------------------------------------------------------------------

           -------------------------------------------------
          | TOTAL ENERGY             -135.155693016015 Eh   |
          | GRADIENT NORM               0.000405100905 Eh/α |
          | HOMO-LUMO GAP               0.000268926682 eV   |
           -------------------------------------------------

 * finished run on 2022/07/30 at 04:10:45.948
