   * xtb version 6.5.1 (b24c23e) compiled by 'conda@728c89f4b128' on 2022-07-12
          program call               : xtb Zn_m-CP_C2_3.xyz --gfn 1 --opt -T 48

   ID    Z sym.   atoms
    1   30 Zn     1, 63, 129
    2    6 C      2-6, 8-12, 15-20, 22-27, 29-35, 38-42, 64-68, 70-74, 77-82,
                  84-89, 91-97, 100-104, 125-128, 130-134, 136-140, 143-148,
                  150-155, 157-163, 166-170
    3    7 N      7, 21, 28, 43, 69, 83, 90, 105, 135, 149, 156, 171
    4    8 O      13, 14, 36, 37, 75, 76, 98, 99, 141, 142, 164, 165
    5    1 H      44-62, 106-124, 172-189
########################################################################
[WARNING] Please study the warnings concerning your input carefully
-1- prog_main_parseArguments: Unknown option '-T' provided
########################################################################

          :  Hamiltonian                  GFN1-xTB          :
 * total energy  :  -350.2398766 Eh     change       -0.6635332E-09 Eh
 * total energy  :  -350.6425490 Eh     change       -0.4026724E+00 Eh
 * total energy  :  -350.8293197 Eh     change       -0.1867707E+00 Eh
 * total energy  :  -350.9444756 Eh     change       -0.1151559E+00 Eh
 * total energy  :  -351.0134988 Eh     change       -0.6902315E-01 Eh
 * total energy  :  -351.0708353 Eh     change       -0.5733652E-01 Eh
 * total energy  :  -351.1195638 Eh     change       -0.4872852E-01 Eh
 * total energy  :  -351.1526723 Eh     change       -0.3310852E-01 Eh
 * total energy  :  -351.1768402 Eh     change       -0.2416783E-01 Eh
 * total energy  :  -351.1978232 Eh     change       -0.2098304E-01 Eh
 * total energy  :  -351.3603894 Eh     change       -0.1196379E-04 Eh
 * total energy  :  -351.3604020 Eh     change       -0.1262751E-04 Eh
 * total energy  :  -351.3604151 Eh     change       -0.1303533E-04 Eh
 * total energy  :  -351.3604316 Eh     change       -0.1655138E-04 Eh
 * total energy  :  -351.3604532 Eh     change       -0.2154301E-04 Eh
 * total energy  :  -351.3604750 Eh     change       -0.2187427E-04 Eh
 * total energy  :  -351.3604929 Eh     change       -0.1784111E-04 Eh
 * total energy  :  -351.3605066 Eh     change       -0.1368056E-04 Eh
 * total energy  :  -351.3605115 Eh     change       -0.4990432E-05 Eh
   *** GEOMETRY OPTIMIZATION CONVERGED AFTER 122 ITERATIONS ***

 final structure:
================
189
 xtb: 6.5.1 (b24c23e)
Zn          34.19145798234474        0.19942038675443       -0.55519317140898
C           30.78578345811614        0.09438520753989       -0.37245568462111
C           31.37164680185031        1.35198406655468       -0.29532498590485
C           30.65462542781846        2.59010044007589       -0.16635825136562
C           31.57851758016994        3.58209220689590       -0.12984297960859
C           32.87320080863448        2.96043376700511       -0.22648175033853
N           32.71184402524039        1.61023610283447       -0.33326556092251
C           34.09983393946312        3.63401153880609       -0.24127864907149
C           34.05931000192011        5.11237155385302       -0.10235380749543
C           33.56568352944726        5.69814515134715        1.05974653890978
C           33.52666530745245        7.08573412110628        1.19166571632540
C           32.99374649616063        7.64922573987525        2.45716545326343
O           32.98908488474531        8.99011573472515        2.48735769408739
O           32.59650984526785        6.98809924308160        3.38240565807431
C           33.98044007719269        7.89961401240013        0.15368901076815
C           34.47104135629272        7.31884605618303       -1.00519901946364
C           34.51291083210884        5.93753811211685       -1.13394646112952
C           35.35953560644637        3.03932749482744       -0.37126825503605
C           36.61322183363538        3.74046923060428       -0.34791237378932
C           37.59267565797229        2.81094635100557       -0.48547656209490
N           35.60251950229561        1.69921441704309       -0.51080564401688
C           36.95124734479261        1.53278852637415       -0.58148027309321
C           37.62620741230967        0.30495348046010       -0.73132744684381
C           37.01482234249623       -0.96150959529122       -0.82389200505536
C           37.71979091321720       -2.19808647845900       -0.99226711754557
C           36.78987900797049       -3.18536721385486       -1.03947580329017
C           35.50448747824728       -2.56271063336805       -0.88404166955083
N           35.67816683433354       -1.20981937630370       -0.76305562573831
C           34.27734539743157       -3.23489304551694       -0.88142099975450
C           34.31477315305403       -4.71351138528354       -1.01796128186605
C           34.94228926335526       -5.50061212554308       -0.04983750715012
C           34.97808102905428       -6.88252069882326       -0.17554944516596
C           34.39012345724178       -7.49602653952017       -1.26893823058101
C           33.75979103560640       -6.72064382613629       -2.24351868046698
C           33.14231391762586       -7.41459269586914       -3.40064325408764
O           32.56015828842789       -6.58347868258195       -4.27833734228639
O           33.14691706557432       -8.60874330539399       -3.55945451318802
C           33.72215836804988       -5.33342591575572       -2.11587658859770
C           33.01695821593252       -2.63830072992507       -0.75949438507144
C           31.76048250535629       -3.33887637315184       -0.71172879896967
C           30.78687923583274       -2.40543703412526       -0.56947477775728
C           31.43595356809150       -1.12505983384944       -0.51900719484523
N           32.78517984935041       -1.30003037738566       -0.63344974666344
H           29.70246864859632        0.06067940054809       -0.31065743350158
H           29.58052596124053        2.67717648329446       -0.11764902568403
H           31.40389683370582        4.64335070111333       -0.05326866074835
H           33.21944200078269        5.08075412234896        1.88144376079348
H           32.62922850274951        9.27739741622017        3.34222397181991
H           33.94744685065888        8.97744848507047        0.25668905169626
H           34.82252275550049        7.94543913855425       -1.81719335654464
H           34.88725058870560        5.49013908369293       -2.04800662310398
H           36.72892833976062        4.80599771365599       -0.23094236489255
H           38.65792299474587        2.97240551326167       -0.51909419314201
H           38.79068494274541       -2.29489689111007       -1.06549153805626
H           36.95854244897309       -4.24128589805638       -1.17656050385542
H           35.39211871045138       -5.02343867412183        0.81367236684862
H           35.46630895381234       -7.48019383033936        0.58575046315880
H           34.40970302837684       -8.57394866201660       -1.38315834090074
H           32.18260161315191       -7.11323904647578       -4.99908546571723
H           33.24376190489347       -4.73285275292971       -2.88051862368307
H           31.64389882426913       -4.40930971176076       -0.76885195388326
H           29.72160867365175       -2.55894556360518       -0.49642066403850
Zn          56.02438652254384        0.21849603186103       -0.41052365759070
C           59.42700102551296        0.12654458377390       -0.17423710680413
C           58.79155033885467       -1.08183104440721       -0.43296830712814
C           59.45799077964921       -2.33805888741799       -0.63713541706951
C           58.49515771287822       -3.26764401823020       -0.85567909911119
C           57.22651761642715       -2.59233764057217       -0.77420477981337
N           57.44245388269960       -1.26770029263931       -0.52978977637024
C           55.97152341446310       -3.19173490844539       -0.92893432173160
C           55.94075787848859       -4.65533303503005       -1.17568775819659
C           56.45204110809556       -5.55022394785120       -0.24024996221219
C           56.41650712482576       -6.92330638772247       -0.48178972553060
C           56.97108927711265       -7.82754367740337        0.55628889201223
O           56.87779976918696       -9.12776130639589        0.24005583353516
O           57.46267488153115       -7.45565791192372        1.59113932449376
C           55.87040411985235       -7.41133556716550       -1.66891934943307
C           55.36205152035535       -6.52249749038047       -2.60301179110074
C           55.39379087202573       -5.15682321815216       -2.35972119609653
C           54.73778949079444       -2.53241454884021       -0.87542141302538
C           53.45469293645879       -3.17487001151725       -0.94000960165789
C           52.51543656775179       -2.19932774443826       -0.84769368734947
N           54.55281311960767       -1.18389732003884       -0.73147077962057
C           53.21133872614180       -0.95258671763388       -0.72754724139954
C           52.58999829197769        0.30926608157861       -0.63554639560765
C           53.25909691619728        1.53881357230702       -0.46917669447247
C           52.61990416656666        2.82096158562531       -0.44296242094830
C           53.59025431723573        3.74792075163306       -0.23812830610469
C           54.83538327331297        3.03936419869984       -0.13434375919975
N           54.59955497211950        1.70062063068225       -0.29664937756414
C           56.08476130635547        3.63263015004588        0.08080565391096
C           56.10535407355796        5.10070776084339        0.30347186587379
C           55.44110193168530        5.65738060543874        1.39896019285342
C           55.45894026932830        7.02808041109120        1.61636809155761
C           56.13585627345714        7.86101164637674        0.74137793959687
C           56.80168854935102        7.31762934397530       -0.35850362469706
C           57.51136568162777        8.24402863732671       -1.27519658600400
O           58.13150181113860        7.62558779458699       -2.29136982623985
O           57.54423582406861        9.44071305307266       -1.14111066682101
C           56.78722602552251        5.94086683421706       -0.57412064693830
C           57.31422642351561        2.96447881955925        0.10633272014123
C           58.59318330623151        3.57145502845305        0.36634409592489
C           59.52529519650967        2.58919177645359        0.29000975392191
C           58.82741475659490        1.36898975981347       -0.00572672977778
N           57.49056037603104        1.62801793308957       -0.10329105355765
H           60.50941670276455        0.09718329834345       -0.09661313021412
H           60.52756271243397       -2.47723541331074       -0.62032139039929
H           58.62767842508750       -4.31760632862422       -1.06206004494837
H           56.86799919268859       -5.19072913274780        0.69459391661565
H           57.25821777627256       -9.64897568346720        0.96558802075677
H           55.84582957994948       -8.47807897896243       -1.85555604556166
H           54.93827274661231       -6.89419305733342       -3.52914553404334
H           55.00355890631801       -4.46612926598129       -3.09900251445235
H           53.29356044876581       -4.23757961726146       -1.02403715449449
H           51.44371550975879       -2.31219238893577       -0.84551232321921
H           51.56430726788453        2.98853218347068       -0.58162595516042
H           53.47619948816840        4.81842780647958       -0.17961723911904
H           54.91966488658338        5.00570848216464        2.09122730942247
H           54.94269133900761        7.44445669333903        2.47387492830242
H           56.15890040850940        8.93394526535384        0.89509547152960
H           58.56782353311638        8.29798709403509       -2.83933441517135
H           57.29403652767725        5.52336397772770       -1.43611084252921
H           58.75176392845083        4.61456461797940        0.58875807771194
H           60.59220769213859        2.67046574793522        0.42705550706375
C           39.03474274854941        0.34511425895249       -0.78751633086485
C           40.25125867641223        0.37250910276306       -0.82359646267773
C           49.96585166553881        0.36194710632073       -0.76857728985442
C           51.18212346493054        0.34127358352270       -0.71221613402406
Zn          45.10974126828961        0.39705184303554       -0.85233841284206
C           41.66057090592639        0.39244008672971       -0.85198874061497
C           42.30880183442246       -0.70311240385518       -1.45646830151558
C           41.63897601663938       -1.78704688773126       -2.11160426612293
C           42.59735497449388       -2.64338230255170       -2.54808268757451
C           43.86456162688988       -2.09129955081611       -2.15839650304195
N           43.65362045822534       -0.90331083522834       -1.51228230690690
C           45.11126019745200       -2.67068933749521       -2.41852642057497
C           45.10485685996929       -4.00085868112048       -3.07893875181438
C           44.50455226968211       -5.09056852800971       -2.45398968548329
C           44.49192763997753       -6.34179491868639       -3.06881818487449
C           43.83425650060457       -7.46241201257305       -2.35118870075530
O           43.87431992087607       -8.62446854283256       -3.01945618348076
O           43.30659350566774       -7.36336616875882       -1.27286844155805
C           45.08222624122524       -6.51069656198544       -4.32133956252660
C           45.67937619029342       -5.42738791093743       -4.94654420458433
C           45.69274479490214       -4.18249011355842       -4.33283578941942
C           46.35772738229252       -2.11808583812267       -2.10548526501885
C           47.62705861294868       -2.74385369965834       -2.34766323658620
C           48.58363333251653       -1.88893696740531       -1.90388275194093
N           46.56660182162322       -0.90457573031429       -1.50657939247316
C           47.91103930293536       -0.74090957461196       -1.37268255924538
C           48.55655536121549        0.37965026025978       -0.81143080689335
C           47.90847082254558        1.51513139083237       -0.28411181523389
C           48.57992126217240        2.66186442504177        0.25140504739003
C           47.62195345977489        3.53515603207941        0.65393538513992
C           46.35224229737968        2.92082397557818        0.38536545782502
N           46.56292923823145        1.69797643446886       -0.19427526128268
C           45.10463690726534        3.48738640637287        0.66599325838633
C           45.09699298829029        4.82997580761372        1.30163565757238
C           44.52198642471109        5.91571518226050        0.63693467139912
C           44.51299194784375        7.17696500227283        1.21596058334637
C           45.07461430248215        7.36998975498721        2.46689816471128
C           45.64858948679061        6.29247686789182        3.14339202492686
C           46.23722354400964        6.54118425130487        4.48299904262497
O           46.75505522961533        5.44434300872852        5.05520934876465
O           46.26075995789972        7.61635170705921        5.02561474688869
C           45.65977576041225        5.02651058399404        2.56065364537297
C           43.85861060119557        2.90741054094812        0.40313011685383
C           42.59057546550755        3.46397310120852        0.78296664038222
C           41.63386733242457        2.59447504491889        0.36853754181002
C           42.30552960894079        1.50103744584625       -0.26851718046690
N           43.64975501236048        1.70931390511264       -0.22436051313254
H           40.57153158528391       -1.86998306233054       -2.23544010981790
H           42.45951817512310       -3.55995733891848       -3.09852988705867
H           44.05115834575570       -4.98023207858525       -1.47493111967824
H           43.42432187956678       -9.30100459453654       -2.48776415777596
H           45.07017897546377       -7.48286095868251       -4.79901995590359
H           46.13655582908695       -5.55068967917550       -5.92186820433871
H           46.14887748099849       -3.33662941269720       -4.83502753457672
H           47.76860835791718       -3.71653942792046       -2.79057548876895
H           49.65277085396868       -2.02084284729527       -1.93346522565779
H           49.64933181589960        2.78176849891234        0.30859164979506
H           47.76317205071412        4.51143188848726        1.08876840454410
H           44.09197586905214        5.76812029986746       -0.34752780247389
H           44.06688747581068        8.01039188187117        0.68530176066858
H           45.07685249190831        8.34824190864695        2.93417664359779
H           47.11467395623324        5.69057810012577        5.92286962433662
H           46.09386561407246        4.18951009446782        3.09462862202296
H           42.45148707393772        4.39113200223239        1.31527424297850
H           40.56631323081044        2.67681946546320        0.49237530707131

          :  Hamiltonian                  GFN1-xTB          :
         :: total energy            -351.360511556703 Eh    ::
         :: gradient norm              0.000613618585 Eh/a0 ::
         :: HOMO-LUMO gap              0.925451667105 eV    ::
         :: SCC energy              -356.385010121544 Eh    ::
         :: repulsion energy           5.199402318908 Eh    ::

    * Orbital Energies and Occupations

         #    Occupation            Energy/Eh            Energy/eV
      -------------------------------------------------------------
         1        2.0000           -0.8332133             -22.6729
       ...           ...                  ...                  ...
       297        2.0000           -0.4266060             -11.6085
       298        2.0000           -0.4264564             -11.6045
       299        2.0000           -0.4262290             -11.5983
       300        2.0000           -0.4259592             -11.5909
       301        2.0000           -0.4258766             -11.5887
       302        2.0000           -0.4256725             -11.5831
       303        2.0000           -0.4238602             -11.5338
       304        2.0000           -0.3999698             -10.8837
       305        2.0000           -0.3988717             -10.8539
       306        2.0000           -0.3984839             -10.8433
       307        2.0000           -0.3984324             -10.8419
       308        2.0000           -0.3891251             -10.5886
       309        2.0000           -0.3793229             -10.3219 (HOMO)
       310                         -0.3453132              -9.3965 (LUMO)
       311                         -0.3336491              -9.0791
       312                         -0.3333708              -9.0715
       313                         -0.3325464              -9.0490
       314                         -0.3319331              -9.0324
       315                         -0.3230440              -8.7905
       316                         -0.3113493              -8.4722
       317                         -0.3105822              -8.4514
       318                         -0.3102425              -8.4421
       319                         -0.3099715              -8.4348
       320                         -0.3093849              -8.4188
       ...                                ...                  ...
       644                          1.3339701              36.2992
      -------------------------------------------------------------
                  HL-Gap            0.0340097 Eh            0.9255 eV

Wiberg/Mayer (AO) data.
largest (>0.10) Wiberg bond orders for each atom

     #   Z sym  total        # sym  WBO       # sym  WBO       # sym  WBO
 ---------------------------------------------------------------------------
     1  30 Zn   1.995 --     7 N    0.460    43 N    0.459    28 N    0.456
                            21 N    0.455
     2   6 C    3.928 --     3 C    1.358    42 C    1.357    44 H    0.971
     3   6 C    3.921 --     2 C    1.358     7 N    1.233     4 C    1.169
     4   6 C    3.961 --     5 C    1.661     3 C    1.169    45 H    0.975
     5   6 C    3.963 --     4 C    1.661     6 C    1.170    46 H    0.973
     6   6 C    3.919 --     8 C    1.317     7 N    1.244     5 C    1.170
     7   7 N    3.294 --     6 C    1.244     3 C    1.233     1 Zn   0.460
     8   6 C    3.932 --    18 C    1.322     6 C    1.317     9 C    1.025
     9   6 C    3.988 --    10 C    1.409    17 C    1.389     8 C    1.025
                            15 C    0.103
    10   6 C    3.984 --     9 C    1.409    11 C    1.396    47 H    0.968
                            16 C    0.104
    11   6 C    3.988 --    10 C    1.396    15 C    1.391    12 C    1.006
    12   6 C    3.836 --    14 O    1.692    13 O    1.089    11 C    1.006
    13   8 O    2.098 --    12 C    1.089    48 H    0.838    14 O    0.129
    14   8 O    1.961 --    12 C    1.692    13 O    0.129
    15   6 C    3.987 --    16 C    1.448    11 C    1.391    49 H    0.971
                             9 C    0.103
    16   6 C    3.994 --    15 C    1.448    17 C    1.441    50 H    0.973
                            10 C    0.104
    17   6 C    3.987 --    16 C    1.441     9 C    1.389    51 H    0.973
    18   6 C    3.914 --     8 C    1.322    21 N    1.227    19 C    1.179
    19   6 C    3.959 --    20 C    1.645    18 C    1.179    52 H    0.973
    20   6 C    3.962 --    19 C    1.645    22 C    1.186    53 H    0.969
    21   7 N    3.296 --    22 C    1.261    18 C    1.227     1 Zn   0.455
    22   6 C    3.907 --    21 N    1.261    23 C    1.259    20 C    1.186
    23   6 C    3.940 --    22 C    1.259    24 C    1.259   125 C    1.178
    24   6 C    3.906 --    28 N    1.261    23 C    1.259    25 C    1.186
    25   6 C    3.962 --    26 C    1.646    24 C    1.186    54 H    0.969
    26   6 C    3.960 --    25 C    1.646    27 C    1.178    55 H    0.973
    27   6 C    3.914 --    29 C    1.323    28 N    1.227    26 C    1.178
    28   7 N    3.297 --    24 C    1.261    27 C    1.227     1 Zn   0.456
    29   6 C    3.932 --    27 C    1.323    39 C    1.316    30 C    1.026
    30   6 C    3.988 --    38 C    1.407    31 C    1.389    29 C    1.026
                            33 C    0.102
    31   6 C    3.987 --    32 C    1.439    30 C    1.389    56 H    0.973
    32   6 C    3.994 --    33 C    1.451    31 C    1.439    57 H    0.972
                            38 C    0.104
    33   6 C    3.986 --    32 C    1.451    34 C    1.387    58 H    0.969
                            30 C    0.102
    34   6 C    3.988 --    38 C    1.399    33 C    1.387    35 C    1.006
    35   6 C    3.835 --    37 O    1.691    36 O    1.088    34 C    1.006
    36   8 O    2.097 --    35 C    1.088    59 H    0.839    37 O    0.129
    37   8 O    1.960 --    35 C    1.691    36 O    0.129
    38   6 C    3.985 --    30 C    1.407    34 C    1.399    60 H    0.969
                            32 C    0.104
    39   6 C    3.919 --    29 C    1.316    43 N    1.244    40 C    1.171
    40   6 C    3.963 --    41 C    1.660    39 C    1.171    61 H    0.973
    41   6 C    3.960 --    40 C    1.660    42 C    1.170    62 H    0.975
    42   6 C    3.921 --     2 C    1.357    43 N    1.233    41 C    1.170
    43   7 N    3.294 --    39 C    1.244    42 C    1.233     1 Zn   0.459
    44   1 H    1.001 --     2 C    0.971
    45   1 H    0.998 --     4 C    0.975
    46   1 H    1.004 --     5 C    0.973
    47   1 H    1.007 --    10 C    0.968
    48   1 H    0.873 --    13 O    0.838
    49   1 H    1.005 --    15 C    0.971
    50   1 H    1.002 --    16 C    0.973
    51   1 H    1.005 --    17 C    0.973
    52   1 H    1.004 --    19 C    0.973
    53   1 H    1.006 --    20 C    0.969
    54   1 H    1.006 --    25 C    0.969
    55   1 H    1.004 --    26 C    0.973
    56   1 H    1.005 --    31 C    0.973
    57   1 H    1.002 --    32 C    0.972
    58   1 H    1.005 --    33 C    0.969
    59   1 H    0.874 --    36 O    0.839
    60   1 H    1.008 --    38 C    0.969
    61   1 H    1.004 --    40 C    0.973
    62   1 H    0.998 --    41 C    0.975
    63  30 Zn   1.995 --    69 N    0.460   105 N    0.460    83 N    0.455
                            90 N    0.455
    64   6 C    3.928 --    65 C    1.358   104 C    1.357   106 H    0.971
    65   6 C    3.921 --    64 C    1.358    69 N    1.233    66 C    1.169
    66   6 C    3.961 --    67 C    1.661    65 C    1.169   107 H    0.975
    67   6 C    3.963 --    66 C    1.661    68 C    1.170   108 H    0.973
    68   6 C    3.919 --    70 C    1.317    69 N    1.243    67 C    1.170
    69   7 N    3.293 --    68 C    1.243    65 C    1.233    63 Zn   0.460
    70   6 C    3.931 --    80 C    1.319    68 C    1.317    71 C    1.028
    71   6 C    3.988 --    72 C    1.409    79 C    1.386    70 C    1.028
                            77 C    0.102
    72   6 C    3.984 --    71 C    1.409    73 C    1.396   109 H    0.968
                            78 C    0.103
    73   6 C    3.988 --    72 C    1.396    77 C    1.391    74 C    1.006
    74   6 C    3.836 --    76 O    1.692    75 O    1.089    73 C    1.006
    75   8 O    2.098 --    74 C    1.089   110 H    0.838    76 O    0.129
    76   8 O    1.961 --    74 C    1.692    75 O    0.129
    77   6 C    3.987 --    78 C    1.448    73 C    1.391   111 H    0.971
                            71 C    0.102
    78   6 C    3.994 --    77 C    1.448    79 C    1.442   112 H    0.973
                            72 C    0.103
    79   6 C    3.987 --    78 C    1.442    71 C    1.386   113 H    0.973
    80   6 C    3.914 --    70 C    1.319    83 N    1.229    81 C    1.180
    81   6 C    3.959 --    82 C    1.644    80 C    1.180   114 H    0.973
    82   6 C    3.962 --    81 C    1.644    84 C    1.187   115 H    0.968
    83   7 N    3.296 --    84 C    1.259    80 C    1.229    63 Zn   0.455
    84   6 C    3.906 --    83 N    1.259    85 C    1.258    82 C    1.187
    85   6 C    3.939 --    84 C    1.258    86 C    1.258   128 C    1.180
    86   6 C    3.906 --    90 N    1.260    85 C    1.258    87 C    1.188
    87   6 C    3.962 --    88 C    1.644    86 C    1.188   116 H    0.968
    88   6 C    3.959 --    87 C    1.644    89 C    1.180   117 H    0.973
    89   6 C    3.914 --    91 C    1.320    90 N    1.228    88 C    1.180
    90   7 N    3.296 --    86 C    1.260    89 C    1.228    63 Zn   0.455
    91   6 C    3.931 --    89 C    1.320   101 C    1.317    92 C    1.027
    92   6 C    3.988 --   100 C    1.406    93 C    1.388    91 C    1.027
                            95 C    0.102
    93   6 C    3.987 --    94 C    1.440    92 C    1.388   118 H    0.973
    94   6 C    3.994 --    95 C    1.450    93 C    1.440   119 H    0.972
                           100 C    0.104
    95   6 C    3.985 --    94 C    1.450    96 C    1.387   120 H    0.969
                            92 C    0.102
    96   6 C    3.988 --   100 C    1.399    95 C    1.387    97 C    1.006
    97   6 C    3.835 --    99 O    1.692    98 O    1.089    96 C    1.006
    98   8 O    2.098 --    97 C    1.089   121 H    0.839    99 O    0.129
    99   8 O    1.960 --    97 C    1.692    98 O    0.129
   100   6 C    3.985 --    92 C    1.406    96 C    1.399   122 H    0.969
                            94 C    0.104
   101   6 C    3.919 --    91 C    1.317   105 N    1.243   102 C    1.171
   102   6 C    3.963 --   103 C    1.660   101 C    1.171   123 H    0.973
   103   6 C    3.960 --   102 C    1.660   104 C    1.170   124 H    0.975
   104   6 C    3.921 --    64 C    1.357   105 N    1.234   103 C    1.170
   105   7 N    3.293 --   101 C    1.243   104 C    1.234    63 Zn   0.460
   106   1 H    1.001 --    64 C    0.971
   107   1 H    0.998 --    66 C    0.975
   108   1 H    1.004 --    67 C    0.973
   109   1 H    1.007 --    72 C    0.968
   110   1 H    0.873 --    75 O    0.838
   111   1 H    1.005 --    77 C    0.971
   112   1 H    1.002 --    78 C    0.973
   113   1 H    1.005 --    79 C    0.973
   114   1 H    1.004 --    81 C    0.973
   115   1 H    1.006 --    82 C    0.968
   116   1 H    1.006 --    87 C    0.968
   117   1 H    1.004 --    88 C    0.973
   118   1 H    1.005 --    93 C    0.973
   119   1 H    1.002 --    94 C    0.972
   120   1 H    1.005 --    95 C    0.969
   121   1 H    0.874 --    98 O    0.839
   122   1 H    1.008 --   100 C    0.969
   123   1 H    1.004 --   102 C    0.973
   124   1 H    0.998 --   103 C    0.975
   125   6 C    3.931 --   126 C    2.575    23 C    1.178
   126   6 C    3.934 --   125 C    2.575   130 C    1.180
   127   6 C    3.934 --   128 C    2.574   151 C    1.181
   128   6 C    3.931 --   127 C    2.574    85 C    1.180
   129  30 Zn   1.992 --   156 N    0.457   149 N    0.456   135 N    0.456
                           171 N    0.455
   130   6 C    3.928 --   170 C    1.257   131 C    1.257   126 C    1.180
   131   6 C    3.907 --   135 N    1.261   130 C    1.257   132 C    1.188
   132   6 C    3.961 --   133 C    1.643   131 C    1.188   172 H    0.969
   133   6 C    3.960 --   132 C    1.643   134 C    1.180   173 H    0.973
   134   6 C    3.912 --   136 C    1.319   135 N    1.227   133 C    1.180
   135   7 N    3.291 --   131 C    1.261   134 C    1.227   129 Zn   0.456
   136   6 C    3.927 --   146 C    1.320   134 C    1.319   137 C    1.027
   137   6 C    3.988 --   138 C    1.407   145 C    1.388   136 C    1.027
                           143 C    0.102
   138   6 C    3.984 --   137 C    1.407   139 C    1.397   174 H    0.968
                           144 C    0.104
   139   6 C    3.988 --   138 C    1.397   143 C    1.390   140 C    1.005
   140   6 C    3.836 --   142 O    1.692   141 O    1.090   139 C    1.005
   141   8 O    2.098 --   140 C    1.090   175 H    0.838   142 O    0.129
   142   8 O    1.961 --   140 C    1.692   141 O    0.129
   143   6 C    3.987 --   144 C    1.449   139 C    1.390   176 H    0.971
                           137 C    0.102
   144   6 C    3.994 --   143 C    1.449   145 C    1.440   177 H    0.973
                           138 C    0.104
   145   6 C    3.987 --   144 C    1.440   137 C    1.388   178 H    0.973
   146   6 C    3.913 --   136 C    1.320   149 N    1.226   147 C    1.181
   147   6 C    3.960 --   148 C    1.642   146 C    1.181   179 H    0.973
   148   6 C    3.960 --   147 C    1.642   150 C    1.188   180 H    0.968
   149   7 N    3.291 --   150 C    1.261   146 C    1.226   129 Zn   0.456
   150   6 C    3.907 --   149 N    1.261   151 C    1.257   148 C    1.188
   151   6 C    3.929 --   150 C    1.257   152 C    1.256   127 C    1.181
   152   6 C    3.907 --   156 N    1.261   151 C    1.256   153 C    1.188
   153   6 C    3.960 --   154 C    1.643   152 C    1.188   181 H    0.968
   154   6 C    3.960 --   153 C    1.643   155 C    1.181   182 H    0.973
   155   6 C    3.912 --   157 C    1.321   156 N    1.225   154 C    1.181
   156   7 N    3.291 --   152 C    1.261   155 C    1.225   129 Zn   0.457
   157   6 C    3.927 --   155 C    1.321   167 C    1.318   158 C    1.026
   158   6 C    3.988 --   166 C    1.407   159 C    1.389   157 C    1.026
                           161 C    0.103
   159   6 C    3.987 --   160 C    1.440   158 C    1.389   183 H    0.973
                           162 C    0.100
   160   6 C    3.994 --   161 C    1.450   159 C    1.440   184 H    0.972
                           166 C    0.104
   161   6 C    3.986 --   160 C    1.450   162 C    1.388   185 H    0.969
                           158 C    0.103
   162   6 C    3.988 --   166 C    1.399   161 C    1.388   163 C    1.006
                           159 C    0.100
   163   6 C    3.836 --   165 O    1.692   164 O    1.089   162 C    1.006
   164   8 O    2.098 --   163 C    1.089   186 H    0.838   165 O    0.129
   165   8 O    1.960 --   163 C    1.692   164 O    0.129
   166   6 C    3.985 --   158 C    1.407   162 C    1.399   187 H    0.969
                           160 C    0.104
   167   6 C    3.913 --   157 C    1.318   171 N    1.228   168 C    1.181
   168   6 C    3.960 --   169 C    1.642   167 C    1.181   188 H    0.973
   169   6 C    3.961 --   168 C    1.642   170 C    1.188   189 H    0.969
   170   6 C    3.907 --   171 N    1.260   130 C    1.257   169 C    1.188
   171   7 N    3.290 --   170 C    1.260   167 C    1.228   129 Zn   0.455
   172   1 H    1.006 --   132 C    0.969
   173   1 H    1.004 --   133 C    0.973
   174   1 H    1.007 --   138 C    0.968
   175   1 H    0.873 --   141 O    0.838
   176   1 H    1.005 --   143 C    0.971
   177   1 H    1.002 --   144 C    0.973
   178   1 H    1.005 --   145 C    0.973
   179   1 H    1.004 --   147 C    0.973
   180   1 H    1.007 --   148 C    0.968
   181   1 H    1.007 --   153 C    0.968
   182   1 H    1.004 --   154 C    0.973
   183   1 H    1.005 --   159 C    0.973
   184   1 H    1.002 --   160 C    0.972
   185   1 H    1.005 --   161 C    0.969
   186   1 H    0.873 --   164 O    0.838
   187   1 H    1.008 --   166 C    0.969
   188   1 H    1.004 --   168 C    0.973
   189   1 H    1.006 --   169 C    0.969
 ---------------------------------------------------------------------------

           -------------------------------------------------
          | TOTAL ENERGY             -351.360511556703 Eh   |
          | GRADIENT NORM               0.000613618585 Eh/α |
          | HOMO-LUMO GAP               0.925451667105 eV   |
           -------------------------------------------------

 * finished run on 2022/07/30 at 10:06:24.979
