   * xtb version 6.5.1 (b24c23e) compiled by 'conda@728c89f4b128' on 2022-07-12
          program call               : xtb Cu_Ph3OH_C6_3.xyz --gfn 1 --opt -T 48

   ID    Z sym.   atoms
    1   29 Cu     1, 63, 137
    2    6 C      2-6, 8-11, 13, 15, 17-20, 22-27, 29-32, 34, 36, 38-42,
                  64-68, 70-73, 75, 77, 79-82, 84-89, 91-94, 96, 98, 100-104,
                  125-136, 138-142, 144-147, 149, 151, 153-156, 158-163,
                  165-168, 170, 172, 174-178
    3    7 N      7, 21, 28, 43, 69, 83, 90, 105, 143, 157, 164, 179
    4    8 O      12, 14, 16, 33, 35, 37, 74, 76, 78, 95, 97, 99, 148, 150,
                  152, 169, 171, 173
    5    1 H      44-62, 106-124, 180-197

          :  Hamiltonian                  GFN1-xTB          :
 * total energy  :  -394.0057584 Eh     change        0.5507900E-08 Eh
 * total energy  :  -394.1648080 Eh     change       -0.1590496E+00 Eh
 * total energy  :  -394.2574355 Eh     change       -0.9262753E-01 Eh
 * total energy  :  -394.2960079 Eh     change       -0.3857233E-01 Eh
 * total energy  :  -394.3292982 Eh     change       -0.3329030E-01 Eh
 * total energy  :  -394.3673265 Eh     change       -0.3802835E-01 Eh
 * total energy  :  -394.4089954 Eh     change       -0.4166885E-01 Eh
 * total energy  :  -394.4440049 Eh     change       -0.3500953E-01 Eh
 * total energy  :  -394.4690447 Eh     change       -0.2503983E-01 Eh
 * total energy  :  -394.4937357 Eh     change       -0.2469093E-01 Eh
 * total energy  :  -394.7169517 Eh     change       -0.3458021E-04 Eh
 * total energy  :  -394.7169798 Eh     change       -0.2802968E-04 Eh
 * total energy  :  -394.7169882 Eh     change       -0.8447594E-05 Eh
 * total energy  :  -394.7169994 Eh     change       -0.1118222E-04 Eh
 * total energy  :  -394.7170048 Eh     change       -0.5384358E-05 Eh
 * total energy  :  -394.7170104 Eh     change       -0.5582607E-05 Eh
 * total energy  :  -394.7170166 Eh     change       -0.6265196E-05 Eh
 * total energy  :  -394.7170217 Eh     change       -0.5048028E-05 Eh
 * total energy  :  -394.7170256 Eh     change       -0.3928183E-05 Eh
   *** GEOMETRY OPTIMIZATION CONVERGED AFTER 90 ITERATIONS ***

 final structure:
================
197
 xtb: 6.5.1 (b24c23e)
Cu          30.68991380679812        0.01345194719771       -0.06379324159269
C           27.28638194293061        0.05121254026372       -0.18139773186327
C           27.92234825181039        1.28265892023179       -0.13722964386946
C           27.24764165420417        2.54867544925250       -0.10103161126065
C           28.20632947804257        3.50546028904094       -0.03767540828390
C           29.47703714643759        2.83254790704769       -0.04492563847350
N           29.27287524462407        1.48354096740517       -0.09911452108901
C           30.72122037522909        3.46359792062327        0.02333936573505
C           30.73707339020938        4.94862386846733        0.07211950926566
C           30.24278061365928        5.69181819579572       -0.99955567231072
C           30.26506176649004        7.08100730840333       -0.95329303028489
O           29.79572355018968        7.81363448423247       -1.99281343052865
C           30.77491863046614        7.73135690074520        0.17151277614882
O           30.78130849310942        9.10168923418455        0.18991745901796
C           31.26373978437670        6.98879949417690        1.24322154175811
O           31.74355454495502        7.69681334131598        2.31390850445774
C           31.25091216489798        5.60026385426169        1.19632105060284
C           31.95274987869034        2.80640365301602        0.04986685199762
C           33.23147899133775        3.45856909768100        0.06245783296086
C           34.17619208657930        2.48402513869997        0.06478908021137
N           32.13976861226457        1.44908356399603        0.03446416206635
C           33.48288204467086        1.23132910229375        0.04726793941361
C           34.11742292044651       -0.02358902551802        0.02982813460145
C           33.45761960556663       -1.26454705581158       -0.01157676879157
C           34.12569629895142       -2.53040780112572       -0.05467867557367
C           33.16187621042279       -3.48461410032329       -0.09936044219745
C           31.89619567209417       -2.80729703807392       -0.07635075797553
N           32.11024577994510       -1.45450232913973       -0.03063660962195
C           30.65141163457009       -3.43750491616768       -0.12621797876698
C           30.63595282553805       -4.92281123590794       -0.15213935589463
C           31.15531317205772       -5.64802270959043        0.92026572961706
C           31.14045466219254       -7.03775741680078        0.89495287804685
O           31.63665985639528       -7.75219593216280        1.93452655801345
C           30.61096807263358       -7.70740810293737       -0.20931541501244
O           30.61396425889942       -9.07792739990020       -0.20878271041665
C           30.09473186873209       -6.98320471448032       -1.28064903335684
O           29.59555539301024       -7.70963474879488       -2.33029270830311
C           30.10156418083704       -5.59404767141941       -1.25513162818620
C           29.41981907423169       -2.77830855146553       -0.15726105371461
C           28.13535262335844       -3.42425494727705       -0.16488139957487
C           27.19630265479032       -2.44591741293254       -0.18708547549340
C           27.89708774398112       -1.19403940476461       -0.18225651063090
N           29.24322223320764       -1.42441410724414       -0.15999890745433
H           26.20148436873505        0.06262724298250       -0.20437385648568
H           26.17637293055873        2.67423732201060       -0.11536445790877
H           28.07236610596743        4.57370095064591        0.01908093941199
H           29.85756182457880        5.19778033779267       -1.88214007884125
H           29.90031749347479        8.75430929091728       -1.77406807840497
H           31.16528976906452        9.38700844121632        1.03434078145703
H           32.05925799687794        7.10116334424742        3.00606121383717
H           31.62257596320720        5.02825358717145        2.03840496318773
H           33.38370010004564        4.52578914999144        0.05488561223304
H           35.24882248861751        2.59431198065419        0.07097807146894
H           35.19591879785977       -2.66189721156561       -0.05615523191645
H           33.29276221057711       -4.55306260640398       -0.15542719202045
H           31.55667781346823       -5.13902143257844        1.78704506320123
H           31.53875158732130       -8.69663811268094        1.72929946999815
H           30.21603579465884       -9.37751443400218       -1.04161349606949
H           29.26179402787657       -7.12585142579770       -3.02397884016674
H           29.71096579092561       -5.03714610833739       -2.09881421667331
H           27.97830723230321       -4.49073738484931       -0.14217780536966
H           26.12255283721807       -2.54885484744752       -0.19707133152796
Cu          62.76531608111102       -0.04306109680530       -0.05096053551513
C           66.16840495746291       -0.06908034081905       -0.18477443652359
C           65.53126697417447       -1.29724433465948       -0.27650616900796
C           66.20480691343188       -2.55971673319258       -0.38443831254414
C           65.24537574722351       -3.51695254550163       -0.42639345219833
C           63.97538238051869       -2.84667627107817       -0.35483311470780
N           64.18057329912274       -1.50015004813732       -0.25747525715510
C           62.73089652819009       -3.48057363451925       -0.35572622766449
C           62.71332491465783       -4.96167641378313       -0.47381411579264
C           63.20379402297294       -5.58100123799261       -1.62314830275353
C           63.17941051100593       -6.96665283211400       -1.73239992608931
O           63.64494072953387       -7.57905784338174       -2.84856502924683
C           62.67156378666909       -7.73799000141049       -0.68585067705333
O           62.66327046700231       -9.10186101496261       -0.82046290827025
C           62.18663723859392       -7.11926359450689        0.46345039032680
O           61.70858730462479       -7.94186583331059        1.44986445102987
C           62.20130664694628       -5.73422752078150        0.57191435173222
C           61.50019482273244       -2.82951124145648       -0.25294709785148
C           60.22094816801966       -3.47786114530718       -0.31306363862983
C           59.27715386432497       -2.50924682259370       -0.19804613395272
N           61.31459092436139       -1.47912663394600       -0.11284855540739
C           59.97159192306532       -1.26340447749512       -0.07295890666488
C           59.33811515107499       -0.01462640075417        0.05637060813166
C           59.99922866808446        1.22201229026196        0.15835312736443
C           59.33255829896447        2.48460271495077        0.26742589346966
C           60.29735815311899        3.43673526536321        0.33069410035285
C           61.56215252449561        2.76051521091890        0.26727446624022
N           61.34680441657665        1.41173100335340        0.15543085411909
C           62.80710400788570        3.39176025432139        0.28334270359898
C           62.82342566970722        4.87009314956945        0.43074894119973
C           62.31891008285226        5.46363250320301        1.58779027864169
C           62.33409282137183        6.84673858737892        1.72562036679642
O           61.85284914215710        7.43340572173270        2.84867400451005
C           62.84824000120519        7.64194850930233        0.70013933340436
O           62.84542065556402        9.00276876038442        0.86159184729399
C           63.34911735109039        7.04910636204631       -0.45589711863208
O           63.83321387897391        7.89428063106080       -1.42010832300213
C           63.34282608081286        5.66643346528675       -0.59319137583615
C           64.03757118703780        2.74015748961467        0.16877247368765
C           65.32237449432550        3.38272512973564        0.22572668141716
C           66.26046323791311        2.41294177854409        0.08814658130705
C           65.55871375066285        1.16855925484788       -0.04348085126833
N           64.21283375688908        1.39508659719166        0.01209841741394
H           67.25317728892529       -0.07839590519936       -0.21318370385278
H           67.27591015786574       -2.68356984668933       -0.41548776649367
H           65.37837942068064       -4.58490398155231       -0.49042616960240
H           63.58757180673211       -4.99189198794772       -2.44602451602463
H           63.53888156491192       -8.53813369842858       -2.73641807774388
H           62.28095240094842       -9.47906496692807       -0.01210667798973
H           61.39462094914217       -7.42655504075097        2.20447553577621
H           61.83235469171805       -5.25936523898389        1.47350631871354
H           60.06781740994273       -4.53709658309522       -0.44240644975092
H           58.20443236644854       -2.61857033001631       -0.20294655569013
H           58.26250784276883        2.61598908338103        0.28669968144944
H           60.16788795060078        4.50445706130241        0.40179051889563
H           61.92879558459564        4.85572262223371        2.39384951642801
H           61.94631017391244        8.39569908995123        2.75404921439516
H           63.22949622601944        9.39913619409859        0.06342532282621
H           64.15484016486833        7.39661808842088       -2.18318833933832
H           63.72180990976803        5.21267775659912       -1.50145571612397
H           65.48003698351746        4.44003087358680        0.36645444344977
H           67.33422087801702        2.51611043994660        0.08321155688428
C           39.31971466385055       -0.04948536914504        0.05137105742656
C           38.09138345607445       -0.04873331274231        0.05359781499464
C           36.74686257582274       -0.04324467902735        0.04967903591250
C           35.52307123463871       -0.03692871718189        0.04265247230156
C           40.66407303477364       -0.04774064717128        0.04574124405654
C           41.88806118412245       -0.04222131511218        0.03641921640107
C           55.36431777842321        0.01108523151069        0.08343013023996
C           54.13600788375010        0.01349609590172        0.08058600399072
C           52.79169472542917        0.01217803535857        0.07352645232626
C           51.56777284827375        0.00824374480826        0.06113775783570
C           56.70879433383585        0.00547179110193        0.07966710149785
C           57.93255507936755       -0.00177743415073        0.07272835964987
Cu          46.72820699767134       -0.01484462044466        0.01690887134756
C           43.29296393727747       -0.03470137171602        0.02621183988087
C           43.93521011853637        1.21214775998447        0.13869724493131
C           43.25120596446986        2.45799254349905        0.30905821153177
C           44.20173380261778        3.42603044325049        0.36283129434405
C           45.47301194564242        2.77633721532401        0.21833069406276
N           45.27770677432859        1.42657904479222        0.09100244344186
C           46.70950225425938        3.42628760449848        0.22845956650523
C           46.69987714367785        4.90843250921257        0.30786713621577
C           47.29912292588693        5.56140740337612        1.38548053643774
C           47.29506620298056        6.95086848500712        1.47364030871356
O           47.86693041888662        7.59691244977667        2.52331456719566
C           46.69157628100553        7.70817945418972        0.46453899342175
O           46.67609209244886        9.06559483081534        0.51823855687817
C           46.09711403321707        7.04698109951435       -0.61346970957387
O           45.52750413031102        7.84746852765713       -1.57027008771163
C           46.09109335481771        5.66176391429378       -0.69764543038250
C           47.95339888054757        2.79362433466384        0.17031904527467
C           49.21879875052801        3.46861284103452        0.11882805100322
C           50.17975608189630        2.51063359666996        0.07395746356744
N           48.16278397936236        1.44015594892979        0.13960525577231
C           49.50804969740804        1.24657043973009        0.08503410113788
C           50.16294470005931        0.00190645988417        0.04639193410302
C           49.52088325499010       -1.24803897218405       -0.01409807891680
C           50.20445449148684       -2.50620346240925       -0.01637869810345
C           49.25419055769663       -3.47157337895859       -0.10219411330637
C           47.98319413944933       -2.80717674540625       -0.15894467038912
N           48.17846891327640       -1.45303623635974       -0.09531899497226
C           46.74702643685638       -3.45087401693967       -0.24490780990465
C           46.75679240375256       -4.93112622454471       -0.37151377941669
C           47.35868276413462       -5.52972332125196       -1.47902030315890
C           47.35595831483374       -6.91372294978495       -1.60617145059187
O           47.92165991661795       -7.50752009762422       -2.68355422421978
C           46.75745430976691       -7.70070046517348       -0.61999802817560
O           46.78255433862595       -9.07859731251018       -0.78315816887181
C           46.18917505107355       -7.10560564778634        0.50442302106522
O           45.63316481214349       -7.87157852585943        1.48700384069581
C           46.17226917710741       -5.71991182969254        0.61940073587992
C           45.50321176541268       -2.81675011569618       -0.22091988438681
C           44.23820553200030       -3.47966268039254       -0.36334188057964
C           43.27691731251678       -2.52479047301487       -0.28186886767159
C           43.94793336727755       -1.27286970602157       -0.10146460381702
N           45.29333288336083       -1.47153861600728       -0.07110148723336
H           42.18128363616686        2.56811238436961        0.38556434877437
H           44.05798759318970        4.48498131382011        0.50452341346740
H           47.75842624938375        4.98370919523730        2.17974396989160
H           48.25075194506540        6.97025142286573        3.15059907167160
H           46.21490352583622        9.39437397010286       -0.27021514144814
H           45.14163517043147        7.31545789254829       -2.27821461557496
H           45.63481369675362        5.17300148674765       -1.55046163209928
H           49.35232361158482        4.53816707706327        0.10368470122133
H           51.24921743734464        2.63967638150262        0.02620304624586
H           51.27416136352947       -2.62599113948684        0.04703974446720
H           49.39687171805100       -4.53995279608679       -0.11221150655059
H           47.80788000540035       -4.92673318297962       -2.25752912424393
H           47.82194038485454       -8.46966964690895       -2.58868548472933
H           45.93232142465606       -9.46828899107533       -0.54133807047810
H           45.94560669955958       -8.78464457742816        1.41720034081041
H           45.72761674239977       -5.26816892711818        1.49665767989447
H           44.10606541301309       -4.53826692696118       -0.51779950660009
H           42.20751174009467       -2.64665842721474       -0.34669140851332

          :  Hamiltonian                  GFN1-xTB          :
         :: total energy            -394.717025612939 Eh    ::
         :: gradient norm              0.000434810823 Eh/a0 ::
         :: HOMO-LUMO gap              0.000392831723 eV    ::
         :: SCC energy              -400.058785473538 Eh    ::
         :: repulsion energy           5.516087645184 Eh    ::

    * Orbital Energies and Occupations

         #    Occupation            Energy/Eh            Energy/eV
      -------------------------------------------------------------
         1        2.0000           -0.8125490             -22.1106
       ...           ...                  ...                  ...
       333        2.0000           -0.4093093             -11.1379
       334        2.0000           -0.4091050             -11.1323
       335        2.0000           -0.4089292             -11.1275
       336        2.0000           -0.4083866             -11.1128
       337        2.0000           -0.4062722             -11.0552
       338        2.0000           -0.3965951             -10.7919
       339        2.0000           -0.3965496             -10.7907
       340        2.0000           -0.3965220             -10.7899
       341        2.0000           -0.3916633             -10.6577
       342        2.0000           -0.3858469             -10.4994
       343        2.0000           -0.3784055             -10.2969
       344        1.0175           -0.3570533              -9.7159
       345        0.9946           -0.3570044              -9.7146 (HOMO)
       346        0.9879           -0.3569900              -9.7142 (LUMO)
       347        0.0000           -0.3424108              -9.3175
       348                         -0.3337155              -9.0809
       349                         -0.3284946              -8.9388
       350                         -0.3284323              -8.9371
       351                         -0.3283856              -8.9358
       352                         -0.3268357              -8.8937
       353                         -0.3045654              -8.2876
       354                         -0.2956057              -8.0438
       355                         -0.2922474              -7.9525
       356                         -0.2842686              -7.7353
       ...                                ...                  ...
       691                          1.5804650              43.0066
      -------------------------------------------------------------
                  HL-Gap            0.0000144 Eh            0.0004 eV

Wiberg/Mayer (AO) data.
largest (>0.10) Wiberg bond orders for each atom

     #   Z sym  total        # sym  WBO       # sym  WBO       # sym  WBO
 ---------------------------------------------------------------------------
     1  29 Cu   2.189 --     7 N    0.506    43 N    0.506    28 N    0.503
                            21 N    0.503
     2   6 C    3.929 --     3 C    1.362    42 C    1.360    44 H    0.971
     3   6 C    3.917 --     2 C    1.362     7 N    1.229     4 C    1.170
     4   6 C    3.955 --     5 C    1.656     3 C    1.170    45 H    0.975
     5   6 C    3.958 --     4 C    1.656     6 C    1.172    46 H    0.973
     6   6 C    3.912 --     8 C    1.321     7 N    1.238     5 C    1.172
     7   7 N    3.244 --     6 C    1.238     3 C    1.229     1 Cu   0.506
     8   6 C    3.934 --    18 C    1.327     6 C    1.321     9 C    1.024
     9   6 C    3.989 --    10 C    1.400    17 C    1.388     8 C    1.024
    10   6 C    3.977 --     9 C    1.400    11 C    1.379    47 H    0.970
    11   6 C    3.917 --    10 C    1.379    13 C    1.325    12 O    1.052
    12   8 O    2.048 --    11 C    1.052    48 H    0.848
    13   6 C    3.905 --    15 C    1.341    11 C    1.325    14 O    1.020
    14   8 O    2.021 --    13 C    1.020    49 H    0.846
    15   6 C    3.905 --    17 C    1.384    13 C    1.341    16 O    1.013
    16   8 O    2.025 --    15 C    1.013    50 H    0.861
    17   6 C    3.973 --     9 C    1.388    15 C    1.384    51 H    0.970
    18   6 C    3.908 --     8 C    1.327    21 N    1.221    19 C    1.180
    19   6 C    3.954 --    20 C    1.641    18 C    1.180    52 H    0.974
    20   6 C    3.956 --    19 C    1.641    22 C    1.188    53 H    0.974
    21   7 N    3.248 --    22 C    1.257    18 C    1.221     1 Cu   0.503
    22   6 C    3.897 --    23 C    1.258    21 N    1.257    20 C    1.188
    23   6 C    3.939 --    24 C    1.259    22 C    1.258   128 C    1.189
    24   6 C    3.897 --    23 C    1.259    28 N    1.257    25 C    1.186
    25   6 C    3.956 --    26 C    1.643    24 C    1.186    54 H    0.974
    26   6 C    3.954 --    25 C    1.643    27 C    1.179    55 H    0.973
    27   6 C    3.907 --    29 C    1.329    28 N    1.220    26 C    1.179
    28   7 N    3.248 --    24 C    1.257    27 C    1.220     1 Cu   0.503
    29   6 C    3.935 --    27 C    1.329    39 C    1.319    30 C    1.026
    30   6 C    3.989 --    31 C    1.399    38 C    1.387    29 C    1.026
    31   6 C    3.977 --    30 C    1.399    32 C    1.380    56 H    0.970
    32   6 C    3.918 --    31 C    1.380    34 C    1.324    33 O    1.052
    33   8 O    2.048 --    32 C    1.052    57 H    0.848
    34   6 C    3.904 --    36 C    1.341    32 C    1.324    35 O    1.020
    35   8 O    2.020 --    34 C    1.020    58 H    0.846
    36   6 C    3.905 --    38 C    1.384    34 C    1.341    37 O    1.013
    37   8 O    2.024 --    36 C    1.013    59 H    0.861
    38   6 C    3.973 --    30 C    1.387    36 C    1.384    60 H    0.969
    39   6 C    3.912 --    29 C    1.319    43 N    1.239    40 C    1.173
    40   6 C    3.958 --    41 C    1.654    39 C    1.173    61 H    0.973
    41   6 C    3.954 --    40 C    1.654    42 C    1.172    62 H    0.976
    42   6 C    3.917 --     2 C    1.360    43 N    1.229    41 C    1.172
    43   7 N    3.243 --    39 C    1.239    42 C    1.229     1 Cu   0.506
    44   1 H    1.002 --     2 C    0.971
    45   1 H    0.998 --     4 C    0.975
    46   1 H    1.005 --     5 C    0.973
    47   1 H    1.000 --    10 C    0.970
    48   1 H    0.878 --    12 O    0.848
    49   1 H    0.876 --    14 O    0.846
    50   1 H    0.881 --    16 O    0.861
    51   1 H    1.001 --    17 C    0.970
    52   1 H    1.006 --    19 C    0.974
    53   1 H    1.002 --    20 C    0.974
    54   1 H    1.002 --    25 C    0.974
    55   1 H    1.005 --    26 C    0.973
    56   1 H    1.000 --    31 C    0.970
    57   1 H    0.878 --    33 O    0.848
    58   1 H    0.876 --    35 O    0.846
    59   1 H    0.881 --    37 O    0.861
    60   1 H    1.001 --    38 C    0.969
    61   1 H    1.006 --    40 C    0.973
    62   1 H    0.998 --    41 C    0.976
    63  29 Cu   2.193 --    69 N    0.507   105 N    0.507    90 N    0.504
                            83 N    0.504
    64   6 C    3.929 --    65 C    1.362   104 C    1.361   106 H    0.971
    65   6 C    3.917 --    64 C    1.362    69 N    1.229    66 C    1.170
    66   6 C    3.955 --    67 C    1.656    65 C    1.170   107 H    0.975
    67   6 C    3.958 --    66 C    1.656    68 C    1.172   108 H    0.973
    68   6 C    3.912 --    70 C    1.321    69 N    1.238    67 C    1.172
    69   7 N    3.244 --    68 C    1.238    65 C    1.229    63 Cu   0.507
    70   6 C    3.934 --    80 C    1.327    68 C    1.321    71 C    1.024
    71   6 C    3.989 --    72 C    1.400    79 C    1.388    70 C    1.024
    72   6 C    3.977 --    71 C    1.400    73 C    1.379   109 H    0.970
    73   6 C    3.917 --    72 C    1.379    75 C    1.325    74 O    1.052
    74   8 O    2.048 --    73 C    1.052   110 H    0.848
    75   6 C    3.905 --    77 C    1.341    73 C    1.325    76 O    1.020
    76   8 O    2.020 --    75 C    1.020   111 H    0.846
    77   6 C    3.905 --    79 C    1.384    75 C    1.341    78 O    1.013
    78   8 O    2.024 --    77 C    1.013   112 H    0.861
    79   6 C    3.973 --    71 C    1.388    77 C    1.384   113 H    0.970
    80   6 C    3.907 --    70 C    1.327    83 N    1.221    81 C    1.180
    81   6 C    3.954 --    82 C    1.641    80 C    1.180   114 H    0.974
    82   6 C    3.956 --    81 C    1.641    84 C    1.188   115 H    0.974
    83   7 N    3.248 --    84 C    1.257    80 C    1.221    63 Cu   0.504
    84   6 C    3.897 --    85 C    1.258    83 N    1.257    82 C    1.188
    85   6 C    3.939 --    86 C    1.259    84 C    1.258   136 C    1.189
    86   6 C    3.897 --    85 C    1.259    90 N    1.257    87 C    1.186
    87   6 C    3.956 --    88 C    1.643    86 C    1.186   116 H    0.974
    88   6 C    3.954 --    87 C    1.643    89 C    1.179   117 H    0.973
    89   6 C    3.907 --    91 C    1.329    90 N    1.220    88 C    1.179
    90   7 N    3.248 --    86 C    1.257    89 C    1.220    63 Cu   0.504
    91   6 C    3.935 --    89 C    1.329   101 C    1.319    92 C    1.025
    92   6 C    3.989 --    93 C    1.399   100 C    1.388    91 C    1.025
    93   6 C    3.977 --    92 C    1.399    94 C    1.380   118 H    0.970
    94   6 C    3.918 --    93 C    1.380    96 C    1.324    95 O    1.053
    95   8 O    2.048 --    94 C    1.053   119 H    0.847
    96   6 C    3.905 --    98 C    1.341    94 C    1.324    97 O    1.020
    97   8 O    2.021 --    96 C    1.020   120 H    0.846
    98   6 C    3.905 --   100 C    1.384    96 C    1.341    99 O    1.013
    99   8 O    2.024 --    98 C    1.013   121 H    0.861
   100   6 C    3.973 --    92 C    1.388    98 C    1.384   122 H    0.970
   101   6 C    3.912 --    91 C    1.319   105 N    1.238   102 C    1.173
   102   6 C    3.958 --   103 C    1.654   101 C    1.173   123 H    0.973
   103   6 C    3.954 --   102 C    1.654   104 C    1.172   124 H    0.976
   104   6 C    3.917 --    64 C    1.361   105 N    1.229   103 C    1.172
   105   7 N    3.244 --   101 C    1.238   104 C    1.229    63 Cu   0.507
   106   1 H    1.001 --    64 C    0.971
   107   1 H    0.998 --    66 C    0.975
   108   1 H    1.005 --    67 C    0.973
   109   1 H    1.000 --    72 C    0.970
   110   1 H    0.878 --    74 O    0.848
   111   1 H    0.876 --    76 O    0.846
   112   1 H    0.881 --    78 O    0.861
   113   1 H    1.001 --    79 C    0.970
   114   1 H    1.005 --    81 C    0.974
   115   1 H    1.002 --    82 C    0.974
   116   1 H    1.002 --    87 C    0.974
   117   1 H    1.005 --    88 C    0.973
   118   1 H    1.000 --    93 C    0.970
   119   1 H    0.878 --    95 O    0.847
   120   1 H    0.876 --    97 O    0.846
   121   1 H    0.881 --    99 O    0.861
   122   1 H    1.001 --   100 C    0.970
   123   1 H    1.006 --   102 C    0.973
   124   1 H    0.998 --   103 C    0.976
   125   6 C    3.927 --   126 C    2.369   129 C    1.335   128 C    0.191
   126   6 C    3.925 --   125 C    2.369   127 C    1.334   130 C    0.190
   127   6 C    3.935 --   128 C    2.451   126 C    1.334
   128   6 C    3.890 --   127 C    2.451    23 C    1.189   125 C    0.191
   129   6 C    3.932 --   130 C    2.448   125 C    1.335
   130   6 C    3.891 --   129 C    2.448   138 C    1.192   126 C    0.190
   131   6 C    3.925 --   132 C    2.369   135 C    1.334   134 C    0.190
   132   6 C    3.927 --   131 C    2.369   133 C    1.335   136 C    0.191
   133   6 C    3.932 --   134 C    2.448   132 C    1.335
   134   6 C    3.891 --   133 C    2.448   159 C    1.192   131 C    0.190
   135   6 C    3.935 --   136 C    2.451   131 C    1.334
   136   6 C    3.890 --   135 C    2.451    85 C    1.189   132 C    0.191
   137  29 Cu   2.161 --   164 N    0.498   179 N    0.498   143 N    0.497
                           157 N    0.497
   138   6 C    3.927 --   178 C    1.256   139 C    1.254   130 C    1.192
   139   6 C    3.898 --   143 N    1.260   138 C    1.254   140 C    1.189
   140   6 C    3.954 --   141 C    1.638   139 C    1.189   180 H    0.974
   141   6 C    3.955 --   140 C    1.638   142 C    1.183   181 H    0.974
   142   6 C    3.906 --   144 C    1.322   143 N    1.222   141 C    1.183
   143   7 N    3.240 --   139 C    1.260   142 C    1.222   137 Cu   0.497
   144   6 C    3.930 --   154 C    1.323   142 C    1.322   145 C    1.028
   145   6 C    3.989 --   146 C    1.392   153 C    1.384   144 C    1.028
   146   6 C    3.974 --   145 C    1.392   147 C    1.380   182 H    0.969
   147   6 C    3.915 --   146 C    1.380   149 C    1.322   148 O    1.043
   148   8 O    2.052 --   147 C    1.043   183 H    0.867
   149   6 C    3.916 --   151 C    1.328   147 C    1.322   150 O    1.050
   150   8 O    2.047 --   149 C    1.050   184 H    0.850
   151   6 C    3.904 --   153 C    1.391   149 C    1.328   152 O    1.012
   152   8 O    2.026 --   151 C    1.012   185 H    0.861
   153   6 C    3.974 --   151 C    1.391   145 C    1.384   186 H    0.969
   154   6 C    3.906 --   144 C    1.323   157 N    1.222   155 C    1.182
   155   6 C    3.955 --   156 C    1.639   154 C    1.182   187 H    0.973
   156   6 C    3.954 --   155 C    1.639   158 C    1.189   188 H    0.974
   157   7 N    3.240 --   158 C    1.260   154 C    1.222   137 Cu   0.497
   158   6 C    3.898 --   157 N    1.260   159 C    1.254   156 C    1.189
   159   6 C    3.927 --   160 C    1.257   158 C    1.254   134 C    1.192
   160   6 C    3.898 --   164 N    1.259   159 C    1.257   161 C    1.187
   161   6 C    3.955 --   162 C    1.641   160 C    1.187   189 H    0.974
   162   6 C    3.955 --   161 C    1.641   163 C    1.180   190 H    0.973
   163   6 C    3.905 --   165 C    1.324   164 N    1.222   162 C    1.180
   164   7 N    3.240 --   160 C    1.259   163 C    1.222   137 Cu   0.498
   165   6 C    3.929 --   175 C    1.324   163 C    1.324   166 C    1.026
   166   6 C    3.989 --   174 C    1.398   167 C    1.397   165 C    1.026
   167   6 C    3.976 --   166 C    1.397   168 C    1.378   191 H    0.970
   168   6 C    3.917 --   167 C    1.378   170 C    1.332   169 O    1.055
   169   8 O    2.051 --   168 C    1.055   192 H    0.847
   170   6 C    3.888 --   172 C    1.348   168 C    1.332   171 O    0.979
   171   8 O    1.983 --   170 C    0.979   193 H    0.863
   172   6 C    3.910 --   174 C    1.378   170 C    1.348   173 O    1.027
   173   8 O    2.030 --   172 C    1.027   194 H    0.862
   174   6 C    3.976 --   166 C    1.398   172 C    1.378   195 H    0.970
   175   6 C    3.905 --   165 C    1.324   179 N    1.222   176 C    1.181
   176   6 C    3.955 --   177 C    1.641   175 C    1.181   196 H    0.973
   177   6 C    3.955 --   176 C    1.641   178 C    1.188   197 H    0.974
   178   6 C    3.898 --   179 N    1.259   138 C    1.256   177 C    1.188
   179   7 N    3.240 --   178 C    1.259   175 C    1.222   137 Cu   0.498
   180   1 H    1.002 --   140 C    0.974
   181   1 H    1.006 --   141 C    0.974
   182   1 H    1.001 --   146 C    0.969
   183   1 H    0.887 --   148 O    0.867
   184   1 H    0.881 --   150 O    0.850
   185   1 H    0.882 --   152 O    0.861
   186   1 H    1.001 --   153 C    0.969
   187   1 H    1.006 --   155 C    0.973
   188   1 H    1.002 --   156 C    0.974
   189   1 H    1.002 --   161 C    0.974
   190   1 H    1.005 --   162 C    0.973
   191   1 H    1.000 --   167 C    0.970
   192   1 H    0.881 --   169 O    0.847
   193   1 H    0.884 --   171 O    0.863
   194   1 H    0.885 --   173 O    0.862
   195   1 H    1.000 --   174 C    0.970
   196   1 H    1.005 --   176 C    0.973
   197   1 H    1.002 --   177 C    0.974
 ---------------------------------------------------------------------------

           -------------------------------------------------
          | TOTAL ENERGY             -394.717025612939 Eh   |
          | GRADIENT NORM               0.000434810823 Eh/α |
          | HOMO-LUMO GAP               0.000392831723 eV   |
           -------------------------------------------------

 * finished run on 2022/07/30 at 09:43:05.279
