   * xtb version 6.5.1 (b24c23e) compiled by 'conda@728c89f4b128' on 2022-07-12
          program call               : xtb Cu_p-CP_C6_2.xyz --gfn 1 --opt -T 48

   ID    Z sym.   atoms
    1   29 Cu     1, 63
    2    6 C      2-6, 8-11, 13-24, 27-32, 35-39, 42, 43, 64-68, 70-73,
                  75-86, 89-94, 97-101, 104, 105, 125-130
    3    7 N      7, 12, 33, 34, 69, 74, 95, 96
    4    8 O      25, 26, 40, 41, 87, 88, 102, 103
    5    1 H      44-62, 106-124
########################################################################
[WARNING] Please study the warnings concerning your input carefully
-1- prog_main_parseArguments: Unknown option '-T' provided
########################################################################

          :  Hamiltonian                  GFN1-xTB          :
 * total energy  :  -248.5830451 Eh     change       -0.2894183E-09 Eh
 * total energy  :  -248.8535954 Eh     change       -0.2705503E+00 Eh
 * total energy  :  -248.9323095 Eh     change       -0.7871418E-01 Eh
 * total energy  :  -248.9616212 Eh     change       -0.2931171E-01 Eh
 * total energy  :  -248.9710944 Eh     change       -0.9473174E-02 Eh
 * total energy  :  -248.9757356 Eh     change       -0.4641205E-02 Eh
 * total energy  :  -248.9785617 Eh     change       -0.2826088E-02 Eh
 * total energy  :  -248.9805026 Eh     change       -0.1940846E-02 Eh
 * total energy  :  -248.9817854 Eh     change       -0.1282859E-02 Eh
 * total energy  :  -248.9826750 Eh     change       -0.8895404E-03 Eh
 * total energy  :  -248.9871419 Eh     change       -0.5435267E-04 Eh
 * total energy  :  -248.9871890 Eh     change       -0.4707181E-04 Eh
 * total energy  :  -248.9872273 Eh     change       -0.3829059E-04 Eh
 * total energy  :  -248.9872557 Eh     change       -0.2841512E-04 Eh
 * total energy  :  -248.9872793 Eh     change       -0.2361792E-04 Eh
 * total energy  :  -248.9872933 Eh     change       -0.1394137E-04 Eh
 * total energy  :  -248.9873085 Eh     change       -0.1521320E-04 Eh
 * total energy  :  -248.9873178 Eh     change       -0.9344082E-05 Eh
 * total energy  :  -248.9873211 Eh     change       -0.3282837E-05 Eh
   *** GEOMETRY OPTIMIZATION CONVERGED AFTER 44 ITERATIONS ***

 final structure:
================
130
 xtb: 6.5.1 (b24c23e)
Cu          16.42732518339741       -0.05613135018797        0.02956333596952
C           13.02136232212385       -0.12588357569897        0.04937272091189
C           13.65282624010842       -0.18282934319479        1.28255864075271
C           12.97417268996421       -0.23453445834912        2.54597737869030
C           13.93005793742170       -0.24823941235636        3.50743638226899
C           15.20278140993494       -0.21590294723072        2.83859483892870
N           15.00289099912083       -0.17131936766249        1.48926060115134
C           16.44610697801656       -0.19491903033410        3.47524544410361
C           17.68085562916097       -0.13097802510582        2.82637678142419
C           18.95663695661848       -0.16498445962295        3.48384871514058
C           19.90526319012567       -0.11513506606018        2.51470233079584
N           17.87292536813990       -0.06981050165629        1.47151984125566
C           19.21733590759262       -0.05613176437037        1.25993020790932
C           19.85712583979238       -0.00788135598952        0.00865859519054
C           19.20210706622743        0.03272295170823       -1.23500561290090
C           19.87381733259119        0.05485572244135       -2.49965915281951
C           18.91273617863946        0.08792309460933       -3.45731344675140
C           17.64562365017733        0.09414739089744       -2.78227879631599
C           16.40114612375799        0.11251304299544       -3.41593074812398
C           16.38634383586892        0.18549429293495       -4.89713749180599
C           15.81845469386912       -0.84666837319980       -5.64902468528614
C           15.79896499614280       -0.77611747777309       -7.02964212787876
C           16.34304394609979        0.33004617591735       -7.68528764648763
C           16.29141627467505        0.36331056758410       -9.16627180846153
O           16.83379412815910        1.46929933299039       -9.69826996910619
O           15.81297179083743       -0.50582620889727       -9.85014216330902
C           16.91191460073327        1.36304382615115       -6.93958210948890
C           16.93427457751405        1.28789083292470       -5.55782952432665
C           15.16620791249850        0.06468450367361       -2.76381319721709
C           13.88444518590656        0.13136814187621       -3.41275944894077
C           12.94149150935306        0.05894152906872       -2.44125859603882
C           13.63717418802126       -0.04119538237136       -1.19014963010094
N           14.98459788851983       -0.02774372543534       -1.41428148511941
N           17.85524736223645        0.05017424551075       -1.42947787208465
C           16.45376621249045       -0.24578772803322        4.95794868045160
C           15.94778495519471       -1.36155244016176        5.62985537119235
C           15.95282028781974       -1.40579692839367        7.01179032166650
C           16.45896234789941       -0.33294627247537        7.74821971966280
C           16.43874010540280       -0.42542141607077        9.22743072905505
O           16.94018570914768        0.65791988691006        9.84039376200869
O           16.01621559807999       -1.37004054437393        9.84470358386424
C           16.96414477886975        0.78409361241948        7.08208602919085
C           16.96310257071044        0.82356262651294        5.69867472130848
H           11.93629982874446       -0.13580636987163        0.05541149468824
H           11.90255913356819       -0.25023962765613        2.66743861260357
H           13.79228891199435       -0.26676912862666        4.57652249579228
H           19.10365011474911       -0.23308168551457        4.54956003157222
H           20.97735381001149       -0.12319317016539        2.62923536596735
H           20.94424704345506        0.04039796696346       -2.62855094944318
H           19.04640597949929        0.09332936718898       -4.52694726578399
H           15.40569532179019       -1.71161361892467       -5.14231076775288
H           15.36293489687082       -1.57525102388289       -7.61904471050846
H           16.76004158881089        1.41315933072941      -10.66480251874375
H           17.33351405987290        2.22430768444968       -7.44422065928399
H           17.36406498079296        2.09721903026388       -4.97840096281648
H           13.73226817532611        0.23423251749764       -4.47505765335846
H           11.86830959872181        0.07867663490814       -2.54719258616980
H           15.56474221952539       -2.20009651885731        5.05944915422074
H           15.56666081587884       -2.27075162662373        7.53984911505894
H           16.88985440842520        0.51863063305495       10.79999001371621
H           17.35486538529477        1.62028418639204        7.64979511105222
H           17.34489942418389        1.69652164861597        5.18133156606482
Cu          32.46491774290565       -0.05167411808109       -0.03553140867291
C           35.87090470487114       -0.11917188198162       -0.06351708545778
C           35.23930001689804       -0.03514620315771       -1.29508094901226
C           35.91776635599057        0.05676945450104       -2.55632963113794
C           34.96175804662568        0.15352011180021       -3.51288358702155
C           33.68917591260497        0.11090428698658       -2.84437893316630
N           33.88922067049775        0.00097354737844       -1.49881312527693
C           32.44592772736490        0.20666206137147       -3.47416005987153
C           31.21125182848570        0.19760042690357       -2.82214863213986
C           29.93554209885566        0.24203149265667       -3.47913966325021
C           28.98684541108664        0.18042018789158       -2.51072652209579
N           31.01911609994450        0.10178655786981       -1.46935520148373
C           29.67467992114615        0.09253004991509       -1.25759664789469
C           29.03509563379692       -0.00516020620693       -0.00910644740564
C           29.69036147440467       -0.10974069442865        1.23067374864335
C           29.01861340353524       -0.23619486077049        2.48915561149303
C           29.97965097402317       -0.31465103821693        3.44419593815681
C           31.24679023098939       -0.22838053627150        2.77471412481235
C           32.49129017327088       -0.28208856888819        3.40639513957204
C           32.50608544380886       -0.38076995598862        4.88602852872479
C           33.07894649532757       -1.49013863122775        5.51402063592056
C           33.09874071715381       -1.57912412152427        6.89357284237843
C           32.54965338630384       -0.55859054656546        7.67233982380971
C           32.60171942979008       -0.69592385965132        9.14728182555806
O           32.05488028342023        0.33911348098310        9.80305740567125
O           33.08478931256510       -1.63559690931980        9.72653976437338
C           31.97549460367463        0.55073842230178        7.05062749676251
C           31.95314897619737        0.63541592584407        5.66945670394485
C           33.72625941009836       -0.25262431117961        2.75314323148736
C           35.00807000552450       -0.25898532586633        3.40540057974297
C           35.95094859568651       -0.21900811837595        2.43195018093768
C           35.25518057740633       -0.17636260095384        1.17762553493153
N           33.90777532425643       -0.18976804550881        1.40190440710789
N           31.03719860752376       -0.11432700674213        1.42597715301828
C           32.43819470251343        0.32684775900970       -4.95291197145695
C           32.93860597292175       -0.70645418742400       -5.74922877274314
C           32.93307602694260       -0.59105257914994       -7.12706824440349
C           32.43262146421119        0.56222920411099       -7.73447055283755
C           32.45295935951855        0.64141333726861       -9.21438448541131
O           31.95720568383883        1.79077254739763       -9.69793187058369
O           32.86937901178451       -0.22815006493942       -9.93678524645203
C           31.93318924802245        1.59755397593434       -6.94365233133478
C           31.93420773637435        1.47703618161756       -5.56495857802433
H           36.95596495050966       -0.12839067231370       -0.07074553883459
H           36.98935362504541        0.05396836508178       -2.67900508257080
H           35.09921899999898        0.25653332743998       -4.57720132057328
H           29.78873060200316        0.29836942065736       -4.54557108243252
H           27.91476186606648        0.18735897551166       -2.62539834729689
H           27.94818827797747       -0.26631818896162        2.61534565196115
H           29.84581733023533       -0.43484415039738        4.50703832990441
H           33.49536284210558       -2.28909651032116        4.91108598224602
H           33.53873219728601       -2.43885272591004        7.38694025961345
H           32.12959113519602        0.17259718182265       10.75671349994848
H           31.54991457420444        1.34600530789409        7.65113023736265
H           31.51952337033365        1.50423784330853        5.18718779640201
H           35.16039173402633       -0.27766196144491        4.47247961011287
H           37.02412465438159       -0.21031879425537        2.53941374779776
H           33.31775428409504       -1.60694418253484       -5.27954849081233
H           33.31491660387501       -1.39118499959377       -7.75162937733873
H           32.00654869529140        1.76271982541133      -10.66722346674762
H           31.54671345281189        2.49559331181951       -7.41089827353174
H           31.55658330654238        2.28618527918315       -4.95001473622652
C           25.06015137456362       -0.00886515598454        0.00092322801177
C           23.83205372925442       -0.01149964307104       -0.00487900539066
C           22.48704214490963       -0.00753619829002        0.00092761439219
C           21.26337470773980       -0.00780443933382        0.00113858736969
C           26.40516944753124       -0.00669898093258       -0.00203025011637
C           27.62885113531873       -0.00693672591126       -0.00124041028922

          :  Hamiltonian                  GFN1-xTB          :
         :: total energy            -248.987321118960 Eh    ::
         :: gradient norm              0.000898955428 Eh/a0 ::
         :: HOMO-LUMO gap              0.000016631752 eV    ::
         :: SCC energy              -252.582727011794 Eh    ::
         :: repulsion energy           3.709370544736 Eh    ::

    * Orbital Energies and Occupations

         #    Occupation            Energy/Eh            Energy/eV
      -------------------------------------------------------------
         1        2.0000           -0.8323233             -22.6487
       ...           ...                  ...                  ...
       210        2.0000           -0.4205011             -11.4424
       211        2.0000           -0.4204170             -11.4401
       212        2.0000           -0.4173701             -11.3572
       213        2.0000           -0.4173658             -11.3571
       214        2.0000           -0.4171901             -11.3523
       215        2.0000           -0.4171485             -11.3512
       216        2.0000           -0.4171352             -11.3508
       217        2.0000           -0.4170738             -11.3492
       218        2.0000           -0.4047965             -11.0151
       219        2.0000           -0.4047946             -11.0150
       220        2.0000           -0.4008940             -10.9089
       221        2.0000           -0.3901885             -10.6176
       222        1.0002           -0.3648399              -9.9278 (HOMO)
       223        0.9998           -0.3648393              -9.9278 (LUMO)
       224                         -0.3469775              -9.4417
       225                         -0.3388563              -9.2207
       226                         -0.3388544              -9.2207
       227                         -0.3352687              -9.1231
       228                         -0.3151585              -8.5759
       229                         -0.3135151              -8.5312
       230                         -0.3082391              -8.3876
       231                         -0.3082207              -8.3871
       232                         -0.3021161              -8.2210
       233                         -0.2956756              -8.0457
       ...                                ...                  ...
       454                          1.5724353              42.7881
      -------------------------------------------------------------
                  HL-Gap            0.0000006 Eh            0.0000 eV

Wiberg/Mayer (AO) data.
largest (>0.10) Wiberg bond orders for each atom

     #   Z sym  total        # sym  WBO       # sym  WBO       # sym  WBO
 ---------------------------------------------------------------------------
     1  29 Cu   2.182 --    33 N    0.505     7 N    0.504    12 N    0.502
                            34 N    0.501
     2   6 C    3.930 --    32 C    1.362     3 C    1.362    44 H    0.971
     3   6 C    3.916 --     2 C    1.362     7 N    1.229     4 C    1.170
     4   6 C    3.955 --     5 C    1.657     3 C    1.170    45 H    0.975
     5   6 C    3.958 --     4 C    1.657     6 C    1.171    46 H    0.973
     6   6 C    3.913 --     8 C    1.318     7 N    1.240     5 C    1.171
     7   7 N    3.243 --     6 C    1.240     3 C    1.229     1 Cu   0.504
     8   6 C    3.934 --     9 C    1.326     6 C    1.318    35 C    1.028
     9   6 C    3.908 --     8 C    1.326    12 N    1.223    10 C    1.179
    10   6 C    3.954 --    11 C    1.643     9 C    1.179    47 H    0.973
    11   6 C    3.956 --    10 C    1.643    13 C    1.186    48 H    0.974
    12   7 N    3.248 --    13 C    1.256     9 C    1.223     1 Cu   0.502
    13   6 C    3.896 --    14 C    1.260    12 N    1.256    11 C    1.186
    14   6 C    3.940 --    15 C    1.260    13 C    1.260   128 C    1.187
    15   6 C    3.896 --    14 C    1.260    34 N    1.256    16 C    1.186
    16   6 C    3.956 --    17 C    1.643    15 C    1.186    49 H    0.974
    17   6 C    3.954 --    16 C    1.643    18 C    1.179    50 H    0.973
    18   6 C    3.908 --    19 C    1.325    34 N    1.223    17 C    1.179
    19   6 C    3.934 --    18 C    1.325    29 C    1.318    20 C    1.030
    20   6 C    3.986 --    28 C    1.387    21 C    1.384    19 C    1.030
    21   6 C    3.987 --    22 C    1.465    20 C    1.384    51 H    0.972
                            27 C    0.102
    22   6 C    3.990 --    21 C    1.465    23 C    1.384    52 H    0.968
                            28 C    0.102
    23   6 C    3.982 --    27 C    1.388    22 C    1.384    24 C    1.010
    24   6 C    3.835 --    26 O    1.689    25 O    1.088    23 C    1.010
    25   8 O    2.096 --    24 C    1.088    53 H    0.838    26 O    0.128
    26   8 O    1.957 --    24 C    1.689    25 O    0.128
    27   6 C    3.991 --    28 C    1.462    23 C    1.388    54 H    0.970
                            21 C    0.102
    28   6 C    3.988 --    27 C    1.462    20 C    1.387    55 H    0.972
                            22 C    0.102
    29   6 C    3.913 --    19 C    1.318    33 N    1.240    30 C    1.171
    30   6 C    3.958 --    31 C    1.657    29 C    1.171    56 H    0.973
    31   6 C    3.955 --    30 C    1.657    32 C    1.170    57 H    0.975
    32   6 C    3.916 --     2 C    1.362    33 N    1.229    31 C    1.170
    33   7 N    3.244 --    29 C    1.240    32 C    1.229     1 Cu   0.505
    34   7 N    3.247 --    15 C    1.256    18 C    1.223     1 Cu   0.501
    35   6 C    3.986 --    43 C    1.387    36 C    1.385     8 C    1.028
    36   6 C    3.987 --    37 C    1.464    35 C    1.385    58 H    0.972
                            42 C    0.103
    37   6 C    3.990 --    36 C    1.464    38 C    1.385    59 H    0.968
                            43 C    0.103
    38   6 C    3.983 --    42 C    1.388    37 C    1.385    39 C    1.010
    39   6 C    3.836 --    41 O    1.689    40 O    1.087    38 C    1.010
    40   8 O    2.096 --    39 C    1.087    60 H    0.838    41 O    0.128
    41   8 O    1.958 --    39 C    1.689    40 O    0.128
    42   6 C    3.991 --    43 C    1.461    38 C    1.388    61 H    0.970
                            36 C    0.103
    43   6 C    3.988 --    42 C    1.461    35 C    1.387    62 H    0.972
                            37 C    0.103
    44   1 H    1.001 --     2 C    0.971
    45   1 H    0.997 --     4 C    0.975
    46   1 H    1.004 --     5 C    0.973
    47   1 H    1.004 --    10 C    0.973
    48   1 H    1.002 --    11 C    0.974
    49   1 H    1.002 --    16 C    0.974
    50   1 H    1.004 --    17 C    0.973
    51   1 H    1.004 --    21 C    0.972
    52   1 H    1.005 --    22 C    0.968
    53   1 H    0.873 --    25 O    0.838
    54   1 H    1.005 --    27 C    0.970
    55   1 H    1.004 --    28 C    0.972
    56   1 H    1.004 --    30 C    0.973
    57   1 H    0.997 --    31 C    0.975
    58   1 H    1.004 --    36 C    0.972
    59   1 H    1.005 --    37 C    0.968
    60   1 H    0.873 --    40 O    0.838
    61   1 H    1.005 --    42 C    0.970
    62   1 H    1.004 --    43 C    0.972
    63  29 Cu   2.182 --    95 N    0.505    69 N    0.504    74 N    0.502
                            96 N    0.501
    64   6 C    3.930 --    94 C    1.362    65 C    1.362   106 H    0.971
    65   6 C    3.916 --    64 C    1.362    69 N    1.229    66 C    1.170
    66   6 C    3.955 --    67 C    1.657    65 C    1.170   107 H    0.975
    67   6 C    3.958 --    66 C    1.657    68 C    1.171   108 H    0.973
    68   6 C    3.913 --    70 C    1.319    69 N    1.240    67 C    1.171
    69   7 N    3.243 --    68 C    1.240    65 C    1.229    63 Cu   0.504
    70   6 C    3.934 --    71 C    1.326    68 C    1.319    97 C    1.028
    71   6 C    3.908 --    70 C    1.326    74 N    1.223    72 C    1.179
    72   6 C    3.954 --    73 C    1.643    71 C    1.179   109 H    0.973
    73   6 C    3.956 --    72 C    1.643    75 C    1.186   110 H    0.974
    74   7 N    3.248 --    75 C    1.256    71 C    1.223    63 Cu   0.502
    75   6 C    3.896 --    76 C    1.260    74 N    1.256    73 C    1.186
    76   6 C    3.940 --    77 C    1.260    75 C    1.260   130 C    1.187
    77   6 C    3.896 --    76 C    1.260    96 N    1.256    78 C    1.186
    78   6 C    3.956 --    79 C    1.643    77 C    1.186   111 H    0.974
    79   6 C    3.954 --    78 C    1.643    80 C    1.179   112 H    0.973
    80   6 C    3.908 --    81 C    1.325    96 N    1.223    79 C    1.179
    81   6 C    3.934 --    80 C    1.325    91 C    1.318    82 C    1.031
    82   6 C    3.986 --    90 C    1.386    83 C    1.384    81 C    1.031
    83   6 C    3.987 --    84 C    1.465    82 C    1.384   113 H    0.972
                            89 C    0.102
    84   6 C    3.990 --    83 C    1.465    85 C    1.384   114 H    0.968
                            90 C    0.102
    85   6 C    3.982 --    89 C    1.388    84 C    1.384    86 C    1.010
    86   6 C    3.835 --    88 O    1.689    87 O    1.088    85 C    1.010
    87   8 O    2.096 --    86 C    1.088   115 H    0.838    88 O    0.128
    88   8 O    1.957 --    86 C    1.689    87 O    0.128
    89   6 C    3.991 --    90 C    1.462    85 C    1.388   116 H    0.970
                            83 C    0.102
    90   6 C    3.987 --    89 C    1.462    82 C    1.386   117 H    0.972
                            84 C    0.102
    91   6 C    3.913 --    81 C    1.318    95 N    1.240    92 C    1.171
    92   6 C    3.958 --    93 C    1.657    91 C    1.171   118 H    0.973
    93   6 C    3.955 --    92 C    1.657    94 C    1.170   119 H    0.975
    94   6 C    3.916 --    64 C    1.362    95 N    1.229    93 C    1.170
    95   7 N    3.244 --    91 C    1.240    94 C    1.229    63 Cu   0.505
    96   7 N    3.247 --    77 C    1.256    80 C    1.223    63 Cu   0.501
    97   6 C    3.986 --   105 C    1.387    98 C    1.386    70 C    1.028
    98   6 C    3.987 --    99 C    1.464    97 C    1.386   120 H    0.972
                           104 C    0.103
    99   6 C    3.990 --    98 C    1.464   100 C    1.385   121 H    0.968
                           105 C    0.103
   100   6 C    3.983 --   104 C    1.388    99 C    1.385   101 C    1.010
   101   6 C    3.836 --   103 O    1.689   102 O    1.087   100 C    1.010
   102   8 O    2.096 --   101 C    1.087   122 H    0.838   103 O    0.128
   103   8 O    1.958 --   101 C    1.689   102 O    0.128
   104   6 C    3.991 --   105 C    1.461   100 C    1.388   123 H    0.970
                            98 C    0.103
   105   6 C    3.988 --   104 C    1.461    97 C    1.387   124 H    0.972
                            99 C    0.103
   106   1 H    1.001 --    64 C    0.971
   107   1 H    0.997 --    66 C    0.975
   108   1 H    1.004 --    67 C    0.973
   109   1 H    1.004 --    72 C    0.973
   110   1 H    1.002 --    73 C    0.974
   111   1 H    1.002 --    78 C    0.974
   112   1 H    1.004 --    79 C    0.973
   113   1 H    1.004 --    83 C    0.972
   114   1 H    1.005 --    84 C    0.968
   115   1 H    0.873 --    87 O    0.838
   116   1 H    1.005 --    89 C    0.970
   117   1 H    1.004 --    90 C    0.972
   118   1 H    1.004 --    92 C    0.973
   119   1 H    0.997 --    93 C    0.975
   120   1 H    1.004 --    98 C    0.972
   121   1 H    1.005 --    99 C    0.968
   122   1 H    0.873 --   102 O    0.838
   123   1 H    1.005 --   104 C    0.970
   124   1 H    1.004 --   105 C    0.972
   125   6 C    3.927 --   126 C    2.373   129 C    1.332   128 C    0.191
   126   6 C    3.927 --   125 C    2.373   127 C    1.332   130 C    0.191
   127   6 C    3.936 --   128 C    2.454   126 C    1.332
   128   6 C    3.892 --   127 C    2.454    14 C    1.187   125 C    0.191
   129   6 C    3.936 --   130 C    2.454   125 C    1.332
   130   6 C    3.892 --   129 C    2.454    76 C    1.187   126 C    0.191
 ---------------------------------------------------------------------------

           -------------------------------------------------
          | TOTAL ENERGY             -248.987321118960 Eh   |
          | GRADIENT NORM               0.000898955428 Eh/α |
          | HOMO-LUMO GAP               0.000016631752 eV   |
           -------------------------------------------------

 * finished run on 2022/07/30 at 09:55:13.815
