   * xtb version 6.5.1 (b24c23e) compiled by 'conda@728c89f4b128' on 2022-07-12
          program call               : xtb Co_BSA_C4_3.xyz --gfn 1 --opt -T 48

   ID    Z sym.   atoms
    1   27 Co     1, 65, 137
    2    6 C      2-6, 8-12, 17-21, 23-28, 30-34, 39-44, 66-70, 72-76, 81-85,
                  87-92, 94-98, 103-108, 129-136, 138-142, 144-148, 153-157,
                  159-164, 166-170, 175-180
    3    7 N      7, 22, 29, 45, 71, 86, 93, 109, 143, 158, 165, 181
    4   16 S      13, 35, 77, 99, 149, 171
    5    8 O      14-16, 36-38, 78-80, 100-102, 150-152, 172-174
    6    1 H      46-64, 110-128, 182-199

          :  Hamiltonian                  GFN1-xTB          :
 * total energy  :  -404.0433050 Eh     change       -0.1979515E-08 Eh
 * total energy  :  -404.3512813 Eh     change       -0.3079763E+00 Eh
 * total energy  :  -404.5056057 Eh     change       -0.1543245E+00 Eh
 * total energy  :  -404.5862385 Eh     change       -0.8063276E-01 Eh
 * total energy  :  -404.6521762 Eh     change       -0.6593771E-01 Eh
 * total energy  :  -404.7037792 Eh     change       -0.5160297E-01 Eh
 * total energy  :  -404.7316574 Eh     change       -0.2787818E-01 Eh
 * total energy  :  -404.7519377 Eh     change       -0.2028035E-01 Eh
 * total energy  :  -404.7659697 Eh     change       -0.1403199E-01 Eh
 * total energy  :  -404.7826454 Eh     change       -0.1667566E-01 Eh
 * total energy  :  -404.9013367 Eh     change       -0.4576881E-04 Eh
 * total energy  :  -404.9013567 Eh     change       -0.1998870E-04 Eh
 * total energy  :  -404.9013757 Eh     change       -0.1893837E-04 Eh
 * total energy  :  -404.9013904 Eh     change       -0.1472964E-04 Eh
 * total energy  :  -404.9013986 Eh     change       -0.8159902E-05 Eh
 * total energy  :  -404.9014122 Eh     change       -0.1369013E-04 Eh
 * total energy  :  -404.9014202 Eh     change       -0.8003689E-05 Eh
 * total energy  :  -404.9014288 Eh     change       -0.8562190E-05 Eh
 * total energy  :  -404.9014334 Eh     change       -0.4600315E-05 Eh
   *** GEOMETRY OPTIMIZATION CONVERGED AFTER 68 ITERATIONS ***

 final structure:
================
199
 xtb: 6.5.1 (b24c23e)
Co          34.10098143444092        0.07824332910961        0.02384177854840
C           30.73714746208579        0.21170293484992        0.07155571847774
C           31.38710654338740       -0.36752212801546        1.14093819166401
C           30.72495710294089       -0.95924619905395        2.26364385422748
C           31.68218225808051       -1.22841095070461        3.18264508335469
C           32.92701253977841       -0.78261124234888        2.62731870568317
N           32.74330559410905       -0.32695912886524        1.34693822895221
C           34.11812319755148       -0.69098888448851        3.33578687418690
C           34.13471500971942       -1.03975801766137        4.77377939361490
C           33.31047449142177       -0.36318610550096        5.67679850889739
C           33.33242479178720       -0.68341776634227        7.02411469521613
C           34.18064051692851       -1.69076942251177        7.45504505692698
S           34.22056848955918       -2.09187870196667        9.16150804240348
O           33.86917334525857       -0.95604414803881        9.96220299417551
O           32.97216782093970       -3.13008419085220        9.18798590189266
O           35.41623530327071       -2.81252915205685        9.48486896395307
C           35.00935301360411       -2.37935359880374        6.58439798601073
C           34.98411390157590       -2.04658606136497        5.24016141874956
C           35.29664967603274       -0.27222219244509        2.73383109047385
C           36.53422286597224       -0.06870129562435        3.42528517625706
C           37.48012141597432        0.14608868285688        2.47882989204939
N           35.47323751712126       -0.10829180047955        1.38026168276767
C           36.81788787495598        0.07717290320924        1.21472658955488
C           37.48519657482534        0.01052794051747       -0.01055039205760
C           36.79181629731684       -0.04773749814797       -1.22203337549197
C           37.42382500700344       -0.17098132474763       -2.49722532850938
C           36.46438564218922        0.04733476368009       -3.42933116005463
C           35.25101350871999        0.31621666420040       -2.71759534718337
N           35.45142997525749        0.18000567165189       -1.36374920796065
C           34.08239042635935        0.78335426841191       -3.30217612569114
C           34.07749421674616        1.09446871342841       -4.74895834378244
C           33.18472526108771        0.44890178887702       -5.60804690986642
C           33.17748566169440        0.73953165062698       -6.96245305485260
C           34.06820857256459        1.68456454924353       -7.44463617065745
S           34.05258482354662        2.07283448415794       -9.15469948800916
O           34.51732571346435        3.40995824231365       -9.38272674697119
O           35.22203180046043        1.05691879087277       -9.64338864673282
O           32.81443090133082        1.66642095696230       -9.74907295175761
C           34.96126133980971        2.34580691695976       -6.61690036980392
C           34.96428819415902        2.04307087094074       -5.26556062425450
C           32.92102824135140        0.97543162323128       -2.56458183713456
C           31.69990837057826        1.50957881828215       -3.09391937857986
C           30.75494179129448        1.34787499228987       -2.13793287495090
C           31.40084866054621        0.72552335586701       -1.02212844643831
N           32.74183109796301        0.56583807347415       -1.26855830487303
H           29.65486110571143        0.25877382723812        0.08838580870631
H           29.66246669743115       -1.13273358666021        2.32426588107321
H           31.56880013166048       -1.68190140033239        4.15396894549818
H           32.66456359007567        0.43123372124275        5.32158429190097
H           32.70782465337283       -0.15684382524171        7.73474119390201
H           32.79426044744580       -3.41613929855580       10.09226201222889
H           35.66360970396573       -3.15786327042225        6.95617920136455
H           35.61759866704524       -2.57923998561423        4.54049102149723
H           36.65279511210326       -0.08897559499189        4.49636548313060
H           38.53576971068865        0.32251902491212        2.60794148202990
H           38.46977517576516       -0.38749473730666       -2.64348556594277
H           36.55948135427951        0.03307661929384       -4.50288122408444
H           32.50321365998152       -0.29499986940429       -5.21226635952180
H           32.49018060148166        0.24502928023091       -7.63727417242641
H           35.50875482547337        1.28584359938847      -10.53600123583892
H           35.63497170858720        3.08849044962186       -7.02552490148998
H           35.64591133837752        2.55803742849128       -4.59866913726650
H           31.59315563015117        1.94676748700408       -4.07341838469051
H           29.70958216542784        1.61015185988053       -2.17015311998063
Co          60.84106486849252        0.06979945384129       -0.00355650590293
C           64.20739296255758        0.20858666029709       -0.00464360804136
C           63.55567098101353        0.06941180975723       -1.21130330527942
C           64.21817579013000       -0.05714916847180       -2.47391160803957
C           63.26025769911302        0.02832385336154       -3.42657930960443
C           62.01389409524464        0.22535832121620       -2.74501118303653
N           62.19831436743072        0.17416540270588       -1.38646547428220
C           60.82017552714014        0.55664446355558       -3.37065894996321
C           60.80304403984433        0.76044497072807       -4.83671105715180
C           61.60588852605354        1.74175117234705       -5.42388086523808
C           61.58425378197314        1.93986495775782       -6.79448704516203
C           60.75836205255074        1.14133332562686       -7.56918304954988
S           60.71992932293697        1.39522959165423       -9.30356655169682
O           61.04656351002449        2.75256332541326       -9.62857562057576
O           61.98727988251331        0.46238116460873       -9.70526748384153
O           59.53769319173445        0.82124728343180       -9.87524596506189
C           59.95124302719153        0.16048883738768       -7.01643884906942
C           59.97546032583452       -0.02427063111046       -5.64393669180027
C           59.63944249261115        0.71286537801503       -2.65806074893737
C           58.39828781485794        1.13916744115855       -3.23137579573075
C           57.45332419766974        0.99261474348015       -2.27154160763966
N           59.46578856536378        0.37705626272656       -1.33650156733368
C           58.11907972013964        0.48146324773633       -1.11522493882649
C           57.45515115082664       -0.01333589090194        0.00727651052718
C           58.14801742571311       -0.49391126119122        1.11857510900311
C           57.51528771406364       -1.05949118481842        2.26783488884261
C           58.47633867335773       -1.19646962784986        3.21318074139965
C           59.69206850409728       -0.70052327361450        2.64123378957600
N           59.49154046252316       -0.34155909295103        1.32901294343835
C           60.86504731584893       -0.48975225278175        3.35220411876819
C           60.87344918575252       -0.72701293872751        4.81319223539239
C           61.75764151998385       -1.65221805474077        5.37359785095704
C           61.77133189360357       -1.87298121811235        6.74107675567794
C           60.89525464158879       -1.15573433785633        7.53921796145701
S           60.92072293017052       -1.41286695717553        9.27369103900082
O           60.47683909191804       -0.24290943805222        9.97401089597551
O           59.73676687614725       -2.52070980513275        9.37236485302119
O           62.15422150500732       -2.02292500130005        9.67099900532002
C           60.01016892346330       -0.22815409756757        7.01362701240087
C           60.00089942701934       -0.01961429590288        5.64459599101899
C           62.02765447850143       -0.05225923950580        2.73235117640523
C           63.25236281819453        0.24220695947211        3.41798268448555
C           64.19558694093712        0.44050846179740        2.46751706153877
C           63.54568073892605        0.27780279480371        1.20242659492573
N           62.20413720661838        0.04306702003099        1.37556453332033
H           65.28958445642057        0.25965365337583       -0.00452412370373
H           65.28168924447741       -0.18754817108017       -2.59480902091135
H           63.37344833914631       -0.02926485374848       -4.49703373548348
H           62.23498145134322        2.36434420993601       -4.79849606666986
H           62.19196089371713        2.70624849345245       -7.25895135948193
H           62.15031655988471        0.51078410361923      -10.65511179888707
H           59.31417578984276       -0.44231693153062       -7.65136235153592
H           59.35829435865750       -0.79184877222757       -5.19173318045625
H           58.27737418990895        1.50252909342899       -4.23886414972027
H           56.39602392991684        1.19502270949304       -2.32917773972619
H           56.46756970322176       -1.30592585760204        2.32974688586755
H           58.38123282184030       -1.59277425080164        4.21099905841175
H           62.42800813492875       -2.21023764875301        4.73037872747383
H           62.45268652950911       -2.58726313068959        7.18590169599213
H           59.44664629330713       -2.61467339286475       10.28793475093977
H           59.34784076412751        0.32420569331385        7.66834411554764
H           59.32577688945900        0.71105583092055        5.21462164785167
H           63.36220937497744        0.28630758701213        4.48939902741887
H           65.24235128436263        0.66759919081663        2.59137691023819
C           40.11064334834009       -0.01583863621275       -0.03396847778978
C           38.88865680956727       -0.00551260716715       -0.02459892064253
C           41.45968766073289       -0.02064349689741       -0.03947861978216
C           42.68192228375569       -0.02624379279358       -0.04047610926676
C           53.47540471127841       -0.04943807601558        0.01399690201293
C           52.25435441249341       -0.05079904174071        0.00792757632148
C           54.82722973951746       -0.04354205649156        0.01659172717346
C           56.04796631541346       -0.03348993391769        0.01488988652110
Co          47.46659266059367       -0.05341232157503        0.00962513060215
C           44.08448767040975       -0.02708412324306       -0.03871907272669
C           44.76543743354835        0.81897653715299        0.84210828568000
C           44.12472402008481        1.68039495286225        1.78427575240894
C           45.07888475239918        2.52247298042097        2.25283924090133
C           46.29783142201174        2.17637486882015        1.58644192438904
N           46.10464725734719        1.08223396086689        0.77744920159831
C           47.46587222757132        2.92675396524549        1.62628853399469
C           47.46303190123731        4.21998292650383        2.34430985101202
C           48.35878475909071        4.44864099516263        3.39189239571613
C           48.35572805044383        5.65751828361113        4.06833822042909
C           47.45232176817172        6.63370089249334        3.68159464881488
S           47.45215824235290        8.17390297514347        4.52079633690485
O           47.00756742275327        9.22924612649960        3.65809578923983
O           46.25801180038997        7.87051443858519        5.57835812984056
O           48.67519685124991        8.34844107249361        5.24505476486453
C           46.55652321666280        6.43911519798603        2.64247620258079
C           46.56319654578272        5.22451811772925        1.97744794458519
C           48.63479531508203        2.49576680162208        1.01187016675968
C           49.85655087521334        3.24132673747243        0.96636882449877
C           50.81190652673948        2.39737477413015        0.50517496155235
N           48.82510229110125        1.23619755159660        0.49545340844676
C           50.16905669565092        1.14535182323673        0.25904149451152
C           50.84859428098098       -0.04676906587754       -0.00161970368917
C           50.16461705746990       -1.23394271801258       -0.27465123673437
C           50.79961145538978       -2.49113049595919       -0.51296023093915
C           49.84499774744888       -3.32361803150325       -0.99737620739210
C           48.63164280839985       -2.56649385322949       -1.06207949516527
N           48.82675871931381       -1.30787401007103       -0.54726374847482
C           47.46720394116783       -2.98392983051639       -1.69513898212518
C           47.46500030740717       -4.27255231903998       -2.42143587726845
C           48.37202708495801       -4.49881380866990       -3.45978317255207
C           48.36934637641848       -5.70213075388278       -4.14606185538528
C           47.45516397454334       -6.67550314344875       -3.77801139963840
S           47.45349974087669       -8.20806532551153       -4.63092556135305
O           46.99336089694917       -9.26829144476143       -3.78239043675493
O           46.27184047536278       -7.88723617133600       -5.69762820129612
O           48.68241305780220       -8.38449563049963       -5.34477782249001
C           46.54933693346549       -6.48406723077405       -2.74702324408745
C           46.55583267250732       -5.27494531371761       -2.07211114806183
C           46.30350647656810       -2.22727175147241       -1.66139434579162
C           45.08683193270733       -2.56868609334745       -2.33499237828231
C           44.13133651813440       -1.72998058882803       -1.86412959759571
C           44.76957689002833       -0.87244360094325       -0.91642384646240
N           46.11037787910661       -1.12921882565168       -0.85621123656121
H           43.07692096010754        1.64251619090139        2.03498077731671
H           44.97619990438076        3.30961419697171        2.98196273838690
H           49.04964488212190        3.66740690659965        3.68665989201221
H           49.04448238280859        5.84482623669888        4.88251324173180
H           45.95260378248982        8.69294169196664        5.98049248521888
H           45.87255962108753        7.22892304202403        2.35819006125585
H           45.87934985404592        5.05621904165919        1.15371237248862
H           49.96032060985141        4.27416332083880        1.25640477178749
H           51.86197856261802        2.58669918134348        0.35139751371797
H           51.84422147791700       -2.69225775920498       -0.33824486311685
H           49.94408933262022       -4.35659608292153       -1.28871571161605
H           49.07136634458817       -3.71970753325890       -3.73976149609877
H           49.06631138631744       -5.88720872164368       -4.95371572409666
H           45.96853240144036       -8.70342859998293       -6.11373868308417
H           45.85759594452146       -7.27201256032094       -2.47676403249664
H           45.86407176747127       -5.10946145475803       -1.25444078355542
H           44.98587882408199       -3.35338755664683       -3.06694570666992
H           43.08397304798940       -1.69098502278913       -2.11658445267972

          :  Hamiltonian                  GFN1-xTB          :
         :: total energy            -404.901433411113 Eh    ::
         :: gradient norm              0.000546524231 Eh/a0 ::
         :: HOMO-LUMO gap              0.004251155396 eV    ::
         :: SCC energy              -410.306956970633 Eh    ::
         :: repulsion energy           5.589651095605 Eh    ::

    * Orbital Energies and Occupations

         #    Occupation            Energy/Eh            Energy/eV
      -------------------------------------------------------------
         1        2.0000           -1.0394601             -28.2851
       ...           ...                  ...                  ...
       340        2.0000           -0.4162725             -11.3274
       341        2.0000           -0.4158675             -11.3163
       342        2.0000           -0.4144927             -11.2789
       343        1.9998           -0.4126865             -11.2298
       344        1.9997           -0.4125889             -11.2271
       345        1.9997           -0.4123989             -11.2219
       346        1.9996           -0.4122177             -11.2170
       347        1.9995           -0.4120371             -11.2121
       348        1.9994           -0.4118200             -11.2062
       349        1.9951           -0.4098259             -11.1519
       350        1.8547           -0.4065128             -11.0618
       351        1.1033           -0.4041525             -10.9975
       352        1.0618           -0.4040648             -10.9952 (HOMO)
       353        0.9874           -0.4039086             -10.9909 (LUMO)
       354                         -0.3601893              -9.8012
       355                         -0.3522727              -9.5858
       356                         -0.3502905              -9.5319
       357                         -0.3501032              -9.5268
       358                         -0.3480896              -9.4720
       359                         -0.3480075              -9.4698
       360                         -0.3282446              -8.9320
       361                         -0.3220768              -8.7642
       362                         -0.3206469              -8.7252
       363                         -0.3131106              -8.5202
       ...                                ...                  ...
       729                          1.4974623              40.7480
      -------------------------------------------------------------
                  HL-Gap            0.0001562 Eh            0.0043 eV

Wiberg/Mayer (AO) data.
largest (>0.10) Wiberg bond orders for each atom

     #   Z sym  total        # sym  WBO       # sym  WBO       # sym  WBO
 ---------------------------------------------------------------------------
     1  27 Co   3.050 --    45 N    0.641     7 N    0.641    22 N    0.635
                            29 N    0.635
     2   6 C    3.930 --    44 C    1.367     3 C    1.365    46 H    0.969
     3   6 C    3.922 --     2 C    1.365     7 N    1.199     4 C    1.174
     4   6 C    3.958 --     5 C    1.650     3 C    1.174    47 H    0.975
     5   6 C    3.963 --     4 C    1.650     6 C    1.175    48 H    0.973
     6   6 C    3.921 --     8 C    1.320     7 N    1.211     5 C    1.175
     7   7 N    3.347 --     6 C    1.211     3 C    1.199     1 Co   0.641
     8   6 C    3.931 --    19 C    1.327     6 C    1.320     9 C    1.033
     9   6 C    3.986 --    18 C    1.390    10 C    1.389     8 C    1.033
    10   6 C    3.986 --    11 C    1.451     9 C    1.389    49 H    0.971
                            17 C    0.106
    11   6 C    3.989 --    10 C    1.451    12 C    1.407    50 H    0.967
                            18 C    0.106
    12   6 C    3.930 --    17 C    1.408    11 C    1.407    13 S    0.754
    13  16 S    5.265 --    16 O    1.721    14 O    1.718    15 O    1.014
                            12 C    0.754
    14   8 O    2.077 --    13 S    1.718    16 O    0.139
    15   8 O    2.088 --    13 S    1.014    51 H    0.827
    16   8 O    2.080 --    13 S    1.721    14 O    0.139
    17   6 C    3.989 --    18 C    1.450    12 C    1.408    52 H    0.966
                            10 C    0.106
    18   6 C    3.985 --    17 C    1.450     9 C    1.390    53 H    0.971
                            11 C    0.106
    19   6 C    3.917 --     8 C    1.327    22 N    1.196    20 C    1.181
    20   6 C    3.958 --    21 C    1.637    19 C    1.181    54 H    0.973
    21   6 C    3.961 --    20 C    1.637    23 C    1.189    55 H    0.973
    22   7 N    3.348 --    23 C    1.224    19 C    1.196     1 Co   0.635
    23   6 C    3.903 --    24 C    1.263    22 N    1.224    21 C    1.189
    24   6 C    3.934 --    23 C    1.263    25 C    1.261   130 C    1.186
    25   6 C    3.903 --    24 C    1.261    29 N    1.226    26 C    1.190
    26   6 C    3.960 --    27 C    1.637    25 C    1.190    56 H    0.973
    27   6 C    3.958 --    26 C    1.637    28 C    1.181    57 H    0.973
    28   6 C    3.917 --    30 C    1.328    29 N    1.194    27 C    1.181
    29   7 N    3.348 --    25 C    1.226    28 C    1.194     1 Co   0.635
    30   6 C    3.931 --    28 C    1.328    41 C    1.318    31 C    1.033
    31   6 C    3.986 --    32 C    1.391    40 C    1.388    30 C    1.033
    32   6 C    3.985 --    33 C    1.449    31 C    1.391    58 H    0.971
                            39 C    0.106
    33   6 C    3.989 --    32 C    1.449    34 C    1.408    59 H    0.966
                            40 C    0.106
    34   6 C    3.930 --    33 C    1.408    39 C    1.406    35 S    0.754
    35  16 S    5.267 --    38 O    1.726    36 O    1.715    37 O    1.014
                            34 C    0.754
    36   8 O    2.074 --    35 S    1.715    38 O    0.139
    37   8 O    2.088 --    35 S    1.014    60 H    0.828
    38   8 O    2.084 --    35 S    1.726    36 O    0.139
    39   6 C    3.989 --    40 C    1.451    34 C    1.406    61 H    0.967
                            32 C    0.106
    40   6 C    3.986 --    39 C    1.451    31 C    1.388    62 H    0.971
                            33 C    0.106
    41   6 C    3.921 --    30 C    1.318    45 N    1.212    42 C    1.175
    42   6 C    3.963 --    43 C    1.651    41 C    1.175    63 H    0.973
    43   6 C    3.960 --    42 C    1.651    44 C    1.173    64 H    0.975
    44   6 C    3.922 --     2 C    1.367    45 N    1.197    43 C    1.173
    45   7 N    3.347 --    41 C    1.212    44 C    1.197     1 Co   0.641
    46   1 H    0.999 --     2 C    0.969
    47   1 H    0.997 --     4 C    0.975
    48   1 H    1.003 --     5 C    0.973
    49   1 H    1.003 --    10 C    0.971
    50   1 H    0.999 --    11 C    0.967
    51   1 H    0.854 --    15 O    0.827
    52   1 H    1.000 --    17 C    0.966
    53   1 H    1.003 --    18 C    0.971
    54   1 H    1.002 --    20 C    0.973
    55   1 H    1.001 --    21 C    0.973
    56   1 H    1.001 --    26 C    0.973
    57   1 H    1.003 --    27 C    0.973
    58   1 H    1.003 --    32 C    0.971
    59   1 H    1.000 --    33 C    0.966
    60   1 H    0.854 --    37 O    0.828
    61   1 H    0.999 --    39 C    0.967
    62   1 H    1.003 --    40 C    0.971
    63   1 H    1.002 --    42 C    0.973
    64   1 H    0.997 --    43 C    0.975
    65  27 Co   3.061 --    71 N    0.646   109 N    0.646    93 N    0.641
                            86 N    0.640
    66   6 C    3.937 --   108 C    1.367    67 C    1.366   110 H    0.969
    67   6 C    3.921 --    66 C    1.366    71 N    1.198    68 C    1.173
    68   6 C    3.959 --    69 C    1.651    67 C    1.173   111 H    0.975
    69   6 C    3.962 --    68 C    1.651    70 C    1.174   112 H    0.973
    70   6 C    3.921 --    72 C    1.324    71 N    1.208    69 C    1.174
    71   7 N    3.352 --    70 C    1.208    67 C    1.198    65 Co   0.646
    72   6 C    3.938 --    83 C    1.325    70 C    1.324    73 C    1.032
    73   6 C    3.986 --    82 C    1.390    74 C    1.390    72 C    1.032
    74   6 C    3.987 --    75 C    1.451    73 C    1.390   113 H    0.971
                            81 C    0.106
    75   6 C    3.989 --    74 C    1.451    76 C    1.407   114 H    0.967
                            82 C    0.106
    76   6 C    3.930 --    81 C    1.408    75 C    1.407    77 S    0.754
    77  16 S    5.265 --    80 O    1.720    78 O    1.719    79 O    1.013
                            76 C    0.754
    78   8 O    2.077 --    77 S    1.719    80 O    0.139
    79   8 O    2.088 --    77 S    1.013   115 H    0.827
    80   8 O    2.079 --    77 S    1.720    78 O    0.139
    81   6 C    3.989 --    82 C    1.450    76 C    1.408   116 H    0.967
                            74 C    0.106
    82   6 C    3.985 --    81 C    1.450    73 C    1.390   117 H    0.971
                            75 C    0.106
    83   6 C    3.917 --    72 C    1.325    86 N    1.197    84 C    1.181
    84   6 C    3.960 --    85 C    1.639    83 C    1.181   118 H    0.973
    85   6 C    3.961 --    84 C    1.639    87 C    1.188   119 H    0.973
    86   7 N    3.354 --    87 C    1.218    83 C    1.197    65 Co   0.640
    87   6 C    3.906 --    88 C    1.272    86 N    1.218    85 C    1.188
    88   6 C    3.944 --    87 C    1.272    89 C    1.271   136 C    1.170
    89   6 C    3.906 --    88 C    1.271    93 N    1.220    90 C    1.189
    90   6 C    3.961 --    91 C    1.638    89 C    1.189   120 H    0.973
    91   6 C    3.960 --    90 C    1.638    92 C    1.181   121 H    0.973
    92   6 C    3.917 --    94 C    1.327    93 N    1.196    91 C    1.181
    93   7 N    3.353 --    89 C    1.220    92 C    1.196    65 Co   0.641
    94   6 C    3.938 --    92 C    1.327   105 C    1.322    95 C    1.032
    95   6 C    3.986 --    96 C    1.391   104 C    1.389    94 C    1.032
    96   6 C    3.986 --    97 C    1.449    95 C    1.391   122 H    0.971
                           103 C    0.106
    97   6 C    3.989 --    96 C    1.449    98 C    1.408   123 H    0.966
                           104 C    0.106
    98   6 C    3.930 --    97 C    1.408   103 C    1.406    99 S    0.754
    99  16 S    5.266 --   102 O    1.726   100 O    1.714   101 O    1.013
                            98 C    0.754
   100   8 O    2.073 --    99 S    1.714   102 O    0.139
   101   8 O    2.088 --    99 S    1.013   124 H    0.828
   102   8 O    2.084 --    99 S    1.726   100 O    0.139
   103   6 C    3.989 --   104 C    1.451    98 C    1.406   125 H    0.967
                            96 C    0.106
   104   6 C    3.987 --   103 C    1.451    95 C    1.389   126 H    0.971
                            97 C    0.106
   105   6 C    3.921 --    94 C    1.322   109 N    1.209   106 C    1.174
   106   6 C    3.963 --   107 C    1.651   105 C    1.174   127 H    0.973
   107   6 C    3.960 --   106 C    1.651   108 C    1.173   128 H    0.975
   108   6 C    3.921 --    66 C    1.367   109 N    1.197   107 C    1.173
   109   7 N    3.353 --   105 C    1.209   108 C    1.197    65 Co   0.646
   110   1 H    0.999 --    66 C    0.969
   111   1 H    0.997 --    68 C    0.975
   112   1 H    1.003 --    69 C    0.973
   113   1 H    1.003 --    74 C    0.971
   114   1 H    0.999 --    75 C    0.967
   115   1 H    0.854 --    79 O    0.827
   116   1 H    1.000 --    81 C    0.967
   117   1 H    1.003 --    82 C    0.971
   118   1 H    1.002 --    84 C    0.973
   119   1 H    1.000 --    85 C    0.973
   120   1 H    1.001 --    90 C    0.973
   121   1 H    1.003 --    91 C    0.973
   122   1 H    1.003 --    96 C    0.971
   123   1 H    1.000 --    97 C    0.966
   124   1 H    0.854 --   101 O    0.828
   125   1 H    0.999 --   103 C    0.967
   126   1 H    1.003 --   104 C    0.971
   127   1 H    1.003 --   106 C    0.973
   128   1 H    0.997 --   107 C    0.975
   129   6 C    3.931 --   130 C    2.471   131 C    1.310
   130   6 C    3.914 --   129 C    2.471    24 C    1.186   132 C    0.196
   131   6 C    3.926 --   132 C    2.469   129 C    1.310
   132   6 C    3.919 --   131 C    2.469   138 C    1.190   130 C    0.196
   133   6 C    3.926 --   134 C    2.485   135 C    1.295
   134   6 C    3.918 --   133 C    2.485   160 C    1.177   136 C    0.196
   135   6 C    3.934 --   136 C    2.489   133 C    1.295
   136   6 C    3.913 --   135 C    2.489    88 C    1.170   134 C    0.196
   137  27 Co   3.087 --   158 N    0.640   181 N    0.638   165 N    0.633
                           143 N    0.632
   138   6 C    3.926 --   180 C    1.259   139 C    1.257   132 C    1.190
   139   6 C    3.905 --   138 C    1.257   143 N    1.228   140 C    1.192
   140   6 C    3.959 --   141 C    1.634   139 C    1.192   182 H    0.974
   141   6 C    3.960 --   140 C    1.634   142 C    1.183   183 H    0.973
   142   6 C    3.916 --   144 C    1.322   143 N    1.196   141 C    1.183
   143   7 N    3.343 --   139 C    1.228   142 C    1.196   137 Co   0.632
   144   6 C    3.928 --   142 C    1.322   155 C    1.321   145 C    1.035
   145   6 C    3.986 --   146 C    1.390   154 C    1.388   144 C    1.035
   146   6 C    3.984 --   147 C    1.449   145 C    1.390   184 H    0.971
                           153 C    0.106
   147   6 C    3.989 --   146 C    1.449   148 C    1.409   185 H    0.966
                           154 C    0.106
   148   6 C    3.931 --   147 C    1.409   153 C    1.406   149 S    0.754
   149  16 S    5.268 --   152 O    1.727   150 O    1.715   151 O    1.015
                           148 C    0.754
   150   8 O    2.074 --   149 S    1.715   152 O    0.139
   151   8 O    2.089 --   149 S    1.015   186 H    0.827
   152   8 O    2.085 --   149 S    1.727   150 O    0.139
   153   6 C    3.989 --   154 C    1.452   148 C    1.406   187 H    0.967
                           146 C    0.106
   154   6 C    3.984 --   153 C    1.452   145 C    1.388   188 H    0.971
                           147 C    0.106
   155   6 C    3.916 --   144 C    1.321   158 N    1.198   156 C    1.182
   156   6 C    3.961 --   157 C    1.637   155 C    1.182   189 H    0.973
   157   6 C    3.959 --   156 C    1.637   159 C    1.189   190 H    0.973
   158   7 N    3.342 --   159 C    1.223   155 C    1.198   137 Co   0.640
   159   6 C    3.907 --   160 C    1.266   158 N    1.223   157 C    1.189
   160   6 C    3.928 --   159 C    1.266   161 C    1.264   134 C    1.177
   161   6 C    3.906 --   160 C    1.264   165 N    1.223   162 C    1.191
   162   6 C    3.959 --   163 C    1.635   161 C    1.191   191 H    0.973
   163   6 C    3.961 --   162 C    1.635   164 C    1.184   192 H    0.973
   164   6 C    3.916 --   166 C    1.318   165 N    1.199   163 C    1.184
   165   7 N    3.344 --   161 C    1.223   164 C    1.199   137 Co   0.633
   166   6 C    3.928 --   177 C    1.325   164 C    1.318   167 C    1.035
   167   6 C    3.986 --   168 C    1.390   176 C    1.387   166 C    1.035
   168   6 C    3.984 --   169 C    1.449   167 C    1.390   193 H    0.971
                           175 C    0.106
   169   6 C    3.989 --   168 C    1.449   170 C    1.409   194 H    0.966
                           176 C    0.106
   170   6 C    3.931 --   169 C    1.409   175 C    1.406   171 S    0.754
   171  16 S    5.268 --   174 O    1.727   172 O    1.715   173 O    1.014
                           170 C    0.754
   172   8 O    2.074 --   171 S    1.715   174 O    0.139
   173   8 O    2.089 --   171 S    1.014   195 H    0.827
   174   8 O    2.085 --   171 S    1.727   172 O    0.139
   175   6 C    3.989 --   176 C    1.452   170 C    1.406   196 H    0.967
                           168 C    0.106
   176   6 C    3.984 --   175 C    1.452   167 C    1.387   197 H    0.971
                           169 C    0.106
   177   6 C    3.916 --   166 C    1.325   181 N    1.194   178 C    1.182
   178   6 C    3.960 --   179 C    1.636   177 C    1.182   198 H    0.973
   179   6 C    3.959 --   178 C    1.636   180 C    1.190   199 H    0.973
   180   6 C    3.905 --   138 C    1.259   181 N    1.228   179 C    1.190
   181   7 N    3.341 --   180 C    1.228   177 C    1.194   137 Co   0.638
   182   1 H    1.000 --   140 C    0.974
   183   1 H    1.002 --   141 C    0.973
   184   1 H    1.003 --   146 C    0.971
   185   1 H    1.000 --   147 C    0.966
   186   1 H    0.854 --   151 O    0.827
   187   1 H    0.999 --   153 C    0.967
   188   1 H    1.003 --   154 C    0.971
   189   1 H    1.002 --   156 C    0.973
   190   1 H    1.000 --   157 C    0.973
   191   1 H    1.000 --   162 C    0.973
   192   1 H    1.002 --   163 C    0.973
   193   1 H    1.003 --   168 C    0.971
   194   1 H    1.000 --   169 C    0.966
   195   1 H    0.854 --   173 O    0.827
   196   1 H    0.999 --   175 C    0.967
   197   1 H    1.003 --   176 C    0.971
   198   1 H    1.003 --   178 C    0.973
   199   1 H    1.001 --   179 C    0.973
 ---------------------------------------------------------------------------

           -------------------------------------------------
          | TOTAL ENERGY             -404.901433411113 Eh   |
          | GRADIENT NORM               0.000546524231 Eh/α |
          | HOMO-LUMO GAP               0.004251155396 eV   |
           -------------------------------------------------

 * finished run on 2022/07/30 at 06:50:55.130
