   * xtb version 6.5.1 (b24c23e) compiled by 'conda@728c89f4b128' on 2022-07-12
          program call               : xtb Fe_PhOH_C2_3.xyz --gfn 1 --opt -T 48

   ID    Z sym.   atoms
    1   26 Fe     1, 59, 121
    2    6 C      2-6, 8-12, 14-18, 20-25, 27-31, 33-38, 60-64, 66-70, 72-76,
                  78-83, 85-89, 91-96, 117-120, 122-126, 128-132, 134-138,
                  140-145, 147-151, 153-158
    3    7 N      7, 19, 26, 39, 65, 77, 84, 97, 127, 139, 146, 159
    4    8 O      13, 32, 71, 90, 133, 152
    5    1 H      40-58, 98-116, 160-177
########################################################################
[WARNING] Please study the warnings concerning your input carefully
-1- prog_main_parseArguments: Unknown option '-T' provided
########################################################################

          :  Hamiltonian                  GFN1-xTB          :
 * total energy  :  -316.2416893 Eh     change        0.1071817E-07 Eh
 * total energy  :  -316.7670717 Eh     change       -0.5253824E+00 Eh
 * total energy  :  -316.9062412 Eh     change       -0.1391695E+00 Eh
 * total energy  :  -316.9767258 Eh     change       -0.7048454E-01 Eh
 * total energy  :  -317.0026545 Eh     change       -0.2592873E-01 Eh
 * total energy  :  -317.0154119 Eh     change       -0.1275734E-01 Eh
 * total energy  :  -317.0221171 Eh     change       -0.6705201E-02 Eh
 * total energy  :  -317.0259632 Eh     change       -0.3846173E-02 Eh
 * total energy  :  -317.0277213 Eh     change       -0.1758090E-02 Eh
 * total energy  :  -317.0285121 Eh     change       -0.7907972E-03 Eh
 * total energy  :  -317.0344970 Eh     change       -0.1102205E-04 Eh
 * total energy  :  -317.0345138 Eh     change       -0.1684908E-04 Eh
 * total energy  :  -317.0345315 Eh     change       -0.1772159E-04 Eh
 * total energy  :  -317.0345527 Eh     change       -0.2116925E-04 Eh
 * total energy  :  -317.0345733 Eh     change       -0.2062991E-04 Eh
 * total energy  :  -317.0345810 Eh     change       -0.7664041E-05 Eh
 * total energy  :  -317.0345874 Eh     change       -0.6449794E-05 Eh
 * total energy  :  -317.0345939 Eh     change       -0.6480510E-05 Eh
 * total energy  :  -317.0345979 Eh     change       -0.3995524E-05 Eh
   *** GEOMETRY OPTIMIZATION CONVERGED AFTER 97 ITERATIONS ***

 final structure:
================
177
 xtb: 6.5.1 (b24c23e)
Fe          33.74968060333483       -0.05259764157186       -0.14627231228578
C           30.38648184328898       -0.05577123766295       -0.52097173465401
C           31.01499344553930       -1.27256571625079       -0.34956637120115
C           30.31992538027548       -2.52089836885468       -0.26118787762613
C           31.26416852758465       -3.48137423781538       -0.12047140942053
C           32.53688750605648       -2.82040455646131       -0.15741450382337
N           32.36753254246559       -1.46517559519709       -0.25185154668455
C           33.76044038374249       -3.48264189731340       -0.17974144115159
C           33.77553031279997       -4.96371543069808       -0.16060387214009
C           33.15215300855523       -5.69888363635947       -1.16948676364432
C           33.17531565761336       -7.08480379681018       -1.15323302109435
C           33.82090329830837       -7.75353608572963       -0.11568795224936
O           33.86525654333517       -9.10949286987182       -0.05961574721726
C           34.44584684314869       -7.03122323538898        0.89941219418983
C           34.42516693699314       -5.64835973059914        0.86991277143244
C           34.97415920343351       -2.81159309540033       -0.25439465252113
C           36.23851707977541       -3.46287257123879       -0.42667361823413
C           37.18236445256284       -2.49074951231894       -0.42624517191225
N           35.14703817283844       -1.45114292511567       -0.17654305822438
C           36.49414487715073       -1.25092034884197       -0.24583315059194
C           37.15000558729716       -0.03220143041629       -0.03371540883346
C           36.46909205906895        1.16643645625227        0.21409378371135
C           37.13167045765641        2.40047051135315        0.49907943602286
C           36.16786800890406        3.34798700113690        0.58951982890042
C           34.91740714702156        2.69057060045574        0.34850749821344
N           35.11991422542707        1.34578965912551        0.14522152167577
C           33.71065133632872        3.35954768226076        0.19876197973386
C           33.69489989929687        4.83340037124813        0.36350810591065
C           33.98726987941557        5.41148735106507        1.60086255931449
C           33.97512866914802        6.78588503595209        1.76055471072233
C           33.67625587126896        7.60559761332259        0.67371848347558
O           33.67786986078356        8.95026155315016        0.86432212564946
C           33.38838219331267        7.04290275938326       -0.56746765718582
C           33.39573099521140        5.66450012319027       -0.71609500427944
C           32.52428918670674        2.71105185760252       -0.13188393817034
C           31.27176794372343        3.38046056841232       -0.33490492690500
C           30.34699247685915        2.42004036418224       -0.57031910475426
C           31.02970336400433        1.16432680042550       -0.48536257387296
N           32.36421389208244        1.35646581054625       -0.23927761447338
H           29.31017278466659       -0.05644588760958       -0.65264960409685
H           29.24715601962614       -2.62781015099817       -0.29174498006017
H           31.12237148778227       -4.54338025447513       -0.00216014554865
H           32.66306301075649       -5.18035681534755       -1.98656357391704
H           32.69605589211356       -7.65102650582591       -1.94468226616751
H           33.39910587202179       -9.50851854520938       -0.80652138302395
H           34.94146427583805       -7.56428409837722        1.70133508290499
H           34.90294599073408       -5.08621672327894        1.66447548310102
H           36.37569127524333       -4.52528449996564       -0.54584865897081
H           38.25098112294461       -2.59270009761556       -0.52463678238270
H           38.19829211972937        2.51582954174843        0.60363585150766
H           36.28613712735103        4.40284150964871        0.77634597737636
H           34.20998657476432        4.77318031799294        2.44850365599711
H           34.19462412321145        7.23744579408194        2.72013750198510
H           33.44942749111108        9.42164414858871        0.05192885321533
H           33.16198705489595        7.68469035978219       -1.41218369974443
H           33.18571340986939        5.22835635882763       -1.68633955199021
H           31.12697017534455        4.44762462364438       -0.28935949247747
H           29.29165316986846        2.53124389695093       -0.76286722845591
Fe          55.40543142322443        0.00768005251928       -0.22737619496950
C           58.72729371917847       -0.08627864528742       -0.83715007453641
C           58.13891906216256        1.15308395049125       -0.68076712970274
C           58.86791661740484        2.38502916846666       -0.69454735351897
C           57.96658610135897        3.37157564415822       -0.47429769158234
C           56.68088405599423        2.74335202827516       -0.37268593260896
N           56.80786989015161        1.38262631498781       -0.45564994125337
C           55.47556223060445        3.43479032096593       -0.30068820682178
C           55.49126098794980        4.91576839511284       -0.29878326071097
C           56.04925424724669        5.62818610252944       -1.36087890488370
C           56.04647831924471        7.01438009389127       -1.36248261536903
C           55.48717990186405        7.70613704372128       -0.29049982782191
O           55.46488268608946        9.06290668542556       -0.25092508012941
C           54.92753062727684        7.00648102609597        0.77739229587737
C           54.92659269748530        5.62330789462372        0.76587187084750
C           54.24338026014127        2.79254679535602       -0.29620649066465
C           52.98985236169504        3.47198546700767       -0.43223582637008
C           52.02675747850750        2.51882365775292       -0.42642945383082
N           54.04215130747541        1.43688143684335       -0.21297164761568
C           52.69018394945350        1.26439176818557       -0.26054528373327
C           52.01200089483503        0.05240271213555       -0.07576572722093
C           52.67536557258325       -1.15350927929902        0.19159735088757
C           51.99845257617868       -2.35627831924168        0.56281480851529
C           52.95387621787320       -3.29579916568737        0.76247521464527
C           54.21311845563026       -2.66851767164726        0.49016169380434
N           54.02401209468243       -1.34504196229008        0.16914682143925
C           55.41375723234145       -3.35956445437716        0.40584945740408
C           55.41712365203877       -4.80693544152602        0.72786623348689
C           55.14367372583140       -5.23897421583983        2.02767314036825
C           55.14695522333193       -6.58659597781024        2.34071106799700
C           55.41532041865383       -7.52633852776162        1.34690255107321
O           55.40699442694493       -8.84061640226079        1.68767392737844
C           55.68013440631581       -7.10992662207383        0.04439377860851
C           55.68322290501185       -5.75692357104251       -0.25810026434172
C           56.59637129599158       -2.76342763028570       -0.02368775915466
C           57.82767436576854       -3.46916161792334       -0.23235984137193
C           58.73898311431476       -2.55544895007202       -0.64251571213445
C           58.07498762217882       -1.28672079402254       -0.64346197970387
N           56.76138137398831       -1.43027519980923       -0.28003738734910
H           59.78772489449227       -0.11746705845057       -1.06156481870837
H           59.93438235117849        2.46369361166181       -0.83469991578633
H           58.14569736490134        4.43111397157755       -0.38949816163663
H           56.46800179156263        5.09209097421162       -2.20523445459389
H           56.47360727684934        7.56294627820826       -2.19514711486377
H           55.87658811828396        9.44561146786766       -1.03735104934068
H           54.49756594606492        7.55740132496921        1.60470709289676
H           54.49792509887982        5.07818249206291        1.59935036356391
H           52.87225495653269        4.53753899114763       -0.54349687771094
H           50.96053635703124        2.64324543844933       -0.51977306050151
H           50.93006559677929       -2.45355280822784        0.66649151580425
H           52.82595520394228       -4.32875379180021        1.04221091058120
H           54.94258662596869       -4.50634268327172        2.80122472676949
H           54.94352216042886       -6.92532974351382        3.34904392863198
H           55.60472057257517       -9.40340223914591        0.92708375466718
H           55.88045317645015       -7.84526380812752       -0.72753320943279
H           55.87436443184259       -5.43484553758779       -1.27570452746097
H           57.96794519932462       -4.52667855006412       -0.07804322835958
H           59.77643800587509       -2.70384982460462       -0.89720364932507
C           38.55343887397035       -0.01888396775768       -0.03861328450949
C           39.77227631832705       -0.01431968970268       -0.04545853913883
C           49.38940594271611        0.05299045526308       -0.10556571554008
C           50.60893162483116        0.05393331336963       -0.09166825208434
Fe          44.58041769110807        0.01939639924992       -0.08438271878239
C           41.17459439062219       -0.00665736271963       -0.05410241630746
C           41.84698999530604        0.98331812339174        0.67540921329105
C           41.19134121723548        1.94635828943686        1.50114088795264
C           42.14624212556267        2.81443040266987        1.91951834176005
C           43.37960426038720        2.38250721232128        1.33513269414422
N           43.18768399937941        1.22385670702651        0.62427086693083
C           44.57248964130241        3.09623234920568        1.39500806008980
C           44.57588914213578        4.42051797441080        2.05369687100164
C           45.43030058928769        4.67342751943140        3.13094385402069
C           45.43373664017676        5.90546116639821        3.75898812231974
C           44.58348418396545        6.91406097689980        3.30802610523648
O           44.61612437021948        8.11192497722578        3.94404462355288
C           43.73069030842126        6.67892847297340        2.23147555719759
C           43.72638365728668        5.43772975939189        1.61519676141621
C           45.76428009943970        2.61309266740046        0.86469336858516
C           46.99335791878671        3.34643016604144        0.83959383731388
C           47.95152731222505        2.48627431372282        0.41387945841247
N           45.96282250175308        1.33899768047128        0.39225866643339
C           47.30359605229867        1.23771297824827        0.16777313431669
C           47.98730188601445        0.04469929132554       -0.10928750886878
C           47.31944220839461       -1.15747856011117       -0.38397452138828
C           47.98326237178583       -2.39480638126393       -0.64566253282955
C           47.03149458068378       -3.26783548126544       -1.05987592841730
C           45.79036246209811       -2.55421577508209       -1.06074933911237
N           45.97699269110812       -1.27847035062323       -0.58894218042217
C           44.59521419503942       -3.05654196993564       -1.56561927556605
C           44.60527304206757       -4.38226035527455       -2.22185736076801
C           43.78539107429620       -5.41273448833961       -1.75872320041026
C           43.79577183458775       -6.65581198801163       -2.37116944234642
C           44.62457556774446       -6.87945078439631       -3.46858800929068
O           44.66215035432803       -8.07911420095696       -4.10150866874961
C           45.44470004430805       -5.85750387037215       -3.94453213372577
C           45.43587478114831       -4.62357783580800       -3.32008546746906
C           43.39188620026405       -2.36315340502493       -1.48025688410094
C           42.15402301436213       -2.81757507591662       -2.03806409304564
C           41.19326292553453       -1.96447593645462       -1.60287610508988
C           41.84918529623303       -0.98808832615527       -0.79289810393302
N           43.19455798169751       -1.20639402596906       -0.76770706234455
H           40.13806578046121        1.94569523830281        1.73034125635337
H           42.03280413941127        3.66657517218209        2.56961162869357
H           46.08125446425552        3.88483550884871        3.49138483479188
H           46.08763758038656        6.10026194699936        4.59998712343958
H           43.98746422855158        8.73582660234973        3.55670473231053
H           43.07514314398112        7.46845053764527        1.88006350616405
H           43.07247902194234        5.26153205438547        0.76839750325304
H           47.10193818649010        4.38401938253208        1.11012824340391
H           49.00504603797103        2.66955885357446        0.28213846371525
H           49.04210636024563       -2.56128460002569       -0.53295437862464
H           47.15140951115428       -4.30244837657411       -1.33715630996668
H           43.15017158524292       -5.24508098511971       -0.89613078064470
H           43.16356268075893       -7.45550506240334       -2.00052160965561
H           44.05515163873315       -8.71238016637930       -3.69524494788507
H           46.07982577704981       -6.04369573536952       -4.80173291083193
H           46.06345057587590       -3.82492158846303       -3.69935126507547
H           42.04207728420567       -3.67358459072356       -2.68334374385253
H           40.13536935566687       -1.98277834338873       -1.80918948000670

          :  Hamiltonian                  GFN1-xTB          :
         :: total energy            -317.034597918739 Eh    ::
         :: gradient norm              0.000652992692 Eh/a0 ::
         :: HOMO-LUMO gap              0.047507933854 eV    ::
         :: SCC energy              -321.785345497338 Eh    ::
         :: repulsion energy           4.916387692077 Eh    ::

    * Orbital Energies and Occupations

         #    Occupation            Energy/Eh            Energy/eV
      -------------------------------------------------------------
         1        2.0000           -0.8083934             -21.9975
       ...           ...                  ...                  ...
       276        2.0000           -0.3953845             -10.7590
       277        2.0000           -0.3947634             -10.7421
       278        2.0000           -0.3898400             -10.6081
       279        1.9940           -0.3850930             -10.4789
       280        1.9934           -0.3849968             -10.4763
       281        1.9876           -0.3843962             -10.4600
       282        1.9712           -0.3835866             -10.4379
       283        1.9693           -0.3835254             -10.4363
       284        1.9665           -0.3834413             -10.4340
       285        1.9644           -0.3833822             -10.4324
       286        1.9628           -0.3833389             -10.4312
       287        1.9608           -0.3832898             -10.4298
       288        1.1937           -0.3799444             -10.3388 (HOMO)
       289        0.3814           -0.3781985             -10.2913 (LUMO)
       290        0.3494           -0.3780966             -10.2885
       291        0.3055           -0.3779441             -10.2844
       292                         -0.3417977              -9.3008
       293                         -0.3296336              -8.9698
       294                         -0.3278633              -8.9216
       295                         -0.3258703              -8.8674
       296                         -0.3252496              -8.8505
       297                         -0.3191369              -8.6842
       298                         -0.2998501              -8.1593
       299                         -0.2966933              -8.0734
       ...                                ...                  ...
       611                          1.3350671              36.3290
      -------------------------------------------------------------
                  HL-Gap            0.0017459 Eh            0.0475 eV

Wiberg/Mayer (AO) data.
largest (>0.10) Wiberg bond orders for each atom

     #   Z sym  total        # sym  WBO       # sym  WBO       # sym  WBO
 ---------------------------------------------------------------------------
     1  26 Fe   3.102 --     7 N    0.661    39 N    0.660    26 N    0.655
                            19 N    0.654
     2   6 C    3.916 --    38 C    1.364     3 C    1.360    40 H    0.970
     3   6 C    3.926 --     2 C    1.360     7 N    1.212     4 C    1.174
     4   6 C    3.959 --     5 C    1.647     3 C    1.174    41 H    0.975
     5   6 C    3.962 --     4 C    1.647     6 C    1.176    42 H    0.973
     6   6 C    3.921 --     8 C    1.313     7 N    1.225     5 C    1.176
     7   7 N    3.375 --     6 C    1.225     3 C    1.212     1 Fe   0.661
     8   6 C    3.919 --    16 C    1.329     6 C    1.313     9 C    1.032
     9   6 C    3.987 --    10 C    1.392    15 C    1.381     8 C    1.032
    10   6 C    3.986 --    11 C    1.453     9 C    1.392    43 H    0.972
                            14 C    0.104
    11   6 C    3.988 --    10 C    1.453    12 C    1.371    44 H    0.970
                            15 C    0.102
    12   6 C    3.900 --    11 C    1.371    14 C    1.363    13 O    1.041
    13   8 O    2.043 --    12 C    1.041    45 H    0.865
    14   6 C    3.990 --    15 C    1.468    12 C    1.363    46 H    0.971
                            10 C    0.104
    15   6 C    3.987 --    14 C    1.468     9 C    1.381    47 H    0.973
                            11 C    0.102
    16   6 C    3.918 --     8 C    1.329    19 N    1.204    17 C    1.181
    17   6 C    3.958 --    18 C    1.637    16 C    1.181    48 H    0.973
    18   6 C    3.961 --    17 C    1.637    20 C    1.188    49 H    0.971
    19   7 N    3.374 --    20 C    1.244    16 C    1.204     1 Fe   0.654
    20   6 C    3.910 --    21 C    1.254    19 N    1.244    18 C    1.188
    21   6 C    3.918 --    20 C    1.254    22 C    1.251   117 C    1.195
    22   6 C    3.910 --    21 C    1.251    26 N    1.249    23 C    1.188
    23   6 C    3.962 --    24 C    1.639    22 C    1.188    50 H    0.970
    24   6 C    3.957 --    23 C    1.639    25 C    1.179    51 H    0.973
    25   6 C    3.918 --    27 C    1.337    26 N    1.199    24 C    1.179
    26   7 N    3.375 --    22 C    1.249    25 C    1.199     1 Fe   0.655
    27   6 C    3.919 --    25 C    1.337    35 C    1.310    28 C    1.025
    28   6 C    3.988 --    34 C    1.394    29 C    1.384    27 C    1.025
    29   6 C    3.988 --    30 C    1.466    28 C    1.384    52 H    0.973
                            33 C    0.103
    30   6 C    3.990 --    29 C    1.466    31 C    1.364    53 H    0.971
                            34 C    0.105
    31   6 C    3.901 --    33 C    1.372    30 C    1.364    32 O    1.040
    32   8 O    2.043 --    31 C    1.040    54 H    0.865
    33   6 C    3.988 --    34 C    1.452    31 C    1.372    55 H    0.970
                            29 C    0.103
    34   6 C    3.987 --    33 C    1.452    28 C    1.394    56 H    0.973
                            30 C    0.105
    35   6 C    3.920 --    27 C    1.310    39 N    1.228    36 C    1.176
    36   6 C    3.963 --    37 C    1.649    35 C    1.176    57 H    0.972
    37   6 C    3.959 --    36 C    1.649    38 C    1.173    58 H    0.975
    38   6 C    3.926 --     2 C    1.364    39 N    1.209    37 C    1.173
    39   7 N    3.375 --    35 C    1.228    38 C    1.209     1 Fe   0.660
    40   1 H    1.001 --     2 C    0.970
    41   1 H    0.998 --     4 C    0.975
    42   1 H    1.005 --     5 C    0.973
    43   1 H    1.005 --    10 C    0.972
    44   1 H    0.999 --    11 C    0.970
    45   1 H    0.887 --    13 O    0.865
    46   1 H    0.999 --    14 C    0.971
    47   1 H    1.005 --    15 C    0.973
    48   1 H    1.005 --    17 C    0.973
    49   1 H    1.005 --    18 C    0.971
    50   1 H    1.005 --    23 C    0.970
    51   1 H    1.005 --    24 C    0.973
    52   1 H    1.004 --    29 C    0.973
    53   1 H    0.999 --    30 C    0.971
    54   1 H    0.887 --    32 O    0.865
    55   1 H    0.999 --    33 C    0.970
    56   1 H    1.004 --    34 C    0.973
    57   1 H    1.005 --    36 C    0.972
    58   1 H    0.998 --    37 C    0.975
    59  26 Fe   3.124 --    65 N    0.661    97 N    0.659    84 N    0.657
                            77 N    0.653
    60   6 C    3.916 --    96 C    1.364    61 C    1.358    98 H    0.970
    61   6 C    3.926 --    60 C    1.358    65 N    1.214    62 C    1.175
    62   6 C    3.959 --    63 C    1.647    61 C    1.175    99 H    0.975
    63   6 C    3.963 --    62 C    1.647    64 C    1.176   100 H    0.972
    64   6 C    3.921 --    66 C    1.313    65 N    1.225    63 C    1.176
    65   7 N    3.375 --    64 C    1.225    61 C    1.214    59 Fe   0.661
    66   6 C    3.919 --    74 C    1.327    64 C    1.313    67 C    1.032
    67   6 C    3.987 --    68 C    1.391    73 C    1.381    66 C    1.032
    68   6 C    3.986 --    69 C    1.453    67 C    1.391   101 H    0.972
                            72 C    0.104
    69   6 C    3.988 --    68 C    1.453    70 C    1.371   102 H    0.970
                            73 C    0.102
    70   6 C    3.900 --    69 C    1.371    72 C    1.363    71 O    1.041
    71   8 O    2.044 --    70 C    1.041   103 H    0.865
    72   6 C    3.990 --    73 C    1.468    70 C    1.363   104 H    0.971
                            68 C    0.104
    73   6 C    3.986 --    72 C    1.468    67 C    1.381   105 H    0.973
                            69 C    0.102
    74   6 C    3.919 --    66 C    1.327    77 N    1.205    75 C    1.181
    75   6 C    3.958 --    76 C    1.635    74 C    1.181   106 H    0.973
    76   6 C    3.961 --    75 C    1.635    78 C    1.190   107 H    0.968
    77   7 N    3.373 --    78 C    1.245    74 C    1.205    59 Fe   0.653
    78   6 C    3.910 --    79 C    1.251    77 N    1.245    76 C    1.190
    79   6 C    3.916 --    78 C    1.251    80 C    1.246   120 C    1.200
    80   6 C    3.910 --    84 N    1.251    79 C    1.246    81 C    1.189
    81   6 C    3.962 --    82 C    1.638    80 C    1.189   108 H    0.970
    82   6 C    3.958 --    81 C    1.638    83 C    1.179   109 H    0.973
    83   6 C    3.918 --    85 C    1.337    84 N    1.198    82 C    1.179
    84   7 N    3.374 --    80 C    1.251    83 C    1.198    59 Fe   0.657
    85   6 C    3.919 --    83 C    1.337    93 C    1.308    86 C    1.026
    86   6 C    3.987 --    92 C    1.394    87 C    1.384    85 C    1.026
    87   6 C    3.987 --    88 C    1.467    86 C    1.384   110 H    0.973
                            91 C    0.102
    88   6 C    3.990 --    87 C    1.467    89 C    1.364   111 H    0.971
                            92 C    0.105
    89   6 C    3.901 --    91 C    1.372    88 C    1.364    90 O    1.041
    90   8 O    2.044 --    89 C    1.041   112 H    0.865
    91   6 C    3.988 --    92 C    1.451    89 C    1.372   113 H    0.970
                            87 C    0.102
    92   6 C    3.987 --    91 C    1.451    86 C    1.394   114 H    0.972
                            88 C    0.105
    93   6 C    3.921 --    85 C    1.308    97 N    1.230    94 C    1.176
    94   6 C    3.963 --    95 C    1.649    93 C    1.176   115 H    0.972
    95   6 C    3.960 --    94 C    1.649    96 C    1.173   116 H    0.975
    96   6 C    3.926 --    60 C    1.364    97 N    1.208    95 C    1.173
    97   7 N    3.374 --    93 C    1.230    96 C    1.208    59 Fe   0.659
    98   1 H    1.001 --    60 C    0.970
    99   1 H    0.998 --    62 C    0.975
   100   1 H    1.005 --    63 C    0.972
   101   1 H    1.005 --    68 C    0.972
   102   1 H    0.999 --    69 C    0.970
   103   1 H    0.886 --    71 O    0.865
   104   1 H    0.999 --    72 C    0.971
   105   1 H    1.004 --    73 C    0.973
   106   1 H    1.004 --    75 C    0.973
   107   1 H    1.005 --    76 C    0.968
   108   1 H    1.005 --    81 C    0.970
   109   1 H    1.005 --    82 C    0.973
   110   1 H    1.004 --    87 C    0.973
   111   1 H    0.999 --    88 C    0.971
   112   1 H    0.887 --    90 O    0.865
   113   1 H    0.999 --    91 C    0.970
   114   1 H    1.004 --    92 C    0.972
   115   1 H    1.005 --    94 C    0.972
   116   1 H    0.998 --    95 C    0.975
   117   6 C    3.916 --   118 C    2.543    21 C    1.195
   118   6 C    3.922 --   117 C    2.543   122 C    1.200
   119   6 C    3.920 --   120 C    2.538   141 C    1.203
   120   6 C    3.918 --   119 C    2.538    79 C    1.200
   121  26 Fe   3.069 --   139 N    0.648   146 N    0.647   159 N    0.646
                           127 N    0.646
   122   6 C    3.900 --   158 C    1.248   123 C    1.248   118 C    1.200
   123   6 C    3.911 --   122 C    1.248   127 N    1.246   124 C    1.195
   124   6 C    3.958 --   125 C    1.628   123 C    1.195   160 H    0.971
   125   6 C    3.959 --   124 C    1.628   126 C    1.186   161 H    0.973
   126   6 C    3.916 --   128 C    1.316   127 N    1.207   125 C    1.186
   127   7 N    3.362 --   123 C    1.246   126 C    1.207   121 Fe   0.646
   128   6 C    3.908 --   136 C    1.318   126 C    1.316   129 C    1.038
   129   6 C    3.986 --   135 C    1.388   130 C    1.377   128 C    1.038
   130   6 C    3.984 --   131 C    1.470   129 C    1.377   162 H    0.972
                           134 C    0.101
   131   6 C    3.989 --   130 C    1.470   132 C    1.361   163 H    0.970
                           135 C    0.103
   132   6 C    3.898 --   134 C    1.369   131 C    1.361   133 O    1.044
   133   8 O    2.046 --   132 C    1.044   164 H    0.864
   134   6 C    3.988 --   135 C    1.455   132 C    1.369   165 H    0.970
                           130 C    0.101
   135   6 C    3.984 --   134 C    1.455   129 C    1.388   166 H    0.972
                           131 C    0.103
   136   6 C    3.916 --   128 C    1.318   139 N    1.205   137 C    1.186
   137   6 C    3.959 --   138 C    1.629   136 C    1.186   167 H    0.973
   138   6 C    3.958 --   137 C    1.629   140 C    1.194   168 H    0.968
   139   7 N    3.362 --   140 C    1.246   136 C    1.205   121 Fe   0.648
   140   6 C    3.910 --   139 N    1.246   141 C    1.246   138 C    1.194
   141   6 C    3.900 --   142 C    1.247   140 C    1.246   119 C    1.203
   142   6 C    3.911 --   141 C    1.247   146 N    1.246   143 C    1.194
   143   6 C    3.960 --   144 C    1.630   142 C    1.194   169 H    0.970
   144   6 C    3.959 --   143 C    1.630   145 C    1.186   170 H    0.973
   145   6 C    3.916 --   147 C    1.318   146 N    1.206   144 C    1.186
   146   7 N    3.362 --   142 C    1.246   145 C    1.206   121 Fe   0.647
   147   6 C    3.908 --   145 C    1.318   155 C    1.316   148 C    1.038
   148   6 C    3.987 --   149 C    1.388   154 C    1.378   147 C    1.038
   149   6 C    3.986 --   150 C    1.455   148 C    1.388   171 H    0.972
                           153 C    0.104
   150   6 C    3.988 --   149 C    1.455   151 C    1.369   172 H    0.970
                           154 C    0.101
   151   6 C    3.898 --   150 C    1.369   153 C    1.361   152 O    1.043
   152   8 O    2.045 --   151 C    1.043   173 H    0.864
   153   6 C    3.989 --   154 C    1.470   151 C    1.361   174 H    0.971
                           149 C    0.104
   154   6 C    3.984 --   153 C    1.470   148 C    1.378   175 H    0.972
                           150 C    0.101
   155   6 C    3.916 --   147 C    1.316   159 N    1.207   156 C    1.186
   156   6 C    3.959 --   157 C    1.629   155 C    1.186   176 H    0.973
   157   6 C    3.958 --   156 C    1.629   158 C    1.194   177 H    0.971
   158   6 C    3.911 --   122 C    1.248   159 N    1.246   157 C    1.194
   159   7 N    3.362 --   158 C    1.246   155 C    1.207   121 Fe   0.646
   160   1 H    1.004 --   124 C    0.971
   161   1 H    1.004 --   125 C    0.973
   162   1 H    1.005 --   130 C    0.972
   163   1 H    0.998 --   131 C    0.970
   164   1 H    0.886 --   133 O    0.864
   165   1 H    0.999 --   134 C    0.970
   166   1 H    1.005 --   135 C    0.972
   167   1 H    1.004 --   137 C    0.973
   168   1 H    1.005 --   138 C    0.968
   169   1 H    1.005 --   143 C    0.970
   170   1 H    1.004 --   144 C    0.973
   171   1 H    1.005 --   149 C    0.972
   172   1 H    0.999 --   150 C    0.970
   173   1 H    0.886 --   152 O    0.864
   174   1 H    0.999 --   153 C    0.971
   175   1 H    1.005 --   154 C    0.972
   176   1 H    1.004 --   156 C    0.973
   177   1 H    1.004 --   157 C    0.971
 ---------------------------------------------------------------------------

           -------------------------------------------------
          | TOTAL ENERGY             -317.034597918739 Eh   |
          | GRADIENT NORM               0.000652992692 Eh/α |
          | HOMO-LUMO GAP               0.047507933854 eV   |
           -------------------------------------------------

 * finished run on 2022/07/29 at 19:49:06.004
