   * xtb version 6.5.1 (b24c23e) compiled by 'conda@728c89f4b128' on 2022-07-12
          program call               : xtb PhOH_C4_2.xyz --gfn 1 --opt -T 48

   ID    Z sym.   atoms
    1    6 C      1-5, 7-11, 13-17, 19-24, 26-30, 32-37, 60-64, 66-70, 72-76,
                  78-83, 85-89, 91-96, 119-122
    2    7 N      6, 18, 25, 38, 65, 77, 84, 97
    3    8 O      12, 31, 71, 90
    4    1 H      39-59, 98-118
########################################################################
[WARNING] Please study the warnings concerning your input carefully
-1- prog_main_parseArguments: Unknown option '-T' provided
########################################################################

          :  Hamiltonian                  GFN1-xTB          :
 * total energy  :  -210.2815136 Eh     change       -0.2675051E-09 Eh
 * total energy  :  -210.4087017 Eh     change       -0.1271881E+00 Eh
 * total energy  :  -210.4657025 Eh     change       -0.5700086E-01 Eh
 * total energy  :  -210.4901593 Eh     change       -0.2445680E-01 Eh
 * total energy  :  -210.5066507 Eh     change       -0.1649138E-01 Eh
 * total energy  :  -210.5193028 Eh     change       -0.1265211E-01 Eh
 * total energy  :  -210.5302193 Eh     change       -0.1091647E-01 Eh
 * total energy  :  -210.5383349 Eh     change       -0.8115592E-02 Eh
 * total energy  :  -210.5451313 Eh     change       -0.6796414E-02 Eh
 * total energy  :  -210.5497962 Eh     change       -0.4664934E-02 Eh
 * total energy  :  -210.5644136 Eh     change       -0.1951867E-04 Eh
 * total energy  :  -210.5644470 Eh     change       -0.3339512E-04 Eh
 * total energy  :  -210.5644565 Eh     change       -0.9556613E-05 Eh
 * total energy  :  -210.5644698 Eh     change       -0.1323849E-04 Eh
 * total energy  :  -210.5644773 Eh     change       -0.7558980E-05 Eh
 * total energy  :  -210.5644870 Eh     change       -0.9633499E-05 Eh
 * total energy  :  -210.5644981 Eh     change       -0.1116658E-04 Eh
 * total energy  :  -210.5645089 Eh     change       -0.1079029E-04 Eh
 * total energy  :  -210.5645129 Eh     change       -0.3951002E-05 Eh
   *** GEOMETRY OPTIMIZATION CONVERGED AFTER 44 ITERATIONS ***

 final structure:
================
122
 xtb: 6.5.1 (b24c23e)
C           11.65085170314838        0.12865917190225        0.00387826479157
C           12.25872396229038        1.26419576612223       -0.51613780828550
C           11.60460546193736        2.41214097534847       -1.04489920350491
C           12.56539069747188        3.30111978743137       -1.43788796859838
C           13.83780462726541        2.72858109894946       -1.15372564381804
N           13.60176575771630        1.49810532734644       -0.60860841600699
C           15.10008942131341        3.28349087214293       -1.39451131409078
C           15.13013322748429        4.65299868401509       -1.96385887950561
C           15.73070107370816        4.89467220017451       -3.19997763053817
C           15.76159418591186        6.17302813297843       -3.73505835911765
C           15.19361970930814        7.23156142576598       -3.02986090648234
O           15.20571916588086        8.50000416567131       -3.51486610581164
C           14.59183375933973        7.00446107463589       -1.79357298596172
C           14.55943306407390        5.72360061517246       -1.27108199382963
C           16.31579318396717        2.64556109312541       -1.13567875249628
C           17.61461862983178        3.26113244803880       -1.34007464131735
C           18.53464250727183        2.34149175457976       -0.98171008198979
N           16.46936202672623        1.38496332487182       -0.64392945536122
C           17.79694426450637        1.17133580453087       -0.54724442975001
C           18.43320851653138       -0.00045869469868       -0.08960918777938
C           17.79809404215261       -1.15938938504474        0.39599002825644
C           18.44281076829630       -2.34849743440559        0.82764852204204
C           17.47768933724982       -3.22829801574081        1.23362211011132
C           16.21293283287325       -2.59866881533366        1.06985744009679
N           16.45831569309262       -1.35424582474948        0.55175606749061
C           14.95279327636737       -3.13741209275505        1.35251115899613
C           14.92597749877411       -4.49564741371051        1.94676603351047
C           15.54800790429831       -4.74698267471522        3.17247256010250
C           15.52664396570293       -6.01183609290979        3.73286756376267
C           14.88422732890906       -7.05264158776072        3.06496698314957
O           14.88698035943524       -8.28313816935911        3.63978524020870
C           14.26235015444313       -6.81829039406004        1.84071965683818
C           14.28249336946350       -5.54591270353566        1.29097144780547
C           13.73657199805157       -2.48796170354662        1.11551716564578
C           12.43393527428444       -3.03723546935402        1.45770868752385
C           11.52029140810735       -2.12332931923326        1.07257254414001
C           12.26394475742848       -1.01085302917371        0.50846793425030
N           13.59506670797654       -1.26210673395014        0.55745561940786
H           10.56559596790182        0.14415002301696        0.01758296738723
H           10.53475217787316        2.52783239679590       -1.11529867024290
H           12.41177042897072        4.26559418073694       -1.89421573878016
H           14.32899243934464        0.85266971402216       -0.31916733918911
H           16.16241198871341        4.06959869394433       -3.75548767670594
H           16.22461614413573        6.35359763399681       -4.69928636403481
H           15.65349044936337        8.54554633977940       -4.37032359545467
H           14.15797209331392        7.83730031588061       -1.25407572858950
H           14.10427729387085        5.55075396510697       -0.30213376773514
H           17.77942253119972        4.26589779565906       -1.69411906679606
H           19.60958030089702        2.42639144211995       -0.99138699815993
H           19.50952988515956       -2.50441229466788        0.81856596682928
H           17.62551775667881       -4.22987871073733        1.60322485009954
H           15.73535486683204       -0.68281683631598        0.31481419726642
H           16.03615086128741       -3.93473423369478        3.69952275256718
H           16.00164653974046       -6.20659954166361        4.68645470271104
H           14.41015270172078       -8.92591470394354        3.09774954169411
H           13.76749131824266       -7.63257334392418        1.32228478445260
H           13.81037806088050       -5.36846625419821        0.33110796798299
H           12.26612677209377       -3.98730164559069        1.93913077477916
H           10.44564656275958       -2.16500515016723        1.15829119611370
C           31.82057773152443       -0.06591808993746        0.10970407425503
C           31.21258219079849       -1.11755987106206        0.78330528952164
C           31.86673419003762       -2.18353144442830        1.46231885563884
C           30.90599156093473       -2.99492845020506        1.99748897411915
C           29.63355518066225       -2.44596614386758        1.67014717177289
N           29.86954959395936       -1.32171967999042        0.93032907491069
C           28.37137806166886       -2.94868614843716        2.00688572203041
C           28.34147942452170       -4.16849208272395        2.85053291435450
C           27.74061548118199       -5.33869103381083        2.38503325963794
C           27.70967993253287       -6.48036761846146        3.17055474994099
C           28.27792149342411       -6.46016635012932        4.44220295264197
O           28.26571551225823       -7.55436570361936        5.24651053607482
C           28.88007708606184       -5.29774873358197        4.92001265489657
C           28.91250228011195       -4.16528530012245        4.12556967243655
C           27.15556287814491       -2.38601092866552        1.61053926057868
C           25.85679245611335       -2.89114091961406        2.01760826988199
C           24.93666989907278       -2.09268243663937        1.43754896604907
N           27.00189581317758       -1.29071351524041        0.81610473641937
C           25.67427736691367       -1.09427215036655        0.68837370305091
C           25.03816705912590       -0.07565924237291       -0.04993399320778
C           25.67350977345335        0.95999335642655       -0.76138019354965
C           25.02868929825991        1.96642666595302       -1.52773801799565
C           25.99368034257205        2.78437459460474       -2.04742515615941
C           27.25846006033031        2.30628993721233       -1.60630088721473
N           27.01321279854685        1.19700074926676       -0.84038577142164
C           28.51852323139161        2.83571614721622       -1.90646514136550
C           28.54520272601109        4.07028142908106       -2.72732651345781
C           27.92314575895960        5.23713884803783       -2.27574389606913
C           27.94460717268615        6.39267759909949       -3.03642763994573
C           28.58716089567415        6.39395815469647       -4.27302957666917
O           28.58460626661245        7.54308305443124       -4.99694824433988
C           29.20896744190376        5.23748362551725       -4.73816676713544
C           29.18871708117480        4.08683631396341       -3.96540343052717
C           29.73485167339475        2.28508092506982       -1.48876363810113
C           31.03748794428333        2.86991924911093       -1.76584134311943
C           31.95119426785539        2.05143012246885       -1.20590466302952
C           31.20758259688618        0.97518518211398       -0.57538373432956
N           29.87644682606322        1.15246694795444       -0.75982250388967
H           32.90583800070468       -0.06308094020770        0.12996437922346
H           32.93658186672140       -2.30551281802815        1.52119652360318
H           31.05961102706718       -3.90064115380842        2.56151658890736
H           29.14231982752249       -0.72896394425124        0.54433594478634
H           27.30866247235737       -5.35929389384148        1.39069581273451
H           27.24637943249257       -7.38885731711520        2.80079027422027
H           27.81760727347772       -8.29826283614980        4.82202508556210
H           29.31422437495099       -5.29480601935903        5.91219453645170
H           29.36794182254893       -3.25699436137905        4.50436795917972
H           25.69204862182376       -3.73227627791970        2.67137922602347
H           23.86173512039077       -2.14714059437457        1.50350779162683
H           23.96197779075582        2.04267572492524       -1.66406939971118
H           25.84577130087019        3.63728098841898       -2.68952203999556
H           27.73630391507487        0.63462757659262       -0.40391654701879
H           27.43492089891171        5.24107407324994       -1.30753199689448
H           27.46959667291765        7.30007484027291       -2.68445207418156
H           29.06159446999289        7.43491084110927       -5.83068154821180
H           29.70385805294008        5.24188945289501       -5.70345411270164
H           29.66078634040628        3.18352244512333       -4.33539231921951
H           31.20528449767204        3.78880740969751       -2.30440234702298
H           33.02585471064870        2.14595710380180       -1.19488412573515
C           21.06109041843813       -0.04664619785766       -0.10440076661021
C           19.83900774221726       -0.02494668529818       -0.10441235274664
C           22.41036449124318       -0.06202507481729       -0.09460112531664
C           23.63238574590387       -0.07504135554712       -0.07847311367737

          :  Hamiltonian                  GFN1-xTB          :
         :: total energy            -210.564512881715 Eh    ::
         :: gradient norm              0.000528772395 Eh/a0 ::
         :: HOMO-LUMO gap              0.991963915500 eV    ::
         :: SCC energy              -213.869841322428 Eh    ::
         :: repulsion energy           3.407069453468 Eh    ::

    * Orbital Energies and Occupations

         #    Occupation            Energy/Eh            Energy/eV
      -------------------------------------------------------------
         1        2.0000           -0.8053037             -21.9134
       ...           ...                  ...                  ...
       177        2.0000           -0.4187154             -11.3938
       178        2.0000           -0.4183439             -11.3837
       179        2.0000           -0.4181036             -11.3772
       180        2.0000           -0.4166638             -11.3380
       181        2.0000           -0.4154872             -11.3060
       182        2.0000           -0.4143415             -11.2748
       183        2.0000           -0.4142120             -11.2713
       184        2.0000           -0.4130331             -11.2392
       185        2.0000           -0.4130215             -11.2389
       186        2.0000           -0.3968152             -10.7979
       187        2.0000           -0.3963919             -10.7864
       188        2.0000           -0.3857272             -10.4962
       189        2.0000           -0.3752549             -10.2112 (HOMO)
       190                         -0.3388009              -9.2192 (LUMO)
       191                         -0.3285881              -8.9413
       192                         -0.3283951              -8.9361
       193                         -0.3255182              -8.8578
       194                         -0.2971332              -8.0854
       195                         -0.2897343              -7.8841
       196                         -0.2672307              -7.2717
       197                         -0.2672293              -7.2717
       198                         -0.2669617              -7.2644
       199                         -0.2669585              -7.2643
       200                         -0.2565173              -6.9802
       ...                                ...                  ...
       404                          1.5188030              41.3287
      -------------------------------------------------------------
                  HL-Gap            0.0364540 Eh            0.9920 eV

Wiberg/Mayer (AO) data.
largest (>0.10) Wiberg bond orders for each atom

     #   Z sym  total        # sym  WBO       # sym  WBO       # sym  WBO
 ---------------------------------------------------------------------------
     1   6 C    3.924 --    37 C    1.365     2 C    1.346    39 H    0.971
     2   6 C    3.903 --     1 C    1.346     3 C    1.230     6 N    1.170
     3   6 C    3.953 --     4 C    1.594     2 C    1.230    40 H    0.977
     4   6 C    3.959 --     3 C    1.594     5 C    1.236    41 H    0.974
     5   6 C    3.896 --     7 C    1.302     4 C    1.236     6 N    1.176
     6   7 N    3.469 --     5 C    1.176     2 C    1.170    42 H    0.873
     7   6 C    3.939 --    15 C    1.335     5 C    1.302     8 C    1.030
     8   6 C    3.989 --     9 C    1.392    14 C    1.384     7 C    1.030
     9   6 C    3.988 --    10 C    1.453     8 C    1.392    43 H    0.972
                            13 C    0.105
    10   6 C    3.988 --     9 C    1.453    11 C    1.371    44 H    0.970
                            14 C    0.102
    11   6 C    3.900 --    10 C    1.371    13 C    1.364    12 O    1.040
    12   8 O    2.043 --    11 C    1.040    45 H    0.865
    13   6 C    3.990 --    14 C    1.466    11 C    1.364    46 H    0.971
                             9 C    0.105
    14   6 C    3.987 --    13 C    1.466     8 C    1.384    47 H    0.973
                            10 C    0.102
    15   6 C    3.915 --     7 C    1.335    18 N    1.286    16 C    1.126
    16   6 C    3.966 --    17 C    1.708    15 C    1.126    48 H    0.974
    17   6 C    3.964 --    16 C    1.708    19 C    1.129    49 H    0.974
    18   7 N    3.022 --    19 C    1.345    15 C    1.286
    19   6 C    3.910 --    18 N    1.345    20 C    1.254    17 C    1.129
    20   6 C    3.935 --    19 C    1.254    21 C    1.251   120 C    1.190
    21   6 C    3.886 --    20 C    1.251    22 C    1.250    25 N    1.189
    22   6 C    3.959 --    23 C    1.582    21 C    1.250    50 H    0.975
    23   6 C    3.955 --    22 C    1.582    24 C    1.242    51 H    0.974
    24   6 C    3.898 --    26 C    1.308    23 C    1.242    25 N    1.165
    25   7 N    3.474 --    21 C    1.189    24 C    1.165    52 H    0.873
    26   6 C    3.925 --    34 C    1.321    24 C    1.308    27 C    1.032
    27   6 C    3.989 --    33 C    1.392    28 C    1.383    26 C    1.032
    28   6 C    3.986 --    29 C    1.467    27 C    1.383    53 H    0.973
                            32 C    0.102
    29   6 C    3.990 --    28 C    1.467    30 C    1.364    54 H    0.971
                            33 C    0.105
    30   6 C    3.900 --    32 C    1.371    29 C    1.364    31 O    1.040
    31   8 O    2.043 --    30 C    1.040    55 H    0.865
    32   6 C    3.988 --    33 C    1.453    30 C    1.371    56 H    0.970
                            28 C    0.102
    33   6 C    3.987 --    32 C    1.453    27 C    1.392    57 H    0.972
                            29 C    0.105
    34   6 C    3.929 --    26 C    1.321    38 N    1.317    35 C    1.119
    35   6 C    3.967 --    36 C    1.721    34 C    1.119    58 H    0.974
    36   6 C    3.966 --    35 C    1.721    37 C    1.118    59 H    0.976
    37   6 C    3.930 --     1 C    1.365    38 N    1.301    36 C    1.118
    38   7 N    3.011 --    34 C    1.317    37 C    1.301
    39   1 H    1.002 --     1 C    0.971
    40   1 H    0.998 --     3 C    0.977
    41   1 H    1.005 --     4 C    0.974
    42   1 H    0.986 --     6 N    0.873
    43   1 H    1.005 --     9 C    0.972
    44   1 H    0.999 --    10 C    0.970
    45   1 H    0.887 --    12 O    0.865
    46   1 H    0.999 --    13 C    0.971
    47   1 H    1.005 --    14 C    0.973
    48   1 H    1.005 --    16 C    0.974
    49   1 H    1.003 --    17 C    0.974
    50   1 H    1.002 --    22 C    0.975
    51   1 H    1.005 --    23 C    0.974
    52   1 H    0.987 --    25 N    0.873
    53   1 H    1.005 --    28 C    0.973
    54   1 H    0.999 --    29 C    0.971
    55   1 H    0.887 --    31 O    0.865
    56   1 H    0.999 --    32 C    0.970
    57   1 H    1.005 --    33 C    0.972
    58   1 H    1.005 --    35 C    0.974
    59   1 H    0.998 --    36 C    0.976
    60   6 C    3.924 --    96 C    1.365    61 C    1.346    98 H    0.971
    61   6 C    3.903 --    60 C    1.346    62 C    1.230    65 N    1.170
    62   6 C    3.953 --    63 C    1.594    61 C    1.230    99 H    0.977
    63   6 C    3.959 --    62 C    1.594    64 C    1.236   100 H    0.974
    64   6 C    3.896 --    66 C    1.302    63 C    1.236    65 N    1.176
    65   7 N    3.469 --    64 C    1.176    61 C    1.170   101 H    0.873
    66   6 C    3.939 --    74 C    1.335    64 C    1.302    67 C    1.030
    67   6 C    3.989 --    68 C    1.392    73 C    1.384    66 C    1.030
    68   6 C    3.988 --    69 C    1.453    67 C    1.392   102 H    0.972
                            72 C    0.105
    69   6 C    3.988 --    68 C    1.453    70 C    1.371   103 H    0.970
                            73 C    0.102
    70   6 C    3.900 --    69 C    1.371    72 C    1.364    71 O    1.040
    71   8 O    2.043 --    70 C    1.040   104 H    0.865
    72   6 C    3.990 --    73 C    1.466    70 C    1.364   105 H    0.971
                            68 C    0.105
    73   6 C    3.987 --    72 C    1.466    67 C    1.384   106 H    0.973
                            69 C    0.102
    74   6 C    3.915 --    66 C    1.335    77 N    1.286    75 C    1.126
    75   6 C    3.966 --    76 C    1.708    74 C    1.126   107 H    0.974
    76   6 C    3.964 --    75 C    1.708    78 C    1.129   108 H    0.974
    77   7 N    3.022 --    78 C    1.344    74 C    1.286
    78   6 C    3.910 --    77 N    1.344    79 C    1.254    76 C    1.129
    79   6 C    3.935 --    78 C    1.254    80 C    1.251   122 C    1.190
    80   6 C    3.886 --    79 C    1.251    81 C    1.250    84 N    1.189
    81   6 C    3.959 --    82 C    1.582    80 C    1.250   109 H    0.975
    82   6 C    3.955 --    81 C    1.582    83 C    1.242   110 H    0.974
    83   6 C    3.898 --    85 C    1.308    82 C    1.242    84 N    1.165
    84   7 N    3.474 --    80 C    1.189    83 C    1.165   111 H    0.873
    85   6 C    3.925 --    93 C    1.321    83 C    1.308    86 C    1.032
    86   6 C    3.989 --    92 C    1.392    87 C    1.383    85 C    1.032
    87   6 C    3.986 --    88 C    1.467    86 C    1.383   112 H    0.973
                            91 C    0.102
    88   6 C    3.990 --    87 C    1.467    89 C    1.364   113 H    0.971
                            92 C    0.105
    89   6 C    3.900 --    91 C    1.371    88 C    1.364    90 O    1.040
    90   8 O    2.043 --    89 C    1.040   114 H    0.865
    91   6 C    3.988 --    92 C    1.453    89 C    1.371   115 H    0.970
                            87 C    0.102
    92   6 C    3.987 --    91 C    1.453    86 C    1.392   116 H    0.972
                            88 C    0.105
    93   6 C    3.929 --    85 C    1.321    97 N    1.317    94 C    1.119
    94   6 C    3.967 --    95 C    1.721    93 C    1.119   117 H    0.974
    95   6 C    3.966 --    94 C    1.721    96 C    1.118   118 H    0.976
    96   6 C    3.930 --    60 C    1.365    97 N    1.301    95 C    1.118
    97   7 N    3.011 --    93 C    1.317    96 C    1.301
    98   1 H    1.002 --    60 C    0.971
    99   1 H    0.998 --    62 C    0.977
   100   1 H    1.005 --    63 C    0.974
   101   1 H    0.986 --    65 N    0.873
   102   1 H    1.005 --    68 C    0.972
   103   1 H    0.999 --    69 C    0.970
   104   1 H    0.887 --    71 O    0.865
   105   1 H    0.999 --    72 C    0.971
   106   1 H    1.005 --    73 C    0.973
   107   1 H    1.005 --    75 C    0.974
   108   1 H    1.003 --    76 C    0.974
   109   1 H    1.002 --    81 C    0.975
   110   1 H    1.005 --    82 C    0.974
   111   1 H    0.987 --    84 N    0.873
   112   1 H    1.005 --    87 C    0.973
   113   1 H    0.999 --    88 C    0.971
   114   1 H    0.887 --    90 O    0.865
   115   1 H    0.999 --    91 C    0.970
   116   1 H    1.005 --    92 C    0.972
   117   1 H    1.005 --    94 C    0.974
   118   1 H    0.998 --    95 C    0.976
   119   6 C    3.932 --   120 C    2.474   121 C    1.309
   120   6 C    3.925 --   119 C    2.474    20 C    1.190   122 C    0.199
   121   6 C    3.932 --   122 C    2.474   119 C    1.309
   122   6 C    3.925 --   121 C    2.474    79 C    1.190   120 C    0.199
 ---------------------------------------------------------------------------

           -------------------------------------------------
          | TOTAL ENERGY             -210.564512881715 Eh   |
          | GRADIENT NORM               0.000528772395 Eh/α |
          | HOMO-LUMO GAP               0.991963915500 eV   |
           -------------------------------------------------

 * finished run on 2022/07/28 at 17:06:33.052
