   * xtb version 6.5.1 (b24c23e) compiled by 'conda@728c89f4b128' on 2022-07-12
          program call               : xtb Co_PhNO2_C2_2.xyz --gfn 1 --opt -T 48

   ID    Z sym.   atoms
    1   27 Co     1, 61
    2    6 C      2-6, 8-12, 16-20, 22-27, 29-33, 37-42, 62-66, 68-72, 76-80,
                  82-87, 89-93, 97-102, 121, 122
    3    7 N      7, 13, 21, 28, 34, 43, 67, 73, 81, 88, 94, 103
    4    8 O      14, 15, 35, 36, 74, 75, 95, 96
    5    1 H      44-60, 104-120
########################################################################
[WARNING] Please study the warnings concerning your input carefully
-1- prog_main_parseArguments: Unknown option '-T' provided
########################################################################

          :  Hamiltonian                  GFN1-xTB          :
 * total energy  :  -239.9493633 Eh     change       -0.3107573E-08 Eh
 * total energy  :  -240.1367473 Eh     change       -0.1873840E+00 Eh
 * total energy  :  -240.2255494 Eh     change       -0.8880204E-01 Eh
 * total energy  :  -240.2476422 Eh     change       -0.2209276E-01 Eh
 * total energy  :  -240.2591381 Eh     change       -0.1149598E-01 Eh
 * total energy  :  -240.2625578 Eh     change       -0.3419690E-02 Eh
 * total energy  :  -240.2660223 Eh     change       -0.3464473E-02 Eh
 * total energy  :  -240.2675318 Eh     change       -0.1509459E-02 Eh
 * total energy  :  -240.2688188 Eh     change       -0.1287036E-02 Eh
 * total energy  :  -240.2692830 Eh     change       -0.4642384E-03 Eh
 * total energy  :  -240.2721356 Eh     change       -0.9392052E-05 Eh
 * total energy  :  -240.2721443 Eh     change       -0.8730405E-05 Eh
 * total energy  :  -240.2721553 Eh     change       -0.1097267E-04 Eh
 * total energy  :  -240.2721572 Eh     change       -0.1912750E-05 Eh
 * total energy  :  -240.2721659 Eh     change       -0.8644353E-05 Eh
 * total energy  :  -240.2721819 Eh     change       -0.1605386E-04 Eh
 * total energy  :  -240.2721883 Eh     change       -0.6409965E-05 Eh
 * total energy  :  -240.2721966 Eh     change       -0.8271919E-05 Eh
 * total energy  :  -240.2722015 Eh     change       -0.4868137E-05 Eh
   *** GEOMETRY OPTIMIZATION CONVERGED AFTER 56 ITERATIONS ***

 final structure:
================
122
 xtb: 6.5.1 (b24c23e)
Co          17.25623543928313       -0.05345667059421       -0.02007289079472
C           13.88511502648891       -0.06201871110221       -0.16042725222085
C           14.54210568400739       -1.26974584874561       -0.06066997129560
C           13.88163671449996       -2.53604073646985        0.03391606894285
C           14.84147714780769       -3.48387161902299       -0.07823803468258
C           16.08566309258784       -2.79380330149618       -0.25807280160700
N           15.89889921678673       -1.43775452995638       -0.17923520625284
C           17.28324954008080       -3.41228076436329       -0.59212324398853
C           17.29713071437002       -4.87192329859300       -0.83158012118150
C           18.11122199068599       -5.70568614764208       -0.05887967648894
C           18.12716942871450       -7.07114785308746       -0.27765800891556
C           17.32728387297189       -7.60671463146986       -1.28299538492020
N           17.34296519508015       -9.04025308307293       -1.51949439724250
O           16.63624496936060       -9.46790278004204       -2.39552276602502
O           18.06020033428874       -9.71164825243203       -0.82358755208153
C           16.51268325597325       -6.79376803988924       -2.06581850390378
C           16.49868828155768       -5.43037623935193       -1.83436340458457
C           18.46714512197638       -2.69949029691541       -0.71874966865121
C           19.71185388437934       -3.27284349998151       -1.13434238846551
C           20.65595206908377       -2.31510224854817       -0.97125929558564
N           18.63817437030398       -1.37923161646021       -0.37379141773477
C           19.98550272853446       -1.16052988762881       -0.46267262208143
C           20.64882250416953       -0.02450548439017        0.00307365484673
C           19.95652277125702        1.09495853943073        0.46864851332494
C           20.59305190649923        2.24434233992200        1.02891321553978
C           19.62783954907669        3.18017385084807        1.19822467810035
C           18.40593674321694        2.60172291069967        0.72606051674332
N           18.61022926918344        1.29683323776450        0.34203116786371
C           17.21880792420854        3.30248569146825        0.56646876969657
C           17.19623959717163        4.75419038322950        0.84800547686473
C           16.32455936019436        5.27114173447572        1.81154761648663
C           16.29706790038644        6.62759263876692        2.07916512236424
C           17.14499169299068        7.47593860792426        1.37301607187315
N           17.11552924571530        8.90277623852372        1.64567148998469
O           16.34043158496410        9.29442062130672        2.47978272017882
O           17.86636608240131        9.60513261169620        1.01930411615426
C           18.01916604095099        6.98204721581031        0.40908718015063
C           18.04291596104375        5.62318702097544        0.15292529459948
C           16.04992768331847        2.68031078141941        0.14684599148937
C           14.81446699180493        3.36494237436835       -0.10189473848487
C           13.87554375052897        2.41323891110600       -0.31235694193262
C           14.53944483979675        1.14993881715894       -0.20054169717243
N           15.88443364495725        1.32607426303848        0.01240092879173
H           12.80245920550684       -0.06527167197971       -0.20115013734353
H           12.81881421372912       -2.66231698672820        0.16415289786459
H           14.73089994298804       -4.55562699756458       -0.04709445423893
H           18.72100532670400       -5.27706873533557        0.72789923946266
H           18.74920291465180       -7.72643641627481        0.32015480897907
H           15.90329051526117       -7.23527120445766       -2.84519113412014
H           15.87814721762764       -4.78496853650233       -2.44499887553604
H           19.83593808175771       -4.27812122555814       -1.50255929245898
H           21.71436812559110       -2.37245354916052       -1.16739783144193
H           21.64416686472655        2.31193793067313        1.25833313789188
H           19.72408474098352        4.17319162365021        1.60593863654068
H           15.67778667129393        4.59852792306635        2.36271547918498
H           15.62919586539560        7.03680631288703        2.82761590004825
H           18.66609305299470        7.66428820809434       -0.12920223966056
H           18.70917709831773        5.22793455652135       -0.60498344242443
H           14.69530209230361        4.43616694500494       -0.11102422522749
H           12.82346536099998        2.53435315980731       -0.51469838757081
Co          28.07180520935079        0.05706535510781        0.00151197038829
C           31.44290032439950        0.11769783696900       -0.12547165810720
C           30.78588973772944        1.19985284400963        0.41993819156734
C           31.44632290321728        2.33824495819842        0.98257400716243
C           30.48647012478929        3.25897001202487        1.23398140625082
C           29.24231731933541        2.68672969137706        0.80835624366418
N           29.42910406326530        1.40007949641657        0.37292286329620
C           28.04474542196803        3.38536111372877        0.73046691100419
C           28.03090381253858        4.82828660697799        1.05580513135219
C           27.21651822111017        5.31158379531305        2.08448409442098
C           27.20063347218849        6.65945458028586        2.39367415314051
C           28.00099075948050        7.53279336471513        1.66287876120718
N           27.98563386761455        8.95037800483549        1.98136034098132
O           28.69386165490989        9.67499233324148        1.33088852007744
O           27.26665552292038        9.31222127263790        2.87670022731502
C           28.81584667344559        7.07260175530073        0.63258912638558
C           28.82969491514313        5.72191420661136        0.33585747585601
C           26.86087417029636        2.77204593984383        0.34573146443506
C           25.61616032011702        3.45936856375256        0.17534893998943
C           24.67208173785282        2.51032390529545       -0.03254984231058
N           26.68986356608320        1.41875382523188        0.17053397698871
C           25.34253991506941        1.24929872667670        0.00612008405926
C           24.67923971835800        0.02150479318366        0.01202284577038
C           25.37156513604556       -1.19083883073951        0.02398871269032
C           24.73508842055169       -2.46645458984656        0.11259743087657
C           25.70032570207169       -3.39747652753616       -0.08131068300679
C           26.92218044246218       -2.68416667717397       -0.30233138757858
N           26.71784611663227       -1.33048208791951       -0.16917709412998
C           28.10928502983797       -3.27393595463491       -0.71316637438657
C           28.13186859740193       -4.72528970214224       -0.99647017987156
C           29.00394705995439       -5.56572158128989       -0.29743623889786
C           29.03149308178651       -6.92354738938217       -0.55797303033230
C           28.18321322669853       -7.44532507364723       -1.53032714181052
N           28.21283101861254       -8.87027373520146       -1.81268419761298
O           28.98830456864968       -9.54598330617894       -1.18664579052373
O           27.46099688607699       -9.28677974436390       -2.65570411246178
C           27.30860225449217       -6.62614593183048       -2.23833177755984
C           27.28483471027583       -5.27037195135845       -1.96630561793570
C           29.27812261862431       -2.53975823356244       -0.86902246585824
C           30.51357007487332       -3.08109081318649       -1.35646093278361
C           31.45247924667479       -2.11989877339675       -1.19468481626703
C           30.78858580535706       -0.99075804255624       -0.61720807572667
N           29.44360312095675       -1.23392504009035       -0.48582979450555
H           32.52555599678513        0.13601236954585       -0.16198134246976
H           32.50913300255078        2.40645892658270        1.15074247709511
H           30.59702609899475        4.24082011924598        1.66479851765755
H           26.60645430812368        4.61929661166711        2.65293485766691
H           26.57842242529754        7.04283797543729        3.19341488699336
H           29.42559021827705        7.77404893975692        0.07590214796165
H           29.45040997463408        5.35250592446180       -0.47207449724272
H           25.49205169318619        4.52937029944037        0.21084213806498
H           23.61367185084054        2.63700848650327       -0.19292915315320
H           23.68399159753593       -2.61517168129867        0.30002131841924
H           25.60411600494719       -4.47092146129996       -0.07554612796912
H           29.65100975742493       -5.14877745185031        0.46544040605323
H           29.69967625008318       -7.58346477788637       -0.01785629693916
H           26.66136550531899       -7.05685809999173       -2.99285045298544
H           26.61829097206313       -4.61985298295179       -2.52046952286407
H           30.63274824443044       -4.07068161969985       -1.76672153092155
H           32.50454107901505       -2.15626146163865       -1.42775573147826
C           22.05591528028960       -0.01003331305226        0.01029190064137
C           23.27214777761762        0.00533861641724        0.01330665072311

          :  Hamiltonian                  GFN1-xTB          :
         :: total energy            -240.272201479141 Eh    ::
         :: gradient norm              0.000441951822 Eh/a0 ::
         :: HOMO-LUMO gap              0.007099830656 eV    ::
         :: SCC energy              -243.503995742726 Eh    ::
         :: repulsion energy           3.343723875751 Eh    ::

    * Orbital Energies and Occupations

         #    Occupation            Energy/Eh            Energy/eV
      -------------------------------------------------------------
         1        2.0000           -0.9247988             -25.1651
       ...           ...                  ...                  ...
       200        2.0000           -0.4542156             -12.3598
       201        2.0000           -0.4541979             -12.3594
       202        2.0000           -0.4268724             -11.6158
       203        2.0000           -0.4234159             -11.5217
       204        2.0000           -0.4233196             -11.5191
       205        2.0000           -0.4227942             -11.5048
       206        2.0000           -0.4227617             -11.5039
       207        1.9998           -0.4193080             -11.4100
       208        1.9998           -0.4193040             -11.4098
       209        1.9997           -0.4191078             -11.4045
       210        1.9997           -0.4191054             -11.4044
       211        1.9094           -0.4136095             -11.2549
       212        1.1142           -0.4109311             -11.1820 (HOMO)
       213        0.9774           -0.4106702             -11.1749 (LUMO)
       214                         -0.3646371              -9.9223
       215                         -0.3608283              -9.8186
       216                         -0.3608208              -9.8184
       217                         -0.3519524              -9.5771
       218                         -0.3519367              -9.5767
       219                         -0.3480594              -9.4712
       220                         -0.3450047              -9.3881
       221                         -0.3449862              -9.3876
       222                         -0.3216843              -8.7535
       223                         -0.3204836              -8.7208
       ...                                ...                  ...
       430                          1.3177731              35.8584
      -------------------------------------------------------------
                  HL-Gap            0.0002609 Eh            0.0071 eV

Wiberg/Mayer (AO) data.
largest (>0.10) Wiberg bond orders for each atom

     #   Z sym  total        # sym  WBO       # sym  WBO       # sym  WBO
 ---------------------------------------------------------------------------
     1  27 Co   3.051 --    43 N    0.642     7 N    0.638    21 N    0.636
                            28 N    0.633
     2   6 C    3.931 --    42 C    1.368     3 C    1.364    44 H    0.969
     3   6 C    3.921 --     2 C    1.364     7 N    1.200     4 C    1.173
     4   6 C    3.960 --     5 C    1.650     3 C    1.173    45 H    0.974
     5   6 C    3.962 --     4 C    1.650     6 C    1.174    46 H    0.973
     6   6 C    3.921 --     8 C    1.318     7 N    1.212     5 C    1.174
     7   7 N    3.348 --     6 C    1.212     3 C    1.200     1 Co   0.638
     8   6 C    3.931 --    18 C    1.326     6 C    1.318     9 C    1.035
     9   6 C    3.985 --    17 C    1.383    10 C    1.383     8 C    1.035
    10   6 C    3.986 --    11 C    1.463     9 C    1.383    47 H    0.971
                            16 C    0.102
    11   6 C    3.987 --    10 C    1.463    12 C    1.388    48 H    0.964
                            17 C    0.102
    12   6 C    3.942 --    16 C    1.388    11 C    1.388    13 N    0.920
    13   7 N    3.866 --    15 O    1.455    14 O    1.455    12 C    0.920
    14   8 O    1.830 --    13 N    1.455    15 O    0.252
    15   8 O    1.831 --    13 N    1.455    14 O    0.252
    16   6 C    3.987 --    17 C    1.463    12 C    1.388    49 H    0.964
                            10 C    0.102
    17   6 C    3.986 --    16 C    1.463     9 C    1.383    50 H    0.971
                            11 C    0.102
    18   6 C    3.917 --     8 C    1.326    21 N    1.198    19 C    1.181
    19   6 C    3.958 --    20 C    1.637    18 C    1.181    51 H    0.973
    20   6 C    3.962 --    19 C    1.637    22 C    1.189    52 H    0.972
    21   7 N    3.347 --    22 C    1.225    18 C    1.198     1 Co   0.636
    22   6 C    3.907 --    23 C    1.268    21 N    1.225    20 C    1.189
    23   6 C    3.936 --    22 C    1.268    24 C    1.265   121 C    1.175
    24   6 C    3.907 --    23 C    1.265    28 N    1.227    25 C    1.190
    25   6 C    3.962 --    26 C    1.636    24 C    1.190    53 H    0.972
    26   6 C    3.958 --    25 C    1.636    27 C    1.181    54 H    0.973
    27   6 C    3.917 --    29 C    1.326    28 N    1.196    26 C    1.181
    28   7 N    3.348 --    24 C    1.227    27 C    1.196     1 Co   0.633
    29   6 C    3.931 --    27 C    1.326    39 C    1.317    30 C    1.036
    30   6 C    3.985 --    38 C    1.383    31 C    1.383    29 C    1.036
    31   6 C    3.986 --    32 C    1.464    30 C    1.383    55 H    0.971
                            37 C    0.102
    32   6 C    3.987 --    31 C    1.464    33 C    1.388    56 H    0.964
                            38 C    0.102
    33   6 C    3.941 --    37 C    1.388    32 C    1.388    34 N    0.920
    34   7 N    3.866 --    36 O    1.455    35 O    1.455    33 C    0.920
    35   8 O    1.830 --    34 N    1.455    36 O    0.252
    36   8 O    1.831 --    34 N    1.455    35 O    0.252
    37   6 C    3.987 --    38 C    1.463    33 C    1.388    57 H    0.964
                            31 C    0.102
    38   6 C    3.986 --    37 C    1.463    30 C    1.383    58 H    0.971
                            32 C    0.102
    39   6 C    3.921 --    29 C    1.317    43 N    1.214    40 C    1.174
    40   6 C    3.963 --    41 C    1.651    39 C    1.174    59 H    0.973
    41   6 C    3.959 --    40 C    1.651    42 C    1.172    60 H    0.974
    42   6 C    3.921 --     2 C    1.368    43 N    1.198    41 C    1.172
    43   7 N    3.347 --    39 C    1.214    42 C    1.198     1 Co   0.642
    44   1 H    0.999 --     2 C    0.969
    45   1 H    0.996 --     4 C    0.974
    46   1 H    1.002 --     5 C    0.973
    47   1 H    1.003 --    10 C    0.971
    48   1 H    1.006 --    11 C    0.964
    49   1 H    1.006 --    16 C    0.964
    50   1 H    1.003 --    17 C    0.971
    51   1 H    1.003 --    19 C    0.973
    52   1 H    1.003 --    20 C    0.972
    53   1 H    1.003 --    25 C    0.972
    54   1 H    1.003 --    26 C    0.973
    55   1 H    1.003 --    31 C    0.971
    56   1 H    1.006 --    32 C    0.964
    57   1 H    1.006 --    37 C    0.964
    58   1 H    1.004 --    38 C    0.971
    59   1 H    1.002 --    40 C    0.973
    60   1 H    0.996 --    41 C    0.974
    61  27 Co   3.051 --   103 N    0.642    67 N    0.638    81 N    0.636
                            88 N    0.633
    62   6 C    3.931 --   102 C    1.368    63 C    1.364   104 H    0.969
    63   6 C    3.921 --    62 C    1.364    67 N    1.200    64 C    1.173
    64   6 C    3.960 --    65 C    1.650    63 C    1.173   105 H    0.974
    65   6 C    3.962 --    64 C    1.650    66 C    1.174   106 H    0.973
    66   6 C    3.921 --    68 C    1.318    67 N    1.212    65 C    1.174
    67   7 N    3.348 --    66 C    1.212    63 C    1.200    61 Co   0.638
    68   6 C    3.931 --    78 C    1.326    66 C    1.318    69 C    1.035
    69   6 C    3.985 --    77 C    1.383    70 C    1.383    68 C    1.035
    70   6 C    3.986 --    71 C    1.463    69 C    1.383   107 H    0.971
                            76 C    0.102
    71   6 C    3.987 --    70 C    1.463    72 C    1.388   108 H    0.964
                            77 C    0.102
    72   6 C    3.942 --    76 C    1.388    71 C    1.388    73 N    0.920
    73   7 N    3.866 --    75 O    1.455    74 O    1.455    72 C    0.920
    74   8 O    1.830 --    73 N    1.455    75 O    0.252
    75   8 O    1.831 --    73 N    1.455    74 O    0.252
    76   6 C    3.987 --    77 C    1.463    72 C    1.388   109 H    0.964
                            70 C    0.102
    77   6 C    3.986 --    76 C    1.463    69 C    1.383   110 H    0.971
                            71 C    0.102
    78   6 C    3.917 --    68 C    1.326    81 N    1.198    79 C    1.181
    79   6 C    3.958 --    80 C    1.637    78 C    1.181   111 H    0.973
    80   6 C    3.962 --    79 C    1.637    82 C    1.189   112 H    0.972
    81   7 N    3.347 --    82 C    1.225    78 C    1.198    61 Co   0.636
    82   6 C    3.907 --    83 C    1.268    81 N    1.225    80 C    1.189
    83   6 C    3.936 --    82 C    1.268    84 C    1.265   122 C    1.175
    84   6 C    3.907 --    83 C    1.265    88 N    1.227    85 C    1.190
    85   6 C    3.962 --    86 C    1.636    84 C    1.190   113 H    0.972
    86   6 C    3.958 --    85 C    1.636    87 C    1.181   114 H    0.973
    87   6 C    3.917 --    89 C    1.326    88 N    1.197    86 C    1.181
    88   7 N    3.348 --    84 C    1.227    87 C    1.197    61 Co   0.633
    89   6 C    3.931 --    87 C    1.326    99 C    1.317    90 C    1.036
    90   6 C    3.985 --    98 C    1.383    91 C    1.383    89 C    1.036
    91   6 C    3.986 --    92 C    1.464    90 C    1.383   115 H    0.971
                            97 C    0.102
    92   6 C    3.987 --    91 C    1.464    93 C    1.388   116 H    0.964
                            98 C    0.102
    93   6 C    3.941 --    97 C    1.388    92 C    1.388    94 N    0.920
    94   7 N    3.866 --    96 O    1.455    95 O    1.455    93 C    0.920
    95   8 O    1.830 --    94 N    1.455    96 O    0.252
    96   8 O    1.831 --    94 N    1.455    95 O    0.252
    97   6 C    3.987 --    98 C    1.463    93 C    1.388   117 H    0.964
                            91 C    0.102
    98   6 C    3.986 --    97 C    1.463    90 C    1.383   118 H    0.971
                            92 C    0.102
    99   6 C    3.921 --    89 C    1.317   103 N    1.214   100 C    1.174
   100   6 C    3.963 --   101 C    1.651    99 C    1.174   119 H    0.973
   101   6 C    3.959 --   100 C    1.651   102 C    1.172   120 H    0.974
   102   6 C    3.921 --    62 C    1.368   103 N    1.197   101 C    1.172
   103   7 N    3.347 --    99 C    1.214   102 C    1.197    61 Co   0.642
   104   1 H    0.999 --    62 C    0.969
   105   1 H    0.996 --    64 C    0.974
   106   1 H    1.002 --    65 C    0.973
   107   1 H    1.003 --    70 C    0.971
   108   1 H    1.006 --    71 C    0.964
   109   1 H    1.006 --    76 C    0.964
   110   1 H    1.003 --    77 C    0.971
   111   1 H    1.003 --    79 C    0.973
   112   1 H    1.003 --    80 C    0.972
   113   1 H    1.003 --    85 C    0.972
   114   1 H    1.003 --    86 C    0.973
   115   1 H    1.003 --    91 C    0.971
   116   1 H    1.006 --    92 C    0.964
   117   1 H    1.006 --    97 C    0.964
   118   1 H    1.004 --    98 C    0.971
   119   1 H    1.002 --   100 C    0.973
   120   1 H    0.996 --   101 C    0.974
   121   6 C    3.931 --   122 C    2.578    23 C    1.175
   122   6 C    3.931 --   121 C    2.578    83 C    1.175
 ---------------------------------------------------------------------------

           -------------------------------------------------
          | TOTAL ENERGY             -240.272201479141 Eh   |
          | GRADIENT NORM               0.000441951822 Eh/α |
          | HOMO-LUMO GAP               0.007099830656 eV   |
           -------------------------------------------------

 * finished run on 2022/07/30 at 01:07:17.759
