   * xtb version 6.5.1 (b24c23e) compiled by 'conda@728c89f4b128' on 2022-07-12
          program call               : xtb Fe_PhCHO_C8_3.xyz --gfn 1 --opt -T 48

   ID    Z sym.   atoms
    1   26 Fe     1, 61, 137
    2    6 C      2-6, 8-13, 15-19, 21-26, 28-33, 35-40, 62-66, 68-73, 75-79,
                  81-86, 88-93, 95-100, 121-136, 138-142, 144-149, 151-155,
                  157-162, 164-169, 171-176
    3    7 N      7, 20, 27, 41, 67, 80, 87, 101, 143, 156, 163, 177
    4    8 O      14, 34, 74, 94, 150, 170
    5    1 H      42-60, 102-120, 178-195

          :  Hamiltonian                  GFN1-xTB          :
 * total energy  :  -352.7026725 Eh     change       -0.3349072E-07 Eh
 * total energy  :  -353.8824970 Eh     change       -0.1179825E+01 Eh
 * total energy  :  -354.1360797 Eh     change       -0.2535827E+00 Eh
 * total energy  :  -354.2750563 Eh     change       -0.1389766E+00 Eh
 * total energy  :  -354.3835169 Eh     change       -0.1084606E+00 Eh
 * total energy  :  -354.4645364 Eh     change       -0.8101945E-01 Eh
 * total energy  :  -354.5095694 Eh     change       -0.4503305E-01 Eh
 * total energy  :  -354.5414443 Eh     change       -0.3187488E-01 Eh
 * total energy  :  -354.5621294 Eh     change       -0.2068508E-01 Eh
 * total energy  :  -354.5735762 Eh     change       -0.1144679E-01 Eh
 * total energy  :  -354.5979389 Eh     change       -0.1130895E-04 Eh
 * total energy  :  -354.5979027 Eh     change        0.3622010E-04 Eh
 * total energy  :  -354.5979410 Eh     change       -0.3833451E-04 Eh
 * total energy  :  -354.5978323 Eh     change        0.1087038E-03 Eh
 * total energy  :  -354.5979408 Eh     change       -0.1084679E-03 Eh
 * total energy  :  -354.5979418 Eh     change       -0.1029131E-05 Eh
 * total energy  :  -354.5979527 Eh     change       -0.1088871E-04 Eh
 * total energy  :  -354.5979621 Eh     change       -0.9412814E-05 Eh
 * total energy  :  -354.5979663 Eh     change       -0.4175686E-05 Eh
   *** GEOMETRY OPTIMIZATION CONVERGED AFTER 53 ITERATIONS ***

 final structure:
================
195
 xtb: 6.5.1 (b24c23e)
Fe          26.93024532052797        0.00463733125825       -0.04602254138265
C           23.54083582964259        0.06650919628632       -0.14860614083507
C           24.20555295891583        1.27421121882960       -0.10398814712408
C           23.53937563398546        2.54142531759198       -0.08148604917909
C           24.50006315152952        3.48130862823594        0.07790678107087
C           25.75411494696968        2.78684754175405        0.13792052089658
N           25.56112139813884        1.43801980608093        0.01229792731190
C           26.97470441808257        3.40835487616747        0.37943381966670
C           26.99030746300914        4.87644316814463        0.58282050559126
C           27.35435513815719        5.41139252405228        1.82169646207991
C           27.35890564420978        6.77939646039732        2.01541522963786
C           27.00545641501771        7.64269924286274        0.97315425659364
C           27.01795496371877        9.09883576784929        1.20519494870138
O           27.31948881294869        9.60639356836653        2.25481476214556
C           26.64688454805267        7.10848147730169       -0.26668911150454
C           26.63717239911133        5.73814790881482       -0.45861728898482
C           28.17720939311883        2.71924892734887        0.43669703322659
C           29.44857807340951        3.35153404708415        0.63081047615014
C           30.38851770931090        2.38427945011122        0.50893649653632
N           28.34328962626108        1.37286456813942        0.21245436500699
C           29.69011872236315        1.16622290103607        0.23965458885551
C           30.34175781320888       -0.04795182813827       -0.01118803571911
C           29.65642313463508       -1.24532533682055       -0.25116380926377
C           30.31926706857127       -2.48361428698607       -0.51739379778635
C           29.35311505621873       -3.42803973547932       -0.61299447917949
C           28.10229261092499       -2.76257038925505       -0.39842830731072
N           28.30448854350260       -1.41615595081786       -0.20879914676285
C           26.87534748019385       -3.41045859445234       -0.37458697006153
C           26.84832497871778       -4.88396047918992       -0.52019938168117
C           26.19510197184972       -5.47178700446403       -1.60704170917818
C           26.16585867274995       -6.84789659224690       -1.74633718485987
C           26.78501499551318       -7.66430908515313       -0.79687570332408
C           26.76282322443541       -9.13358213423266       -0.91921099564828
O           27.27963810551109       -9.87882307635175       -0.12688642817458
C           27.43782324258816       -7.07615109649099        0.29148481893257
C           27.47217017648165       -5.70156138411085        0.42672816462439
C           25.66647193839950       -2.73678302808478       -0.23335370177177
C           24.38874887795543       -3.38698111974490       -0.17641827419576
C           23.45430240375083       -2.40897570378663       -0.12656495187956
C           24.16243711458722       -1.16467692213044       -0.13593898439777
N           25.51565339952999       -1.37838248097251       -0.16944648554161
H           22.45732457913268        0.08614632095681       -0.18047485059077
H           22.47217318994356        2.67290546815994       -0.16289208418661
H           24.38116180886647        4.54930391275502        0.16138528362551
H           27.61796331861434        4.74345131441329        2.63386176345848
H           27.63359093380451        7.20343514460184        2.97528170957678
H           26.72184899158223        9.70379234306779        0.32173871789932
H           26.37545109504082        7.77154819289108       -1.08170320262793
H           26.36854553464842        5.32606670046056       -1.42473860382942
H           29.59362012488129        4.40299065591201        0.81753682888327
H           31.46021304637572        2.47351096688682        0.58367072461927
H           31.38660064196869       -2.59909048988230       -0.61538049501139
H           29.46617994482342       -4.48003186342036       -0.81800258223062
H           25.72316333984184       -4.83999405731564       -2.35106022269261
H           25.66084036113428       -7.29579956231166       -2.59599876306055
H           26.22216332507794       -9.50828724485816       -1.81443492388389
H           27.91323575217429       -7.71831979345164        1.02511399877857
H           27.96866867892656       -5.24877190157357        1.27746575413761
H           24.23895283413443       -4.45436841473321       -0.17041453879685
H           22.38084709180762       -2.50148010034997       -0.08195858436947
Fe          64.04867351472173       -0.02281423652024       -0.06527684797266
C           67.43930218826614       -0.06883471374752       -0.16002027789954
C           66.77595856893811       -1.27227723105785       -0.27749068083858
C           67.44430478684943       -2.53073480646638       -0.41833388311262
C           66.48417075491203       -3.48420562986334       -0.39335596391411
C           65.22827419932031       -2.80469836210991       -0.25390283883754
N           65.41990361975633       -1.45110770375074       -0.19346663470588
C           64.00525119355265       -3.45344828082204       -0.12358978773407
C           63.98833393296670       -4.93564280771117       -0.12828485355037
C           63.60340271220365       -5.63806167259208        1.01709309684232
C           63.59682755194869       -7.01971282256526        1.01751285853161
C           63.96861395687952       -7.72924550467752       -0.12916564302262
C           63.95316708329377       -9.20345236053570       -0.10366042911028
O           63.63398178481511       -9.85266740071835        0.85913239440172
C           64.34772837733037       -7.02735680572204       -1.27584341410211
C           64.35984357988632       -5.64367561546876       -1.27390414147105
C           62.79988625098171       -2.77873168623188        0.00278988036338
C           61.52658173237273       -3.43286544758843        0.06980502858487
C           60.58632837870348       -2.45831008673387        0.06679325597909
N           62.63479133469001       -1.41404496596529       -0.02521096919873
C           61.28662691397395       -1.21379058264050       -0.00004794751631
C           60.63654380724918        0.02486703371859       -0.06249241783655
C           61.32212494591371        1.24510297528956       -0.08842516966756
C           60.65897762669235        2.50993740054225       -0.15267401658772
C           61.62465405733676        3.45766976093770       -0.09346568370331
C           62.87565262830989        2.76680211485543        0.01188350003979
N           62.67384335891460        1.40735027964852       -0.01267352888050
C           64.10319823327504        3.40408132892051        0.12509281008506
C           64.12979300552531        4.88322749497090        0.19606317680376
C           64.77006302199912        5.62296863471122       -0.80210329315716
C           64.79615383022274        7.00485928203700       -0.74248748661801
C           64.18658388149395        7.67460140442337        0.32111448221901
C           64.20374885122226        9.14629945344566        0.40950559634432
O           63.69367463928813        9.76892266351265        1.30530351209156
C           63.54764591395738        6.93426977487677        1.32125863450052
C           63.51664333501533        5.55436645148492        1.25803466790086
C           65.31250475787031        2.71773479779931        0.15506271772731
C           66.59072784602174        3.35417568862633        0.29549276401151
C           67.52523618158956        2.37974326210276        0.20004701645284
C           66.81680345480154        1.14874422400051        0.01941643576256
N           65.46344859394831        1.36406763933126        0.02310012725417
H           68.52285554714186       -0.08300418985128       -0.19323247773337
H           68.51238399988137       -2.64926828955442       -0.50781763331455
H           66.60415622046361       -4.55373947842457       -0.45206022909117
H           63.32476243797915       -5.08979507243135        1.90984836532627
H           63.30620028873820       -7.57342335497535        1.90381791602001
H           64.26431952119411       -9.67918551646047       -1.05812177186854
H           64.63311854034653       -7.57036809301762       -2.17099032992226
H           64.64457685211288       -5.10091364930255       -2.16816163637819
H           61.38135345562264       -4.50041495496099        0.09656988842594
H           59.51343736412548       -2.55741808430893        0.10110587193772
H           59.59178137131551        2.63954896934211       -0.23274515772058
H           61.51109013302853        4.52885657360105       -0.12705862509648
H           65.23395211047857        5.10592127926772       -1.63453100884316
H           65.29071137078482        7.57167075896939       -1.52462456245160
H           64.73252497379399        9.64709506788058       -0.42941878743188
H           63.07986293132789        7.46303150858634        2.14478722250225
H           63.03046805495853        4.98257855404891        2.04031411461264
H           66.74065028907475        4.40998263394475        0.45228297238069
H           68.59895742927296        2.46565370638002        0.25099996287698
C           31.74210009399114       -0.06452021624343       -0.01352085890702
C           32.96882770458884       -0.07098603609199       -0.01175813810162
C           34.30786627521482       -0.07883046792802       -0.00652719557658
C           35.54112441867883       -0.07711951504597       -0.00270524796589
C           36.87508880666771       -0.07109767745238        0.00582880427896
C           38.10843853531869       -0.06008396796903        0.00951177435606
C           39.44702920147671       -0.05526978660529        0.01330994140893
C           40.67415887290228       -0.04771596016997        0.01754761760279
C           50.30408215186593        0.02353258516852       -0.13798293631331
C           51.53083724199804        0.03519427132817       -0.15309048968195
C           52.86987208940352        0.04278012442863       -0.16109124842799
C           54.10294769006538        0.05083336172422       -0.15889421159812
C           55.43743088709878        0.05408852561112       -0.15138873332601
C           56.67030471680497        0.05460237648391       -0.13693766330668
C           58.00964913462305        0.05125661568668       -0.11263319118035
C           59.23583645902326        0.04207505383690       -0.08872970647946
Fe          45.48952621412026       -0.02155424265576       -0.02242573438576
C           42.07306743904176       -0.04081046116214        0.01588504958704
C           42.74070994349216        1.17561773952303        0.21254211713853
C           42.06378265025072        2.42031324645993        0.39750073125950
C           43.01628706658891        3.33936205673009        0.68930274451129
C           44.27038885557838        2.64787369977343        0.68538451579377
N           44.08793329196569        1.32860173325665        0.35125490837436
C           45.48296311737386        3.23578031090054        1.02447073871890
C           45.47777337204005        4.64190110743469        1.48922264564833
C           46.15813530863962        5.62896777247493        0.77019744756673
C           46.15119656259962        6.93927789222295        1.20841999947185
C           45.47082807150797        7.29044434901008        2.37889420783729
C           45.48496521897142        8.69525124276216        2.82895475937113
O           46.05287229985171        9.57927378256177        2.24114059211762
C           44.79220349283003        6.30434736648474        3.09862892945795
C           44.79238852366866        4.99375476059543        2.65511512579160
C           46.69981183784438        2.57012848217395        0.94414607032469
C           47.95573826272279        3.14818696899472        1.31833005467031
C           48.91264078745374        2.24652235030363        0.99002543090454
N           46.88655476739460        1.30598747564799        0.44049889738516
C           48.23633881335135        1.11838980155703        0.43153885825310
C           48.90498479216696        0.01103787438181       -0.10737420181752
C           48.23130310418524       -1.11306613759764       -0.60329558495199
C           48.90006684457344       -2.23633304968248       -1.18011304588417
C           47.94735311248746       -3.16698596748320       -1.43144379982179
C           46.70191048218781       -2.60855550008678       -0.99780359355251
N           46.88786354809633       -1.33109449492942       -0.52967622297498
C           45.49579047926936       -3.29869426851806       -1.00551146262273
C           45.49775826095519       -4.71587547820310       -1.43539085582890
C           46.22464239111459       -5.67012777069452       -0.71870570372949
C           46.22490153112958       -6.99487932825034       -1.11820863877398
C           45.50452106132241       -7.38907668483760       -2.24810899965855
C           45.49244694526504       -8.79375644624210       -2.69851146972335
O           44.89039294023698       -9.17936697329288       -3.66727090513012
C           44.78041931099921       -6.43299561654281       -2.96772390565740
C           44.77355103344481       -5.11182219272239       -2.56377307929400
C           44.28677903423856       -2.72087221661261       -0.63884065368183
C           43.04057677213208       -3.42577220336283       -0.60110925769226
C           42.08284683359849       -2.50857853379680       -0.32134043159926
C           42.74968930187880       -1.25315434958066       -0.17669708336446
N           44.09601584323001       -1.39587090636686       -0.33125065981718
H           40.99765695379341        2.55736496150135        0.31579706754623
H           42.89104525509643        4.39189092303830        0.88429626502382
H           46.67775365583731        5.36095742959402       -0.14269719890966
H           46.67144025205936        7.71286548749811        0.65387728223929
H           44.92149563874991        8.87875692977452        3.76847218922872
H           44.26422519696679        6.56788435252483        4.00928080935764
H           44.27381544489224        4.22770057795474        3.22048392463015
H           48.08010098010568        4.11683554129969        1.77398083622360
H           49.98111993593177        2.32448848861357        1.10958860736143
H           49.96119372301759       -2.29209370932437       -1.36176084682414
H           48.06725442848052       -4.14228932039593       -1.87405709073868
H           46.77647346789132       -5.36783190465318        0.16416617247513
H           46.78621333626251       -7.73116535225949       -0.55225324050713
H           46.09134325228650       -9.48128028843059       -2.06413632385408
H           44.22715899488684       -6.74793224182535       -3.84597202282885
H           44.22013284692167       -4.37050333304773       -3.12895897283248
H           42.92329771355948       -4.48433171816806       -0.76575978776591
H           41.01964387618055       -2.65433590227600       -0.21938732256890

          :  Hamiltonian                  GFN1-xTB          :
         :: total energy            -354.597966331657 Eh    ::
         :: gradient norm              0.000785035010 Eh/a0 ::
         :: HOMO-LUMO gap              0.054578036431 eV    ::
         :: SCC energy              -360.393556002415 Eh    ::
         :: repulsion energy           5.969712605699 Eh    ::

    * Orbital Energies and Occupations

         #    Occupation            Energy/Eh            Energy/eV
      -------------------------------------------------------------
         1        2.0000           -0.7953226             -21.6418
       ...           ...                  ...                  ...
       312        2.0000           -0.4093995             -11.1403
       313        2.0000           -0.4090808             -11.1317
       314        1.9967           -0.4030895             -10.9686
       315        1.9927           -0.4023371             -10.9481
       316        1.9921           -0.4022611             -10.9461
       317        1.9904           -0.4020779             -10.9411
       318        1.9660           -0.4008621             -10.9080
       319        1.9574           -0.4006438             -10.9021
       320        1.9477           -0.4004445             -10.8966
       321        1.9454           -0.4004031             -10.8955
       322        1.9429           -0.4003600             -10.8943
       323        1.9402           -0.4003139             -10.8931
       324        1.3004           -0.3975976             -10.8192 (HOMO)
       325        0.3675           -0.3955919             -10.7646 (LUMO)
       326        0.3342           -0.3954825             -10.7616
       327        0.3265           -0.3954561             -10.7609
       328                         -0.3585626              -9.7570
       329                         -0.3485974              -9.4858
       330                         -0.3469015              -9.4397
       331                         -0.3436390              -9.3509
       332                         -0.3432502              -9.3403
       333                         -0.3431640              -9.3380
       334                         -0.3325437              -9.0490
       335                         -0.3289447              -8.9510
       ...                                ...                  ...
       683                          1.5850757              43.1321
      -------------------------------------------------------------
                  HL-Gap            0.0020057 Eh            0.0546 eV

Wiberg/Mayer (AO) data.
largest (>0.10) Wiberg bond orders for each atom

     #   Z sym  total        # sym  WBO       # sym  WBO       # sym  WBO
 ---------------------------------------------------------------------------
     1  26 Fe   3.095 --    41 N    0.665     7 N    0.664    20 N    0.658
                            27 N    0.658
     2   6 C    3.920 --     3 C    1.364    40 C    1.363    42 H    0.970
     3   6 C    3.923 --     2 C    1.364     7 N    1.209     4 C    1.172
     4   6 C    3.959 --     5 C    1.651     3 C    1.172    43 H    0.975
     5   6 C    3.961 --     4 C    1.651     6 C    1.174    44 H    0.972
     6   6 C    3.919 --     8 C    1.312     7 N    1.226     5 C    1.174
     7   7 N    3.380 --     6 C    1.226     3 C    1.209     1 Fe   0.664
     8   6 C    3.922 --    17 C    1.336     6 C    1.312     9 C    1.026
     9   6 C    3.986 --    16 C    1.385    10 C    1.383     8 C    1.026
    10   6 C    3.988 --    11 C    1.470     9 C    1.383    45 H    0.972
                            15 C    0.100
    11   6 C    3.988 --    10 C    1.470    12 C    1.371    46 H    0.968
                            16 C    0.101
    12   6 C    3.984 --    15 C    1.379    11 C    1.371    13 C    1.048
    13   6 C    3.864 --    14 O    1.809    12 C    1.048    47 H    0.942
    14   8 O    2.005 --    13 C    1.809
    15   6 C    3.993 --    16 C    1.464    12 C    1.379    48 H    0.971
                            10 C    0.100
    16   6 C    3.988 --    15 C    1.464     9 C    1.385    49 H    0.972
                            11 C    0.101
    17   6 C    3.916 --     8 C    1.336    20 N    1.199    18 C    1.177
    18   6 C    3.956 --    19 C    1.641    17 C    1.177    50 H    0.973
    19   6 C    3.960 --    18 C    1.641    21 C    1.187    51 H    0.973
    20   7 N    3.379 --    21 C    1.247    17 C    1.199     1 Fe   0.658
    21   6 C    3.901 --    22 C    1.249    20 N    1.247    19 C    1.187
    22   6 C    3.921 --    23 C    1.250    21 C    1.249   121 C    1.206
    23   6 C    3.901 --    22 C    1.250    27 N    1.245    24 C    1.187
    24   6 C    3.960 --    25 C    1.639    23 C    1.187    52 H    0.973
    25   6 C    3.956 --    24 C    1.639    26 C    1.178    53 H    0.973
    26   6 C    3.916 --    28 C    1.333    27 N    1.200    25 C    1.178
    27   7 N    3.379 --    23 C    1.245    26 C    1.200     1 Fe   0.658
    28   6 C    3.922 --    26 C    1.333    37 C    1.311    29 C    1.031
    29   6 C    3.986 --    30 C    1.383    36 C    1.381    28 C    1.031
    30   6 C    3.987 --    31 C    1.465    29 C    1.383    54 H    0.972
                            35 C    0.101
    31   6 C    3.993 --    30 C    1.465    32 C    1.379    55 H    0.971
                            36 C    0.100
    32   6 C    3.983 --    31 C    1.379    35 C    1.370    33 C    1.048
    33   6 C    3.864 --    34 O    1.809    32 C    1.048    56 H    0.942
    34   8 O    2.004 --    33 C    1.809
    35   6 C    3.988 --    36 C    1.470    32 C    1.370    57 H    0.968
                            30 C    0.101
    36   6 C    3.987 --    35 C    1.470    29 C    1.381    58 H    0.972
                            31 C    0.100
    37   6 C    3.919 --    28 C    1.311    41 N    1.226    38 C    1.174
    38   6 C    3.961 --    39 C    1.650    37 C    1.174    59 H    0.973
    39   6 C    3.958 --    38 C    1.650    40 C    1.173    60 H    0.975
    40   6 C    3.923 --     2 C    1.363    41 N    1.208    39 C    1.173
    41   7 N    3.380 --    37 C    1.226    40 C    1.208     1 Fe   0.665
    42   1 H    1.000 --     2 C    0.970
    43   1 H    0.997 --     4 C    0.975
    44   1 H    1.004 --     5 C    0.972
    45   1 H    1.003 --    10 C    0.972
    46   1 H    1.005 --    11 C    0.968
    47   1 H    1.010 --    13 C    0.942
    48   1 H    1.000 --    15 C    0.971
    49   1 H    1.003 --    16 C    0.972
    50   1 H    1.004 --    18 C    0.973
    51   1 H    1.001 --    19 C    0.973
    52   1 H    1.001 --    24 C    0.973
    53   1 H    1.003 --    25 C    0.973
    54   1 H    1.004 --    30 C    0.972
    55   1 H    1.000 --    31 C    0.971
    56   1 H    1.010 --    33 C    0.942
    57   1 H    1.005 --    35 C    0.968
    58   1 H    1.004 --    36 C    0.972
    59   1 H    1.004 --    38 C    0.973
    60   1 H    0.997 --    39 C    0.975
    61  26 Fe   3.098 --   101 N    0.667    67 N    0.665    80 N    0.660
                            87 N    0.659
    62   6 C    3.921 --    63 C    1.364   100 C    1.364   102 H    0.970
    63   6 C    3.923 --    62 C    1.364    67 N    1.209    64 C    1.172
    64   6 C    3.959 --    65 C    1.651    63 C    1.172   103 H    0.975
    65   6 C    3.961 --    64 C    1.651    66 C    1.174   104 H    0.972
    66   6 C    3.919 --    68 C    1.313    67 N    1.226    65 C    1.174
    67   7 N    3.381 --    66 C    1.226    63 C    1.209    61 Fe   0.665
    68   6 C    3.923 --    77 C    1.336    66 C    1.313    69 C    1.026
    69   6 C    3.986 --    76 C    1.385    70 C    1.383    68 C    1.026
    70   6 C    3.988 --    71 C    1.470    69 C    1.383   105 H    0.972
                            75 C    0.100
    71   6 C    3.988 --    70 C    1.470    72 C    1.371   106 H    0.968
                            76 C    0.101
    72   6 C    3.984 --    75 C    1.379    71 C    1.371    73 C    1.049
    73   6 C    3.864 --    74 O    1.809    72 C    1.049   107 H    0.942
    74   8 O    2.005 --    73 C    1.809
    75   6 C    3.993 --    76 C    1.464    72 C    1.379   108 H    0.971
                            70 C    0.100
    76   6 C    3.988 --    75 C    1.464    69 C    1.385   109 H    0.972
                            71 C    0.101
    77   6 C    3.916 --    68 C    1.336    80 N    1.199    78 C    1.178
    78   6 C    3.956 --    79 C    1.641    77 C    1.178   110 H    0.973
    79   6 C    3.960 --    78 C    1.641    81 C    1.187   111 H    0.973
    80   7 N    3.381 --    81 C    1.246    77 C    1.199    61 Fe   0.660
    81   6 C    3.901 --    82 C    1.250    80 N    1.246    79 C    1.187
    82   6 C    3.923 --    83 C    1.252    81 C    1.250   136 C    1.203
    83   6 C    3.901 --    82 C    1.252    87 N    1.244    84 C    1.187
    84   6 C    3.959 --    85 C    1.640    83 C    1.187   112 H    0.973
    85   6 C    3.956 --    84 C    1.640    86 C    1.178   113 H    0.973
    86   6 C    3.916 --    88 C    1.333    87 N    1.201    85 C    1.178
    87   7 N    3.380 --    83 C    1.244    86 C    1.201    61 Fe   0.659
    88   6 C    3.923 --    86 C    1.333    97 C    1.312    89 C    1.031
    89   6 C    3.986 --    90 C    1.383    96 C    1.381    88 C    1.031
    90   6 C    3.987 --    91 C    1.465    89 C    1.383   114 H    0.972
                            95 C    0.101
    91   6 C    3.993 --    90 C    1.465    92 C    1.378   115 H    0.971
                            96 C    0.100
    92   6 C    3.984 --    91 C    1.378    95 C    1.371    93 C    1.049
    93   6 C    3.864 --    94 O    1.809    92 C    1.049   116 H    0.942
    94   8 O    2.004 --    93 C    1.809
    95   6 C    3.988 --    96 C    1.470    92 C    1.371   117 H    0.968
                            90 C    0.101
    96   6 C    3.987 --    95 C    1.470    89 C    1.381   118 H    0.972
                            91 C    0.100
    97   6 C    3.919 --    88 C    1.312   101 N    1.225    98 C    1.174
    98   6 C    3.961 --    99 C    1.650    97 C    1.174   119 H    0.973
    99   6 C    3.958 --    98 C    1.650   100 C    1.172   120 H    0.975
   100   6 C    3.923 --    62 C    1.364   101 N    1.209    99 C    1.172
   101   7 N    3.381 --    97 C    1.225   100 C    1.209    61 Fe   0.667
   102   1 H    1.000 --    62 C    0.970
   103   1 H    0.997 --    64 C    0.975
   104   1 H    1.004 --    65 C    0.972
   105   1 H    1.003 --    70 C    0.972
   106   1 H    1.005 --    71 C    0.968
   107   1 H    1.010 --    73 C    0.942
   108   1 H    1.000 --    75 C    0.971
   109   1 H    1.003 --    76 C    0.972
   110   1 H    1.003 --    78 C    0.973
   111   1 H    1.001 --    79 C    0.973
   112   1 H    1.001 --    84 C    0.973
   113   1 H    1.003 --    85 C    0.973
   114   1 H    1.004 --    90 C    0.972
   115   1 H    1.000 --    91 C    0.971
   116   1 H    1.010 --    93 C    0.942
   117   1 H    1.005 --    95 C    0.968
   118   1 H    1.003 --    96 C    0.972
   119   1 H    1.004 --    98 C    0.973
   120   1 H    0.997 --    99 C    0.975
   121   6 C    3.862 --   122 C    2.409    22 C    1.206   124 C    0.182
   122   6 C    3.924 --   121 C    2.409   123 C    1.365
   123   6 C    3.878 --   124 C    2.302   122 C    1.365   126 C    0.177
   124   6 C    3.914 --   123 C    2.302   125 C    1.393   121 C    0.182
   125   6 C    3.912 --   126 C    2.300   124 C    1.393   128 C    0.181
   126   6 C    3.880 --   125 C    2.300   127 C    1.368   123 C    0.177
   127   6 C    3.919 --   128 C    2.404   126 C    1.368
   128   6 C    3.863 --   127 C    2.404   138 C    1.213   125 C    0.181
   129   6 C    3.864 --   130 C    2.407   158 C    1.210   132 C    0.182
   130   6 C    3.920 --   129 C    2.407   131 C    1.365
   131   6 C    3.881 --   132 C    2.304   130 C    1.365   134 C    0.177
   132   6 C    3.912 --   131 C    2.304   133 C    1.389   129 C    0.182
   133   6 C    3.915 --   134 C    2.306   132 C    1.389   136 C    0.182
   134   6 C    3.879 --   133 C    2.306   135 C    1.362   131 C    0.177
   135   6 C    3.925 --   136 C    2.413   134 C    1.362
   136   6 C    3.863 --   135 C    2.413    82 C    1.203   133 C    0.182
   137  26 Fe   3.057 --   177 N    0.649   156 N    0.649   163 N    0.648
                           143 N    0.648
   138   6 C    3.906 --   139 C    1.245   176 C    1.244   128 C    1.213
   139   6 C    3.902 --   143 N    1.247   138 C    1.245   140 C    1.190
   140   6 C    3.959 --   141 C    1.634   139 C    1.190   178 H    0.973
   141   6 C    3.958 --   140 C    1.634   142 C    1.182   179 H    0.973
   142   6 C    3.914 --   144 C    1.321   143 N    1.206   141 C    1.182
   143   7 N    3.368 --   139 C    1.247   142 C    1.206   137 Fe   0.648
   144   6 C    3.914 --   153 C    1.322   142 C    1.321   145 C    1.031
   145   6 C    3.986 --   152 C    1.384   146 C    1.381   144 C    1.031
   146   6 C    3.987 --   147 C    1.470   145 C    1.381   180 H    0.972
                           151 C    0.100
   147   6 C    3.988 --   146 C    1.470   148 C    1.371   181 H    0.967
                           152 C    0.101
   148   6 C    3.984 --   151 C    1.380   147 C    1.371   149 C    1.047
   149   6 C    3.864 --   150 O    1.811   148 C    1.047   182 H    0.942
   150   8 O    2.006 --   149 C    1.811
   151   6 C    3.993 --   152 C    1.464   148 C    1.380   183 H    0.971
                           146 C    0.100
   152   6 C    3.987 --   151 C    1.464   145 C    1.384   184 H    0.972
                           147 C    0.101
   153   6 C    3.914 --   144 C    1.322   156 N    1.205   154 C    1.182
   154   6 C    3.958 --   155 C    1.635   153 C    1.182   185 H    0.973
   155   6 C    3.959 --   154 C    1.635   157 C    1.190   186 H    0.973
   156   7 N    3.368 --   157 C    1.248   153 C    1.205   137 Fe   0.649
   157   6 C    3.902 --   156 N    1.248   158 C    1.246   155 C    1.190
   158   6 C    3.907 --   159 C    1.246   157 C    1.246   129 C    1.210
   159   6 C    3.903 --   163 N    1.247   158 C    1.246   160 C    1.190
   160   6 C    3.959 --   161 C    1.634   159 C    1.190   187 H    0.973
   161   6 C    3.958 --   160 C    1.634   162 C    1.182   188 H    0.973
   162   6 C    3.914 --   164 C    1.320   163 N    1.206   161 C    1.182
   163   7 N    3.368 --   159 C    1.247   162 C    1.206   137 Fe   0.648
   164   6 C    3.914 --   173 C    1.323   162 C    1.320   165 C    1.031
   165   6 C    3.986 --   166 C    1.384   172 C    1.381   164 C    1.031
   166   6 C    3.987 --   167 C    1.464   165 C    1.384   189 H    0.972
                           171 C    0.101
   167   6 C    3.993 --   166 C    1.464   168 C    1.380   190 H    0.971
                           172 C    0.100
   168   6 C    3.984 --   167 C    1.380   171 C    1.371   169 C    1.047
   169   6 C    3.864 --   170 O    1.811   168 C    1.047   191 H    0.942
   170   8 O    2.006 --   169 C    1.811
   171   6 C    3.988 --   172 C    1.470   168 C    1.371   192 H    0.967
                           166 C    0.101
   172   6 C    3.987 --   171 C    1.470   165 C    1.381   193 H    0.972
                           167 C    0.100
   173   6 C    3.914 --   164 C    1.323   177 N    1.204   174 C    1.182
   174   6 C    3.957 --   175 C    1.635   173 C    1.182   194 H    0.973
   175   6 C    3.959 --   174 C    1.635   176 C    1.190   195 H    0.973
   176   6 C    3.902 --   177 N    1.249   138 C    1.244   175 C    1.190
   177   7 N    3.368 --   176 C    1.249   173 C    1.204   137 Fe   0.649
   178   1 H    1.001 --   140 C    0.973
   179   1 H    1.003 --   141 C    0.973
   180   1 H    1.004 --   146 C    0.972
   181   1 H    1.004 --   147 C    0.967
   182   1 H    1.010 --   149 C    0.942
   183   1 H    1.000 --   151 C    0.971
   184   1 H    1.003 --   152 C    0.972
   185   1 H    1.003 --   154 C    0.973
   186   1 H    1.001 --   155 C    0.973
   187   1 H    1.001 --   160 C    0.973
   188   1 H    1.003 --   161 C    0.973
   189   1 H    1.003 --   166 C    0.972
   190   1 H    1.000 --   167 C    0.971
   191   1 H    1.010 --   169 C    0.942
   192   1 H    1.004 --   171 C    0.967
   193   1 H    1.004 --   172 C    0.972
   194   1 H    1.003 --   174 C    0.973
   195   1 H    1.001 --   175 C    0.973
 ---------------------------------------------------------------------------

           -------------------------------------------------
          | TOTAL ENERGY             -354.597966331657 Eh   |
          | GRADIENT NORM               0.000785035010 Eh/α |
          | HOMO-LUMO GAP               0.054578036431 eV   |
           -------------------------------------------------

 * finished run on 2022/07/29 at 16:56:13.885
