   * xtb version 6.5.1 (b24c23e) compiled by 'conda@728c89f4b128' on 2022-07-12
          program call               : xtb PhOH_C4_3.xyz --gfn 1 --opt -T 48

   ID    Z sym.   atoms
    1    6 C      1-5, 7-11, 13-17, 19-24, 26-30, 32-37, 60-64, 66-70, 72-76,
                  78-83, 85-89, 91-96, 119-131, 133-137, 139-143, 145-150,
                  152-156, 158-163
    2    7 N      6, 18, 25, 38, 65, 77, 84, 97, 132, 144, 151, 164
    3    8 O      12, 31, 71, 90, 138, 157
    4    1 H      39-59, 98-118, 165-184

          :  Hamiltonian                  GFN1-xTB          :
 * total energy  :  -318.6668831 Eh     change        0.3125137E-08 Eh
 * total energy  :  -318.8936688 Eh     change       -0.2267857E+00 Eh
 * total energy  :  -318.9916091 Eh     change       -0.9794034E-01 Eh
 * total energy  :  -319.0382165 Eh     change       -0.4660738E-01 Eh
 * total energy  :  -319.0686168 Eh     change       -0.3040027E-01 Eh
 * total energy  :  -319.1046350 Eh     change       -0.3601821E-01 Eh
 * total energy  :  -319.1452563 Eh     change       -0.4062134E-01 Eh
 * total energy  :  -319.1846544 Eh     change       -0.3939807E-01 Eh
 * total energy  :  -319.2142998 Eh     change       -0.2964546E-01 Eh
 * total energy  :  -319.2395516 Eh     change       -0.2525181E-01 Eh
 * total energy  :  -319.4892516 Eh     change       -0.8911912E-05 Eh
 * total energy  :  -319.4892443 Eh     change        0.7327093E-05 Eh
 * total energy  :  -319.4892699 Eh     change       -0.2563808E-04 Eh
 * total energy  :  -319.4892872 Eh     change       -0.1729409E-04 Eh
 * total energy  :  -319.4892960 Eh     change       -0.8793514E-05 Eh
 * total energy  :  -319.4893032 Eh     change       -0.7176540E-05 Eh
 * total energy  :  -319.4893164 Eh     change       -0.1325785E-04 Eh
 * total energy  :  -319.4893205 Eh     change       -0.4112610E-05 Eh
 * total energy  :  -319.4893236 Eh     change       -0.3097648E-05 Eh
   *** GEOMETRY OPTIMIZATION CONVERGED AFTER 76 ITERATIONS ***

 final structure:
================
184
 xtb: 6.5.1 (b24c23e)
C           27.28181667300858        0.11370634947287        0.05873695845645
C           27.89468513344302        1.24449838449083       -0.46540722702895
C           27.24653191417076        2.38903559615668       -1.00864999227188
C           28.21174126641579        3.27343948524958       -1.40066043174186
C           29.48117506758114        2.70333327444894       -1.09745372193520
N           29.23872394487745        1.47627008220851       -0.54763703246095
C           30.74627650270682        3.26131192086930       -1.31487482633476
C           30.78339407375817        4.62494011230504       -1.89674276615607
C           31.42115124219787        4.85597976144544       -3.11633833473603
C           31.45052399750850        6.12556366122685       -3.67178829634579
C           30.84319023645204        7.18650645663334       -3.00400103871402
O           30.84912037173641        8.44615962146499       -3.51127962153940
C           30.20687005631088        6.97089408812222       -1.78299272440654
C           30.17682236579396        5.69862560922576       -1.23991271501975
C           31.95847781091916        2.62892220320869       -1.02492401390114
C           33.25793541369205        3.25735476426113       -1.18168153726116
C           34.17455710104841        2.33838991552241       -0.81313113279564
N           32.10722540921512        1.36222140903528       -0.54954048456705
C           33.43419330926641        1.15344725092451       -0.42542264708539
C           34.06501331285726       -0.03652449111897       -0.01169795286344
C           33.42406760592037       -1.21494065934484        0.41342084226230
C           34.06146862467696       -2.42535306603671        0.79461839225985
C           33.09168561225997       -3.31229881955190        1.17254275190666
C           31.83099639353022       -2.66609361983387        1.04363199595225
N           32.08326965702521       -1.40611284426791        0.56838072529512
C           30.56879654824774       -3.19872199386372        1.32906488861093
C           30.53102183573875       -4.57227596023904        1.88512076987850
C           31.18210087800216       -4.87366925349345        3.08432706838596
C           31.14556000116981       -6.15309177597669        3.60952326999812
C           30.45721723919299       -7.15865086303519        2.93319825157317
O           30.44442877182571       -8.40388313422599        3.47464030250846
C           29.80629808586513       -6.87466983009063        1.73488396965785
C           29.84302307276887       -5.58823924760769        1.22005071044295
C           29.35692698088146       -2.52834358833802        1.12813651624778
C           28.05383932461930       -3.06624930741228        1.48690177774016
C           27.14428596102453       -2.13880637710248        1.12520497775375
C           27.89103453109172       -1.02989584597265        0.55853092975622
N           29.22031592499427       -1.29431039826051        0.58764434511523
H           26.19671220987292        0.13455977833524        0.07484953332926
H           26.17751169899386        2.50510388382052       -1.09022656327722
H           28.06268732808350        4.23363908558178       -1.86730508645488
H           29.96227241430013        0.83140625476608       -0.24790102541881
H           31.88248049194851        4.02862723214920       -3.64395197453527
H           31.94143937836933        6.29710885227726       -4.62375582464501
H           31.32220854403898        8.48441588769396       -4.35340087181043
H           29.74364798534933        7.80588579871221       -1.27198250895956
H           29.69467545726464        5.53546259729641       -0.28246436039891
H           33.42422465900450        4.26990661241813       -1.51216350249391
H           35.24862843099321        2.43101617021616       -0.79018793666660
H           35.12688814778103       -2.58894224798005        0.77355839683646
H           33.23387023895449       -4.32859544090548        1.50201152449232
H           31.36485707101494       -0.71993455371035        0.36181879433958
H           31.70434951546670       -4.08875492012280        3.62004414821638
H           31.64307544137556       -6.38672681228122        4.54267396404823
H           29.93551054109039       -9.01960639590799        2.93036669918393
H           29.27536959233269       -7.66126588181894        1.20943857681826
H           29.34791845536852       -5.37265739902431        0.27978539644404
H           27.88301366642474       -4.01792271119612        1.96400483970646
H           26.07079434716717       -2.16926236256045        1.22824698716799
C           60.93094984587220        0.01655511335815        0.12998268182950
C           60.31411551496081       -1.04114787814130        0.78548162138417
C           60.95848965468137       -2.12587974068713        1.44391113016247
C           59.99033215225220       -2.94045581945892        1.96010809999542
C           58.72270184408117       -2.37359164746713        1.64347529720241
N           58.96927874639707       -1.23670943935414        0.92693585600030
C           57.45594264362295       -2.86931486396194        1.97213020246357
C           57.41464701062318       -4.10945993768683        2.78485333975281
C           56.79541864781919       -5.25914017385617        2.29299548305683
C           56.75862072684128       -6.42199724185577        3.04655736583730
C           57.33971645385598       -6.44424295788404        4.31232453976991
O           57.32423912661648       -7.56081346596678        5.08513089059760
C           57.95881233030759       -5.30221762879748        4.81701564831351
C           57.99656255707614       -4.14829050782293        4.05445337959804
C           56.24546259389854       -2.28157039610698        1.59450500891626
C           54.94286942372320       -2.77570868423339        2.00370580652643
C           54.02949301783092       -1.95369808121908        1.44691389182296
N           56.10147631975011       -1.17045084279614        0.82198980713033
C           54.77475938314611       -0.95314416959851        0.70762071554204
C           54.14808703441354        0.08240143995925       -0.01264295356264
C           54.79058272956150        1.11557701066698       -0.71826834671494
C           54.15449775148142        2.13087540114059       -1.48117714001314
C           55.12702128699686        2.93227656505976       -2.01163692792706
C           56.38875397841947        2.43749242846106       -1.57880618457848
N           56.13334089855885        1.33459151708289       -0.80713084446976
C           57.65445033460317        2.94817354610831       -1.88697426418039
C           57.69994393606338        4.16967412972509       -2.72598392081858
C           57.08598088077284        5.35144458582831       -2.30315649704146
C           57.13007253132012        6.49258277531781       -3.08437831464752
C           57.78856735728622        6.46498133414891       -4.31235430859915
O           57.80934993300587        7.60130818099104       -5.05561232334867
C           58.40288777258110        5.29352408727972       -4.74890297106429
C           58.35897977632818        4.15733272658369       -3.95622866668885
C           58.86505222490064        2.38796305453113       -1.46357904379699
C           60.17244719901681        2.96642595746336       -1.73257098881445
C           61.07871468690783        2.14275982775176       -1.16831207944930
C           60.32609315933240        1.06799431363294       -0.54623289591730
N           58.99662149378980        1.25383762653035       -0.73568569266687
H           62.01612756246683        0.01223783440573        0.15310393420060
H           62.02719961179337       -2.25804009262628        1.50161487180151
H           60.13577570066236       -3.85919977127184        2.50485365336196
H           58.24782770401661       -0.63044032098749        0.55116739508722
H           56.35405932220520       -5.24723869301158        1.30266317047591
H           56.28159895845553       -7.31447436377827        2.65589876827080
H           56.86440542528265       -8.28786489068009        4.64420433580979
H           58.40213912924337       -5.33211584509257        5.80467736026120
H           58.46505874407887       -3.25595818722524        4.45453189503384
H           54.77202170910804       -3.62593057307864        2.64401510813129
H           52.95460481657368       -1.99308286545467        1.52254342831843
H           53.08789291882871        2.22239355662801       -1.60893590376339
H           54.98599933326115        3.78488109542286       -2.65568921317647
H           56.85141173805573        0.76089619686504       -0.37711543570450
H           56.58723445008950        5.37931790420144       -1.34073077522043
H           56.66130693025973        7.41163616837363       -2.75505911675168
H           58.29556606692063        7.47338129104126       -5.88118854269807
H           58.91095681596635        5.27509988606405       -5.70715817892016
H           58.82562943796523        3.24246743877179       -4.30405915869012
H           60.34810049142087        3.88638088662574       -2.26673618020190
H           62.15371893530244        2.23205554648573       -1.15019737097444
C           36.69470917430365       -0.08387079962686       -0.01722801084466
C           35.47314170764130       -0.06253674805561       -0.01807684188940
C           38.04588026873839       -0.09356525574270       -0.01574380085850
C           39.26769412982141       -0.09443865819982       -0.00980986043576
C           50.16515320430392        0.08399496664737       -0.06132889195677
C           48.94389872129710        0.06540592289168       -0.06384662208191
C           51.51731568152879        0.09240213422610       -0.05169686946144
C           52.73854738646658        0.09296047366670       -0.03707610588148
C           40.67530311364641       -0.08641347008460        0.00268764242463
C           41.31471313138144       -1.20194563436331       -0.56899099854981
C           40.67892053660199       -2.31194433285118       -1.18330364197136
C           41.65414796735197       -3.14937980391458       -1.65125653712915
C           42.91570903677700       -2.57913686174451       -1.32711924882045
N           42.65905625183048       -1.40295606612318       -0.67437715332814
C           44.18125757786907       -3.08861273343158       -1.64189100883276
C           44.21163597025281       -4.38985806126255       -2.35491100803635
C           44.77414127857045       -4.48286912757321       -3.62851013592818
C           44.79987784476515       -5.69220550726389       -4.30533417705580
C           44.26533461310546       -6.83066829117226       -3.70660034818875
O           44.27183203457359       -8.03572055530435       -4.33267349659920
C           43.70413932185339       -6.75255476347346       -2.43332694509403
C           43.67624629443465       -5.53921985937543       -1.76865283169931
C           45.39949426265216       -2.47203211093001       -1.34771685861180
C           46.69383961631462       -3.06678727543003       -1.63111479979488
C           47.62187530885159       -2.19124492889976       -1.19284295537076
N           45.56290791418503       -1.26646085443279       -0.73841950714802
C           46.89395407849913       -1.06816671717719       -0.63611260430395
C           47.53504422155196        0.04753886221316       -0.06508183592258
C           46.89614789425758        1.15015375177954        0.53086011066042
C           47.53272014403930        2.24720586941219        1.16769518106803
C           46.55816840394942        3.07625585803925        1.65124995041506
C           45.29620296615819        2.51547246101017        1.31229361990849
N           45.55191761248022        1.35050452404733        0.63942891984211
C           44.03051027417420        3.02800447468439        1.62120434986561
C           43.99861620270126        4.31900455598422        2.35190798759992
C           44.55696550399026        5.47181174910099        1.79445158333415
C           44.52783439505311        6.67489894534733        2.47735713515871
C           43.94183398345788        6.73922753489704        3.74021674177592
O           43.93508529057781        7.93429298381800        4.38472459374655
C           43.38327308860568        5.59734567327419        4.30993634329928
C           43.41065803269140        4.39845768780442        3.61500913932679
C           42.81220215357114        2.42366001837797        1.30286527061222
C           41.51892803829923        3.03027490985767        1.56410900280042
C           40.59052267871177        2.16356252941693        1.10918148112725
C           41.31750285089337        1.03260378058960        0.56764138964241
N           42.64816379690969        1.21994108184583        0.68962740833528
H           39.61132466098863       -2.43981883862833       -1.26188428918799
H           41.51356709292536       -4.07437338167413       -2.18620585321983
H           43.37207327203368       -0.76585846843863       -0.33520402481996
H           45.17946534139666       -3.59475989903019       -4.10041307428626
H           45.23208628905730       -5.75658266620874       -5.29817269327256
H           44.68738998370456       -7.97769981323917       -5.20349797541793
H           43.29677225322693       -7.64673663651472       -1.97794406888966
H           43.25184062932039       -5.48239539436047       -0.77244576354869
H           46.84995301256470       -4.03147140834955       -2.08613643012857
H           48.69632757637712       -2.27699081623554       -1.22335833925966
H           48.60033152138594        2.37190086317537        1.25062031562095
H           46.69955258585520        3.98970719840399        2.20543031406812
H           44.83836291180272        0.72052204014061        0.28836360902310
H           45.00020072101945        5.42628200233366        0.80589506059380
H           44.95326174890467        7.57171084195657        2.04423233601168
H           43.50215709105017        7.86728905625759        5.24643604265135
H           42.93130243180698        5.65096136529769        5.29454710386923
H           42.98658660992307        3.50747043737968        4.06448389305163
H           41.36411373147784        3.99687212851910        2.01545590452086
H           39.51661794861680        2.25976941140786        1.12083357947540

          :  Hamiltonian                  GFN1-xTB          :
         :: total energy            -319.489323629413 Eh    ::
         :: gradient norm              0.000244749994 Eh/a0 ::
         :: HOMO-LUMO gap              0.964704750022 eV    ::
         :: SCC energy              -324.564210771812 Eh    ::
         :: repulsion energy           5.230795290454 Eh    ::

    * Orbital Energies and Occupations

         #    Occupation            Energy/Eh            Energy/eV
      -------------------------------------------------------------
         1        2.0000           -0.8055542             -21.9202
       ...           ...                  ...                  ...
       275        2.0000           -0.4160157             -11.3204
       276        2.0000           -0.4149921             -11.2925
       277        2.0000           -0.4148580             -11.2889
       278        2.0000           -0.4146188             -11.2824
       279        2.0000           -0.4135181             -11.2524
       280        2.0000           -0.4132111             -11.2440
       281        2.0000           -0.4131051             -11.2412
       282        2.0000           -0.3975751             -10.8186
       283        2.0000           -0.3969113             -10.8005
       284        2.0000           -0.3967785             -10.7969
       285        2.0000           -0.3841196             -10.4524
       286        2.0000           -0.3804024             -10.3513
       287        2.0000           -0.3755485             -10.2192 (HOMO)
       288                         -0.3400962              -9.2545 (LUMO)
       289                         -0.3332009              -9.0669
       290                         -0.3297180              -8.9721
       291                         -0.3289951              -8.9524
       292                         -0.3287118              -8.9447
       293                         -0.3283449              -8.9347
       294                         -0.3010171              -8.1911
       295                         -0.2948135              -8.0223
       296                         -0.2934427              -7.9850
       297                         -0.2675651              -7.2808
       298                         -0.2673746              -7.2756
       ...                                ...                  ...
       612                          1.5162496              41.2593
      -------------------------------------------------------------
                  HL-Gap            0.0354522 Eh            0.9647 eV

Wiberg/Mayer (AO) data.
largest (>0.10) Wiberg bond orders for each atom

     #   Z sym  total        # sym  WBO       # sym  WBO       # sym  WBO
 ---------------------------------------------------------------------------
     1   6 C    3.926 --    37 C    1.365     2 C    1.346    39 H    0.971
     2   6 C    3.903 --     1 C    1.346     3 C    1.230     6 N    1.169
     3   6 C    3.954 --     4 C    1.594     2 C    1.230    40 H    0.977
     4   6 C    3.959 --     3 C    1.594     5 C    1.235    41 H    0.974
     5   6 C    3.896 --     7 C    1.303     4 C    1.235     6 N    1.177
     6   7 N    3.470 --     5 C    1.177     2 C    1.169    42 H    0.873
     7   6 C    3.940 --    15 C    1.333     5 C    1.303     8 C    1.032
     8   6 C    3.989 --     9 C    1.392    14 C    1.383     7 C    1.032
     9   6 C    3.988 --    10 C    1.453     8 C    1.392    43 H    0.972
                            13 C    0.105
    10   6 C    3.988 --     9 C    1.453    11 C    1.371    44 H    0.970
                            14 C    0.102
    11   6 C    3.900 --    10 C    1.371    13 C    1.364    12 O    1.040
    12   8 O    2.043 --    11 C    1.040    45 H    0.865
    13   6 C    3.990 --    14 C    1.466    11 C    1.364    46 H    0.971
                             9 C    0.105
    14   6 C    3.987 --    13 C    1.466     8 C    1.383    47 H    0.973
                            10 C    0.102
    15   6 C    3.915 --     7 C    1.333    18 N    1.289    16 C    1.126
    16   6 C    3.966 --    17 C    1.709    15 C    1.126    48 H    0.974
    17   6 C    3.964 --    16 C    1.709    19 C    1.129    49 H    0.974
    18   7 N    3.022 --    19 C    1.340    15 C    1.289
    19   6 C    3.912 --    18 N    1.340    20 C    1.259    17 C    1.129
    20   6 C    3.936 --    19 C    1.259    21 C    1.255   120 C    1.181
    21   6 C    3.888 --    20 C    1.255    22 C    1.249    25 N    1.188
    22   6 C    3.959 --    23 C    1.583    21 C    1.249    50 H    0.975
    23   6 C    3.956 --    22 C    1.583    24 C    1.241    51 H    0.974
    24   6 C    3.898 --    26 C    1.308    23 C    1.241    25 N    1.165
    25   7 N    3.474 --    21 C    1.188    24 C    1.165    52 H    0.873
    26   6 C    3.927 --    34 C    1.320    24 C    1.308    27 C    1.033
    27   6 C    3.989 --    33 C    1.391    28 C    1.382    26 C    1.033
    28   6 C    3.986 --    29 C    1.467    27 C    1.382    53 H    0.973
                            32 C    0.102
    29   6 C    3.990 --    28 C    1.467    30 C    1.364    54 H    0.971
                            33 C    0.105
    30   6 C    3.900 --    32 C    1.371    29 C    1.364    31 O    1.040
    31   8 O    2.043 --    30 C    1.040    55 H    0.865
    32   6 C    3.988 --    33 C    1.453    30 C    1.371    56 H    0.970
                            28 C    0.102
    33   6 C    3.987 --    32 C    1.453    27 C    1.391    57 H    0.972
                            29 C    0.105
    34   6 C    3.929 --    26 C    1.320    38 N    1.318    35 C    1.119
    35   6 C    3.967 --    36 C    1.721    34 C    1.119    58 H    0.974
    36   6 C    3.966 --    35 C    1.721    37 C    1.118    59 H    0.976
    37   6 C    3.930 --     1 C    1.365    38 N    1.300    36 C    1.118
    38   7 N    3.013 --    34 C    1.318    37 C    1.300
    39   1 H    1.002 --     1 C    0.971
    40   1 H    0.998 --     3 C    0.977
    41   1 H    1.005 --     4 C    0.974
    42   1 H    0.986 --     6 N    0.873
    43   1 H    1.005 --     9 C    0.972
    44   1 H    0.999 --    10 C    0.970
    45   1 H    0.887 --    12 O    0.865
    46   1 H    0.999 --    13 C    0.971
    47   1 H    1.005 --    14 C    0.973
    48   1 H    1.005 --    16 C    0.974
    49   1 H    1.003 --    17 C    0.974
    50   1 H    1.002 --    22 C    0.975
    51   1 H    1.005 --    23 C    0.974
    52   1 H    0.987 --    25 N    0.873
    53   1 H    1.005 --    28 C    0.973
    54   1 H    0.999 --    29 C    0.971
    55   1 H    0.887 --    31 O    0.865
    56   1 H    0.999 --    32 C    0.970
    57   1 H    1.005 --    33 C    0.972
    58   1 H    1.005 --    35 C    0.974
    59   1 H    0.998 --    36 C    0.976
    60   6 C    3.927 --    96 C    1.366    61 C    1.347    98 H    0.971
    61   6 C    3.903 --    60 C    1.347    62 C    1.230    65 N    1.170
    62   6 C    3.954 --    63 C    1.595    61 C    1.230    99 H    0.977
    63   6 C    3.959 --    62 C    1.595    64 C    1.235   100 H    0.974
    64   6 C    3.897 --    66 C    1.304    63 C    1.235    65 N    1.176
    65   7 N    3.470 --    64 C    1.176    61 C    1.170   101 H    0.873
    66   6 C    3.940 --    74 C    1.333    64 C    1.304    67 C    1.031
    67   6 C    3.989 --    68 C    1.392    73 C    1.384    66 C    1.031
    68   6 C    3.988 --    69 C    1.453    67 C    1.392   102 H    0.972
                            72 C    0.105
    69   6 C    3.988 --    68 C    1.453    70 C    1.371   103 H    0.970
                            73 C    0.102
    70   6 C    3.900 --    69 C    1.371    72 C    1.364    71 O    1.040
    71   8 O    2.043 --    70 C    1.040   104 H    0.865
    72   6 C    3.990 --    73 C    1.466    70 C    1.364   105 H    0.971
                            68 C    0.105
    73   6 C    3.987 --    72 C    1.466    67 C    1.384   106 H    0.973
                            69 C    0.102
    74   6 C    3.916 --    66 C    1.333    77 N    1.290    75 C    1.125
    75   6 C    3.967 --    76 C    1.710    74 C    1.125   107 H    0.974
    76   6 C    3.965 --    75 C    1.710    78 C    1.128   108 H    0.974
    77   7 N    3.023 --    78 C    1.339    74 C    1.290
    78   6 C    3.913 --    77 N    1.339    79 C    1.261    76 C    1.128
    79   6 C    3.937 --    78 C    1.261    80 C    1.258   126 C    1.175
    80   6 C    3.889 --    79 C    1.258    81 C    1.247    84 N    1.187
    81   6 C    3.959 --    82 C    1.584    80 C    1.247   109 H    0.975
    82   6 C    3.957 --    81 C    1.584    83 C    1.240   110 H    0.974
    83   6 C    3.898 --    85 C    1.310    82 C    1.240    84 N    1.166
    84   7 N    3.474 --    80 C    1.187    83 C    1.166   111 H    0.873
    85   6 C    3.928 --    93 C    1.319    83 C    1.310    86 C    1.033
    86   6 C    3.989 --    92 C    1.391    87 C    1.383    85 C    1.033
    87   6 C    3.986 --    88 C    1.467    86 C    1.383   112 H    0.973
                            91 C    0.102
    88   6 C    3.990 --    87 C    1.467    89 C    1.364   113 H    0.971
                            92 C    0.105
    89   6 C    3.900 --    91 C    1.371    88 C    1.364    90 O    1.040
    90   8 O    2.043 --    89 C    1.040   114 H    0.865
    91   6 C    3.988 --    92 C    1.453    89 C    1.371   115 H    0.970
                            87 C    0.102
    92   6 C    3.987 --    91 C    1.453    86 C    1.391   116 H    0.972
                            88 C    0.105
    93   6 C    3.928 --    85 C    1.319    97 N    1.318    94 C    1.119
    94   6 C    3.967 --    95 C    1.721    93 C    1.119   117 H    0.974
    95   6 C    3.966 --    94 C    1.721    96 C    1.118   118 H    0.976
    96   6 C    3.930 --    60 C    1.366    97 N    1.300    95 C    1.118
    97   7 N    3.015 --    93 C    1.318    96 C    1.300
    98   1 H    1.002 --    60 C    0.971
    99   1 H    0.998 --    62 C    0.977
   100   1 H    1.005 --    63 C    0.974
   101   1 H    0.986 --    65 N    0.873
   102   1 H    1.005 --    68 C    0.972
   103   1 H    0.999 --    69 C    0.970
   104   1 H    0.887 --    71 O    0.865
   105   1 H    0.999 --    72 C    0.971
   106   1 H    1.005 --    73 C    0.973
   107   1 H    1.005 --    75 C    0.974
   108   1 H    1.003 --    76 C    0.974
   109   1 H    1.002 --    81 C    0.975
   110   1 H    1.005 --    82 C    0.974
   111   1 H    0.987 --    84 N    0.873
   112   1 H    1.005 --    87 C    0.973
   113   1 H    0.999 --    88 C    0.971
   114   1 H    0.887 --    90 O    0.865
   115   1 H    0.999 --    91 C    0.970
   116   1 H    1.005 --    92 C    0.972
   117   1 H    1.005 --    94 C    0.974
   118   1 H    0.998 --    95 C    0.976
   119   6 C    3.931 --   120 C    2.482   121 C    1.301
   120   6 C    3.920 --   119 C    2.482    20 C    1.181   122 C    0.197
   121   6 C    3.929 --   122 C    2.481   119 C    1.301
   122   6 C    3.921 --   121 C    2.481   127 C    1.183   120 C    0.197
   123   6 C    3.928 --   124 C    2.486   125 C    1.296
   124   6 C    3.920 --   123 C    2.486   146 C    1.177   126 C    0.196
   125   6 C    3.931 --   126 C    2.487   123 C    1.296
   126   6 C    3.918 --   125 C    2.487    79 C    1.175   124 C    0.196
   127   6 C    3.927 --   163 C    1.259   128 C    1.252   122 C    1.183
   128   6 C    3.888 --   127 C    1.252   129 C    1.252   132 N    1.188
   129   6 C    3.956 --   130 C    1.579   128 C    1.252   165 H    0.975
   130   6 C    3.956 --   129 C    1.579   131 C    1.245   166 H    0.974
   131   6 C    3.894 --   133 C    1.302   130 C    1.245   132 N    1.166
   132   7 N    3.471 --   128 C    1.188   131 C    1.166   167 H    0.874
   133   6 C    3.929 --   141 C    1.335   131 C    1.302   134 C    1.029
   134   6 C    3.988 --   135 C    1.392   140 C    1.384   133 C    1.029
   135   6 C    3.988 --   136 C    1.453   134 C    1.392   168 H    0.972
                           139 C    0.105
   136   6 C    3.988 --   135 C    1.453   137 C    1.371   169 H    0.970
                           140 C    0.102
   137   6 C    3.900 --   136 C    1.371   139 C    1.364   138 O    1.040
   138   8 O    2.043 --   137 C    1.040   170 H    0.865
   139   6 C    3.990 --   140 C    1.466   137 C    1.364   171 H    0.971
                           135 C    0.105
   140   6 C    3.987 --   139 C    1.466   134 C    1.384   172 H    0.973
                           136 C    0.102
   141   6 C    3.917 --   133 C    1.335   144 N    1.289   142 C    1.125
   142   6 C    3.967 --   143 C    1.710   141 C    1.125   173 H    0.974
   143   6 C    3.965 --   142 C    1.710   145 C    1.129   174 H    0.974
   144   7 N    3.011 --   145 C    1.338   141 C    1.289
   145   6 C    3.913 --   144 N    1.338   146 C    1.262   143 C    1.129
   146   6 C    3.926 --   145 C    1.262   147 C    1.254   124 C    1.177
   147   6 C    3.889 --   146 C    1.254   148 C    1.251   151 N    1.187
   148   6 C    3.956 --   149 C    1.579   147 C    1.251   175 H    0.975
   149   6 C    3.957 --   148 C    1.579   150 C    1.245   176 H    0.974
   150   6 C    3.894 --   152 C    1.301   149 C    1.245   151 N    1.166
   151   7 N    3.471 --   147 C    1.187   150 C    1.166   177 H    0.874
   152   6 C    3.930 --   160 C    1.334   150 C    1.301   153 C    1.030
   153   6 C    3.988 --   159 C    1.392   154 C    1.384   152 C    1.030
   154   6 C    3.987 --   155 C    1.466   153 C    1.384   178 H    0.973
                           158 C    0.102
   155   6 C    3.990 --   154 C    1.466   156 C    1.364   179 H    0.971
                           159 C    0.105
   156   6 C    3.900 --   158 C    1.371   155 C    1.364   157 O    1.041
   157   8 O    2.044 --   156 C    1.041   180 H    0.865
   158   6 C    3.988 --   159 C    1.454   156 C    1.371   181 H    0.970
                           154 C    0.102
   159   6 C    3.987 --   158 C    1.454   153 C    1.392   182 H    0.972
                           155 C    0.105
   160   6 C    3.917 --   152 C    1.334   164 N    1.288   161 C    1.125
   161   6 C    3.967 --   162 C    1.709   160 C    1.125   183 H    0.974
   162   6 C    3.964 --   161 C    1.709   163 C    1.130   184 H    0.974
   163   6 C    3.912 --   164 N    1.340   127 C    1.259   162 C    1.130
   164   7 N    3.012 --   163 C    1.340   160 C    1.288
   165   1 H    1.002 --   129 C    0.975
   166   1 H    1.005 --   130 C    0.974
   167   1 H    0.987 --   132 N    0.874
   168   1 H    1.005 --   135 C    0.972
   169   1 H    0.999 --   136 C    0.970
   170   1 H    0.887 --   138 O    0.865
   171   1 H    0.999 --   139 C    0.971
   172   1 H    1.005 --   140 C    0.973
   173   1 H    1.005 --   142 C    0.974
   174   1 H    1.003 --   143 C    0.974
   175   1 H    1.002 --   148 C    0.975
   176   1 H    1.005 --   149 C    0.974
   177   1 H    0.987 --   151 N    0.874
   178   1 H    1.005 --   154 C    0.973
   179   1 H    0.999 --   155 C    0.971
   180   1 H    0.887 --   157 O    0.865
   181   1 H    0.999 --   158 C    0.970
   182   1 H    1.005 --   159 C    0.972
   183   1 H    1.005 --   161 C    0.974
   184   1 H    1.003 --   162 C    0.974
 ---------------------------------------------------------------------------

           -------------------------------------------------
          | TOTAL ENERGY             -319.489323629413 Eh   |
          | GRADIENT NORM               0.000244749994 Eh/α |
          | HOMO-LUMO GAP               0.964704750022 eV   |
           -------------------------------------------------

 * finished run on 2022/07/28 at 17:08:42.574
