   * xtb version 6.5.1 (b24c23e) compiled by 'conda@728c89f4b128' on 2022-07-12
          program call               : xtb Co_NMA_C6_2.xyz --gfn 1 --opt -T 48

   ID    Z sym.   atoms
    1   27 Co     1, 67
    2    6 C      2-6, 8-12, 14-19, 21-26, 28-32, 34-40, 68-72, 74-78, 80-85,
                  87-92, 94-98, 100-106, 133-138
    3    7 N      7, 13, 20, 27, 33, 41, 73, 79, 86, 93, 99, 107
    4    1 H      42-66, 108-132

          :  Hamiltonian                  GFN1-xTB          :
 * total energy  :  -214.6136009 Eh     change       -0.4299949E-08 Eh
 * total energy  :  -225.7528004 Eh     change       -0.1113920E+02 Eh
 * total energy  :  -226.6120423 Eh     change       -0.8592418E+00 Eh
 * total energy  :  -227.2514696 Eh     change       -0.6394274E+00 Eh
 * total energy  :  -227.5489598 Eh     change       -0.2974902E+00 Eh
 * total energy  :  -227.7214560 Eh     change       -0.1724962E+00 Eh
 * total energy  :  -227.8324314 Eh     change       -0.1109753E+00 Eh
 * total energy  :  -227.9124597 Eh     change       -0.8002838E-01 Eh
 * total energy  :  -227.9782238 Eh     change       -0.6576404E-01 Eh
 * total energy  :  -228.0389494 Eh     change       -0.6072562E-01 Eh
 * total energy  :  -228.6050889 Eh     change       -0.4769057E-04 Eh
 * total energy  :  -228.6051179 Eh     change       -0.2894795E-04 Eh
 * total energy  :  -228.6051315 Eh     change       -0.1364722E-04 Eh
 * total energy  :  -228.6051420 Eh     change       -0.1043861E-04 Eh
 * total energy  :  -228.6051513 Eh     change       -0.9352605E-05 Eh
 * total energy  :  -228.6051642 Eh     change       -0.1288877E-04 Eh
 * total energy  :  -228.6051705 Eh     change       -0.6269502E-05 Eh
 * total energy  :  -228.6051774 Eh     change       -0.6926273E-05 Eh
 * total energy  :  -228.6051811 Eh     change       -0.3688560E-05 Eh
   *** GEOMETRY OPTIMIZATION CONVERGED AFTER 68 ITERATIONS ***

 final structure:
================
138
 xtb: 6.5.1 (b24c23e)
Co          16.35048368347196        0.04576681443070       -0.01966907107643
C           12.98193789724126        0.13010425974435       -0.11664830667032
C           13.62576677369905        0.82835676922414        0.88284604148061
C           12.95335323987200        1.56779666631051        1.90650505894028
C           13.90543086749008        2.26816950053022        2.56822458530395
C           15.15630136447723        1.96845553651281        1.93535309744373
N           14.98244439061019        1.02677235894957        0.95391034773370
C           16.34692296190532        2.63731315909990        2.19720016612784
C           16.34389471473392        3.77403003900265        3.14119481683547
C           15.49952563657001        4.86991392784738        2.93712980173859
C           15.50099112631424        5.93680916132450        3.81466571065386
C           16.33941288351244        5.93464191867329        4.93683508736257
N           16.33949196419239        7.04811176033104        5.76179120158720
C           16.80412790817424        6.93218119929850        7.13721644688400
C           17.18869191266297        4.84332886369157        5.14375830673395
C           17.18803677098279        3.78336956071637        4.25372657300007
C           17.53604820741773        2.27068961379299        1.58132684834839
C           18.77739123635718        2.96468522666970        1.74547151680582
C           19.73085408524383        2.20879350940341        1.14763252052640
N           17.72012047350053        1.13474798415160        0.82689950190704
C           19.06784957451873        1.06326170162679        0.61185385118453
C           19.73824385800414       -0.04131018266021        0.07830054500146
C           19.04821898389007       -1.12484528234737       -0.47319834976474
C           19.68826998275961       -2.30249728137721       -0.96607520433249
C           18.73011908458424       -3.03504237107441       -1.58463422699849
C           17.51089403332243       -2.29118015687702       -1.48270634049629
N           17.70685968807010       -1.15362467212450       -0.73212714454099
C           16.34104993551253       -2.61239074052724       -2.15668859725569
C           16.33268768134529       -3.75745570656217       -3.09077481392712
C           17.22853917678221       -3.81485988025806       -4.16057593964068
C           17.21355439796735       -4.87410051099760       -5.05128010561699
C           16.29549324880439       -5.91600642306002       -4.88791323527789
N           16.26968838680387       -7.02429722489175       -5.71929398527251
C           16.78656973856209       -6.92266359071458       -7.07732775053234
C           15.40772752633120       -5.87287365575373       -3.80526980119174
C           15.42213952780917       -4.80605421312287       -2.92762696693179
C           15.17495880911774       -1.87447483064965       -1.98228056466154
C           13.95669096219447       -2.10597523857612       -2.70094184481084
C           13.00743359872715       -1.33001188251579       -2.12455388929615
C           13.64982841540050       -0.61770493620738       -1.06316443524767
N           14.99028883292272       -0.91167404145075       -1.02475434911773
H           11.89960417813348        0.16709219922009       -0.15728257598388
H           11.88870472084300        1.54545855781017        2.07762667462614
H           13.78389732476137        2.93164285902341        3.40918975623484
H           14.85379239387067        4.89203534821962        2.06606982683888
H           14.85080281838384        6.78691459998904        3.63666477542795
H           15.49151945108808        7.59633290602075        5.68375935290501
H           17.87878231783368        6.74632850054744        7.15435959349067
H           16.28957405167100        6.12408189850811        7.66971260748411
H           16.60592715950551        7.87862562501304        7.64028012865667
H           17.85303774122309        4.81544524160739        5.99866663748355
H           17.83800294191990        2.93445570167119        4.43615305541452
H           18.89381808952355        3.90966250915996        2.25068191629892
H           20.79054048993701        2.39337521244055        1.07380352261148
H           20.73706407360596       -2.52358511588034       -0.84941413837304
H           18.83005972112816       -3.99234883074871       -2.06975570798097
H           17.93160514727064       -3.00271141091700       -4.31062189475284
H           17.91819609736794       -4.88379815199573       -5.87373447548018
H           15.39303139082894       -7.52946088876517       -5.67510699427651
H           16.34335730873106       -6.07625116795686       -7.61434992607960
H           16.54402402462521       -7.84782697620189       -7.60008803451450
H           17.87099465688050       -6.80683750836925       -7.05745880655749
H           14.70428391520847       -6.68600316540111       -3.65997213205807
H           14.73408382401519       -4.79058639384270       -2.08944391776015
H           13.85345093009723       -2.77781139828890       -3.53771173408246
H           11.96269373951571       -1.24024147348545       -2.37697997911786
Co          32.29461123916905        0.00884834353515       -0.04887666377301
C           35.66350357709891        0.08590649243167       -0.15340037518709
C           35.01982094199753       -1.04100801019201       -0.61892438953228
C           35.69265639790636       -2.19990280826594       -1.11998265708237
C           34.74059944860845       -2.99850303885326       -1.65905691217002
C           33.48932675836750       -2.31687749019666       -1.50180285786754
N           33.66303549427762       -1.15431829022959       -0.79574403911515
C           32.29822473538900       -2.71944421885286       -2.09556891296581
C           32.30098539274596       -3.88888678071422       -2.99881010168125
C           33.14158972390416       -3.92729547882021       -4.11566248195239
C           33.13981794433574       -5.01693405939325       -4.96482499654041
C           32.30503711816388       -6.11357098896216       -4.71431868978130
N           32.30433024201979       -7.16200015332483       -5.62040672301142
C           31.84389507496411       -8.47986622750713       -5.20542991671237
C           31.45958669406960       -6.07895400813309       -3.60116818985933
C           31.46034720436896       -4.97857871242988       -2.76163548339018
C           31.10867016376860       -2.03994622814682       -1.87020221965321
C           29.86690108551432       -2.35346120701190       -2.50986966648354
C           28.91338323749554       -1.60579754727823       -1.90192901584130
N           30.92472649866730       -1.05564837019978       -0.92638241964194
C           29.57681526221192       -0.83150540904665       -0.90232220674416
C           28.90648118300962       -0.06863615198333        0.05832808398404
C           29.59639052939755        0.70751637816942        0.99418405009099
C           28.95585652171940        1.44729778861954        2.03433794332827
C           29.91381034351734        2.21151163994962        2.61357760056118
C           31.13347683622007        1.94803335094631        1.91127258012016
N           30.93783765347881        0.96620811869369        0.96600574015979
C           32.30384996107794        2.67460742285468        2.07914002046010
C           32.31195339388251        3.83617924974930        2.99275714745511
C           31.41915496198479        4.89476191696548        2.81230441536629
C           31.43375200888632        5.99503103400221        3.65183460406124
C           32.34822263786887        6.06066881893203        4.70752548046572
N           32.37315303453581        7.11358234662683        5.60813920284963
C           31.86128172594337        8.41812466989374        5.21070731471661
C           33.23291951704642        4.99270442196498        4.90458963646492
C           33.21903823879000        3.90357514445450        4.05476185054092
C           33.47064306717034        2.34221124696069        1.39896034441047
C           34.68947562095793        3.09292893655108        1.47055219642337
C           35.63866943219846        2.36147525365857        0.83860470887578
C           34.99570359480838        1.17155362488300        0.37245458647119
N           33.65509616753004        1.19844379382266        0.66699982597668
H           36.74581670103461        0.11780620243779       -0.19869147146682
H           36.75753317589616       -2.36112317124249       -1.06252796366086
H           34.86230533224432       -3.96308831006363       -2.12483296878584
H           33.78465586449799       -3.08065304162889       -4.32984494128704
H           33.78695664296038       -5.02755986975258       -5.83557847222872
H           33.15010312329100       -7.20356115659064       -6.17590809744498
H           30.76993103647414       -8.45830159215493       -5.01629307354948
H           32.36240063595984       -8.82215581620702       -4.30252288991259
H           32.04048365731805       -9.17701845411220       -6.01991541068892
H           30.79814254770428       -6.90876571129765       -3.38460974836439
H           30.81330319208612       -4.97234485205482       -1.89118342007579
H           29.75032814458104       -3.05335432582560       -3.32124972677641
H           27.85341196407449       -1.57538683398593       -2.09680979207879
H           27.90689886293731        1.38226420270800        2.27501026160010
H           29.81352171280863        2.89541391107900        3.44060784150170
H           30.71883266320907        4.86558771721799        1.98459843232578
H           30.73154383200799        6.80140914361589        3.47947729226327
H           33.24829006215676        7.17846466428051        6.11373476920380
H           32.30934062535322        8.75655581817871        4.26945716794891
H           32.10232214699820        9.12938394397747        6.00067314196909
H           30.77721921916924        8.37626517876863        5.09743860614260
H           33.93354326188157        5.02663241811210        5.73229612934401
H           33.90472081206169        3.08067866164251        4.22472377855007
H           34.79308701846196        4.05515764930030        1.94550624952611
H           36.68371592884544        2.58760077794865        0.69716493296303
C           24.93692075353146       -0.09135578824188        0.10922961419020
C           23.70774850950742       -0.09210058191380        0.11310436720212
C           22.36446153390666       -0.07913011005920        0.10702853257373
C           21.14002118789332       -0.06376541034375        0.09706523103169
C           26.28023398372095       -0.08963315594290        0.09900358265038
C           27.50468015240707       -0.08217930872691        0.08366699835199

          :  Hamiltonian                  GFN1-xTB          :
         :: total energy            -228.605181087261 Eh    ::
         :: gradient norm              0.000512154758 Eh/a0 ::
         :: HOMO-LUMO gap              0.008973813000 eV    ::
         :: SCC energy              -232.249244978785 Eh    ::
         :: repulsion energy           3.760419688792 Eh    ::

    * Orbital Energies and Occupations

         #    Occupation            Energy/Eh            Energy/eV
      -------------------------------------------------------------
         1        2.0000           -0.7792715             -21.2051
       ...           ...                  ...                  ...
       200        2.0000           -0.3912313             -10.6459
       201        2.0000           -0.3912008             -10.6451
       202        2.0000           -0.3870269             -10.5315
       203        2.0000           -0.3870227             -10.5314
       204        2.0000           -0.3840580             -10.4507
       205        2.0000           -0.3840476             -10.4505
       206        1.9999           -0.3808690             -10.3640
       207        1.9999           -0.3808644             -10.3638
       208        1.9998           -0.3807901             -10.3618
       209        1.9998           -0.3807849             -10.3617
       210        1.9998           -0.3806870             -10.3590
       211        1.8569           -0.3742117             -10.1828
       212        1.1580           -0.3720794             -10.1248 (HOMO)
       213        0.9858           -0.3717496             -10.1158 (LUMO)
       214                         -0.3292766              -8.9601
       215                         -0.3181343              -8.6569
       216                         -0.3173013              -8.6342
       217                         -0.3172847              -8.6338
       218                         -0.2911456              -7.9225
       219                         -0.2849648              -7.7543
       220                         -0.2820142              -7.6740
       221                         -0.2819262              -7.6716
       222                         -0.2764029              -7.5213
       223                         -0.2566092              -6.9827
       ...                                ...                  ...
       462                          1.5841962              43.1082
      -------------------------------------------------------------
                  HL-Gap            0.0003298 Eh            0.0090 eV

Wiberg/Mayer (AO) data.
largest (>0.10) Wiberg bond orders for each atom

     #   Z sym  total        # sym  WBO       # sym  WBO       # sym  WBO
 ---------------------------------------------------------------------------
     1  27 Co   3.051 --     7 N    0.639    41 N    0.634    27 N    0.634
                            20 N    0.631
     2   6 C    3.926 --     3 C    1.364    40 C    1.364    42 H    0.970
     3   6 C    3.926 --     2 C    1.364     7 N    1.200     4 C    1.177
     4   6 C    3.958 --     5 C    1.644     3 C    1.177    43 H    0.975
     5   6 C    3.963 --     4 C    1.644     6 C    1.179    44 H    0.973
     6   6 C    3.919 --     8 C    1.312     7 N    1.215     5 C    1.179
     7   7 N    3.342 --     6 C    1.215     3 C    1.200     1 Co   0.639
     8   6 C    3.931 --    17 C    1.326     6 C    1.312     9 C    1.041
     9   6 C    3.985 --    16 C    1.380    10 C    1.370     8 C    1.041
    10   6 C    3.985 --    11 C    1.479     9 C    1.370    45 H    0.972
    11   6 C    3.988 --    10 C    1.479    12 C    1.342    46 H    0.971
    12   6 C    3.950 --    15 C    1.351    11 C    1.342    13 N    1.113
    13   7 N    3.181 --    12 C    1.113    14 C    0.971    47 H    0.930
    14   6 C    3.967 --    50 H    0.990    48 H    0.986    49 H    0.984
                            13 N    0.971
    15   6 C    3.988 --    16 C    1.467    12 C    1.351    51 H    0.970
    16   6 C    3.985 --    15 C    1.467     9 C    1.380    52 H    0.972
    17   6 C    3.916 --     8 C    1.326    20 N    1.195    18 C    1.185
    18   6 C    3.959 --    19 C    1.632    17 C    1.185    53 H    0.973
    19   6 C    3.959 --    18 C    1.632    21 C    1.193    54 H    0.974
    20   7 N    3.345 --    21 C    1.230    17 C    1.195     1 Co   0.631
    21   6 C    3.905 --    22 C    1.256    20 N    1.230    19 C    1.193
    22   6 C    3.930 --    21 C    1.256    23 C    1.256   136 C    1.195
    23   6 C    3.905 --    22 C    1.256    27 N    1.232    24 C    1.192
    24   6 C    3.960 --    25 C    1.634    23 C    1.192    55 H    0.974
    25   6 C    3.959 --    24 C    1.634    26 C    1.184    56 H    0.973
    26   6 C    3.916 --    28 C    1.329    27 N    1.193    25 C    1.184
    27   7 N    3.344 --    23 C    1.232    26 C    1.193     1 Co   0.634
    28   6 C    3.931 --    26 C    1.329    37 C    1.309    29 C    1.040
    29   6 C    3.985 --    30 C    1.381    36 C    1.370    28 C    1.040
    30   6 C    3.985 --    31 C    1.467    29 C    1.381    57 H    0.972
    31   6 C    3.988 --    30 C    1.467    32 C    1.351    58 H    0.970
    32   6 C    3.950 --    31 C    1.351    35 C    1.342    33 N    1.113
    33   7 N    3.180 --    32 C    1.113    34 C    0.971    59 H    0.931
    34   6 C    3.967 --    61 H    0.990    62 H    0.986    60 H    0.984
                            33 N    0.971
    35   6 C    3.988 --    36 C    1.479    32 C    1.342    63 H    0.971
    36   6 C    3.985 --    35 C    1.479    29 C    1.370    64 H    0.972
    37   6 C    3.919 --    28 C    1.309    41 N    1.217    38 C    1.180
    38   6 C    3.963 --    39 C    1.643    37 C    1.180    65 H    0.973
    39   6 C    3.958 --    38 C    1.643    40 C    1.178    66 H    0.975
    40   6 C    3.926 --     2 C    1.364    41 N    1.199    39 C    1.178
    41   7 N    3.343 --    37 C    1.217    40 C    1.199     1 Co   0.634
    42   1 H    1.000 --     2 C    0.970
    43   1 H    0.998 --     4 C    0.975
    44   1 H    1.005 --     5 C    0.973
    45   1 H    1.005 --    10 C    0.972
    46   1 H    0.999 --    11 C    0.971
    47   1 H    0.965 --    13 N    0.930
    48   1 H    1.012 --    14 C    0.986
    49   1 H    1.003 --    14 C    0.984
    50   1 H    1.007 --    14 C    0.990
    51   1 H    1.001 --    15 C    0.970
    52   1 H    1.006 --    16 C    0.972
    53   1 H    1.005 --    18 C    0.973
    54   1 H    1.001 --    19 C    0.974
    55   1 H    1.001 --    24 C    0.974
    56   1 H    1.005 --    25 C    0.973
    57   1 H    1.006 --    30 C    0.972
    58   1 H    1.001 --    31 C    0.970
    59   1 H    0.965 --    33 N    0.931
    60   1 H    1.003 --    34 C    0.984
    61   1 H    1.007 --    34 C    0.990
    62   1 H    1.012 --    34 C    0.986
    63   1 H    0.999 --    35 C    0.971
    64   1 H    1.005 --    36 C    0.972
    65   1 H    1.005 --    38 C    0.973
    66   1 H    0.998 --    39 C    0.975
    67  27 Co   3.050 --    73 N    0.638   107 N    0.634    93 N    0.634
                            86 N    0.631
    68   6 C    3.926 --    69 C    1.364   106 C    1.364   108 H    0.970
    69   6 C    3.926 --    68 C    1.364    73 N    1.200    70 C    1.177
    70   6 C    3.958 --    71 C    1.644    69 C    1.177   109 H    0.975
    71   6 C    3.963 --    70 C    1.644    72 C    1.179   110 H    0.973
    72   6 C    3.919 --    74 C    1.312    73 N    1.215    71 C    1.179
    73   7 N    3.342 --    72 C    1.215    69 C    1.200    67 Co   0.638
    74   6 C    3.931 --    83 C    1.326    72 C    1.312    75 C    1.040
    75   6 C    3.985 --    82 C    1.381    76 C    1.370    74 C    1.040
    76   6 C    3.985 --    77 C    1.479    75 C    1.370   111 H    0.972
    77   6 C    3.988 --    76 C    1.479    78 C    1.342   112 H    0.971
    78   6 C    3.950 --    81 C    1.351    77 C    1.342    79 N    1.113
    79   7 N    3.181 --    78 C    1.113    80 C    0.971   113 H    0.930
    80   6 C    3.967 --   116 H    0.990   114 H    0.986   115 H    0.984
                            79 N    0.971
    81   6 C    3.988 --    82 C    1.467    78 C    1.351   117 H    0.970
    82   6 C    3.985 --    81 C    1.467    75 C    1.381   118 H    0.972
    83   6 C    3.916 --    74 C    1.326    86 N    1.195    84 C    1.185
    84   6 C    3.959 --    85 C    1.632    83 C    1.185   119 H    0.973
    85   6 C    3.959 --    84 C    1.632    87 C    1.193   120 H    0.974
    86   7 N    3.345 --    87 C    1.230    83 C    1.195    67 Co   0.631
    87   6 C    3.905 --    88 C    1.256    86 N    1.230    85 C    1.193
    88   6 C    3.930 --    87 C    1.256    89 C    1.256   138 C    1.195
    89   6 C    3.905 --    88 C    1.256    93 N    1.232    90 C    1.192
    90   6 C    3.960 --    91 C    1.634    89 C    1.192   121 H    0.974
    91   6 C    3.959 --    90 C    1.634    92 C    1.184   122 H    0.973
    92   6 C    3.916 --    94 C    1.329    93 N    1.193    91 C    1.184
    93   7 N    3.344 --    89 C    1.232    92 C    1.193    67 Co   0.634
    94   6 C    3.931 --    92 C    1.329   103 C    1.309    95 C    1.040
    95   6 C    3.985 --    96 C    1.381   102 C    1.370    94 C    1.040
    96   6 C    3.985 --    97 C    1.467    95 C    1.381   123 H    0.972
    97   6 C    3.988 --    96 C    1.467    98 C    1.351   124 H    0.970
    98   6 C    3.950 --    97 C    1.351   101 C    1.342    99 N    1.112
    99   7 N    3.180 --    98 C    1.112   100 C    0.971   125 H    0.931
   100   6 C    3.967 --   127 H    0.990   128 H    0.986   126 H    0.984
                            99 N    0.971
   101   6 C    3.988 --   102 C    1.479    98 C    1.342   129 H    0.971
   102   6 C    3.985 --   101 C    1.479    95 C    1.370   130 H    0.972
   103   6 C    3.919 --    94 C    1.309   107 N    1.217   104 C    1.180
   104   6 C    3.963 --   105 C    1.643   103 C    1.180   131 H    0.973
   105   6 C    3.958 --   104 C    1.643   106 C    1.178   132 H    0.975
   106   6 C    3.926 --    68 C    1.364   107 N    1.199   105 C    1.178
   107   7 N    3.343 --   103 C    1.217   106 C    1.199    67 Co   0.634
   108   1 H    1.000 --    68 C    0.970
   109   1 H    0.998 --    70 C    0.975
   110   1 H    1.005 --    71 C    0.973
   111   1 H    1.005 --    76 C    0.972
   112   1 H    0.999 --    77 C    0.971
   113   1 H    0.965 --    79 N    0.930
   114   1 H    1.012 --    80 C    0.986
   115   1 H    1.003 --    80 C    0.984
   116   1 H    1.007 --    80 C    0.990
   117   1 H    1.001 --    81 C    0.970
   118   1 H    1.006 --    82 C    0.972
   119   1 H    1.005 --    84 C    0.973
   120   1 H    1.001 --    85 C    0.974
   121   1 H    1.001 --    90 C    0.974
   122   1 H    1.005 --    91 C    0.973
   123   1 H    1.006 --    96 C    0.972
   124   1 H    1.001 --    97 C    0.970
   125   1 H    0.965 --    99 N    0.931
   126   1 H    1.003 --   100 C    0.984
   127   1 H    1.007 --   100 C    0.990
   128   1 H    1.012 --   100 C    0.986
   129   1 H    0.999 --   101 C    0.971
   130   1 H    1.005 --   102 C    0.972
   131   1 H    1.005 --   104 C    0.973
   132   1 H    0.998 --   105 C    0.975
   133   6 C    3.920 --   134 C    2.358   137 C    1.341   136 C    0.188
   134   6 C    3.920 --   133 C    2.358   135 C    1.341   138 C    0.188
   135   6 C    3.929 --   136 C    2.440   134 C    1.341
   136   6 C    3.884 --   135 C    2.440    22 C    1.195   133 C    0.188
   137   6 C    3.929 --   138 C    2.440   133 C    1.341
   138   6 C    3.884 --   137 C    2.440    88 C    1.195   134 C    0.188
 ---------------------------------------------------------------------------

           -------------------------------------------------
          | TOTAL ENERGY             -228.605181087261 Eh   |
          | GRADIENT NORM               0.000512154758 Eh/α |
          | HOMO-LUMO GAP               0.008973813000 eV   |
           -------------------------------------------------

 * finished run on 2022/07/29 at 22:36:15.775
