   * xtb version 6.5.1 (b24c23e) compiled by 'conda@728c89f4b128' on 2022-07-12
          program call               : xtb Ni_DHP_C4_2.xyz --gfn 1 --opt -T 48

   ID    Z sym.   atoms
    1   28 Ni     1, 59
    2    6 C      2-6, 8-11, 13-17, 19-24, 26-29, 31-36, 60-64, 66-69, 71-75,
                  77-82, 84-87, 89-94, 117-120
    3    7 N      7, 12, 18, 25, 30, 37, 65, 70, 76, 83, 88, 95
    4    1 H      38-58, 96-116
########################################################################
[WARNING] Please study the warnings concerning your input carefully
-1- prog_main_parseArguments: Unknown option '-T' provided
########################################################################

          :  Hamiltonian                  GFN1-xTB          :
 * total energy  :  -204.0677058 Eh     change       -0.2862834E-08 Eh
 * total energy  :  -204.2455375 Eh     change       -0.1778318E+00 Eh
 * total energy  :  -204.3007981 Eh     change       -0.5526059E-01 Eh
 * total energy  :  -204.3263204 Eh     change       -0.2552229E-01 Eh
 * total energy  :  -204.3361445 Eh     change       -0.9824139E-02 Eh
 * total energy  :  -204.3411906 Eh     change       -0.5046100E-02 Eh
 * total energy  :  -204.3446783 Eh     change       -0.3487697E-02 Eh
 * total energy  :  -204.3465209 Eh     change       -0.1842603E-02 Eh
 * total energy  :  -204.3480588 Eh     change       -0.1537830E-02 Eh
 * total energy  :  -204.3489928 Eh     change       -0.9339897E-03 Eh
 * total energy  :  -204.3518314 Eh     change       -0.1497532E-04 Eh
 * total energy  :  -204.3518489 Eh     change       -0.1749715E-04 Eh
 * total energy  :  -204.3518578 Eh     change       -0.8907621E-05 Eh
 * total energy  :  -204.3518704 Eh     change       -0.1258632E-04 Eh
 * total energy  :  -204.3518840 Eh     change       -0.1361206E-04 Eh
 * total energy  :  -204.3518943 Eh     change       -0.1030905E-04 Eh
 * total energy  :  -204.3519049 Eh     change       -0.1058027E-04 Eh
 * total energy  :  -204.3519113 Eh     change       -0.6420752E-05 Eh
 * total energy  :  -204.3519159 Eh     change       -0.4583973E-05 Eh
   *** GEOMETRY OPTIMIZATION CONVERGED AFTER 32 ITERATIONS ***

 final structure:
================
120
 xtb: 6.5.1 (b24c23e)
Ni          13.93027345887799       -0.04424858605341       -0.00694163846149
C           10.54046710796485       -0.06111977856448       -0.14613374663802
C           11.19097611314166       -1.27314096658826       -0.04075790666903
C           10.51327985288571       -2.53015115499683        0.04599982600464
C           11.47002938055311       -3.48808049183174        0.03819342368916
C           12.73148559837155       -2.81531602892357       -0.06664744368709
N           12.55116711901742       -1.45419721203570       -0.07389016847625
C           13.95017588030649       -3.46824069199844       -0.19910918301192
C           13.96431987909028       -4.94744207735608       -0.29877150417960
C           13.36148747630290       -5.58860264109359       -1.31085033006280
C           13.35321932739556       -7.09069284619827       -1.42635389492839
N           14.37099059600254       -7.69390548056314       -0.56172128426324
C           14.81181295403206       -7.03854139998423        0.55889122729635
C           14.67209524932034       -5.71077128482615        0.71913841128840
C           15.15989846253403       -2.78830784486884       -0.25106566001231
C           16.42440572063241       -3.43162503201957       -0.43799639655763
C           17.37145492751968       -2.46630527957206       -0.35654571636139
N           15.32988307518211       -1.43104045602820       -0.09340409189971
C           16.68350486482824       -1.23618246418501       -0.12670085032205
C           17.34053778079198       -0.02496574171278        0.10659717334441
C           16.65586526607050        1.17686236976255        0.30719343825766
C           17.31192068024302        2.41206415623913        0.59588695930197
C           16.34951352345713        3.36537982838411        0.62556429340062
C           15.10862912705255        2.71022090936642        0.34396650124999
N           15.30484378230371        1.35625544337386        0.18679715734509
C           13.89975369459552        3.37882041492787        0.20039236598163
C           13.89058138544489        4.85822839510204        0.29824012044523
C           13.19655066955498        5.49581162367107        1.25252256967621
C           13.15818579004262        6.99821479712964        1.35800809878987
N           14.23534102245825        7.61238043905707        0.57706121411294
C           14.77785122633771        6.95731310065081       -0.49826784230106
C           14.67130840064668        5.62679490856649       -0.66075635692777
C           12.70244404431529        2.71469921257706       -0.03380244299746
C           11.44737203492857        3.37540266435039       -0.24200780500764
C           10.50455188425996        2.40819104423891       -0.33405847273671
C           11.18512382125840        1.15755071097663       -0.19450089026841
N           12.53581790057248        1.35192798944429       -0.04644612509329
H            9.45760328341379       -0.06661786008961       -0.19258837032935
H            9.44246031470922       -2.64433998728154        0.10571452022484
H           11.34662126391002       -4.55705044039513        0.10054392976333
H           12.83412872150265       -5.05382415400810       -2.09211855358609
H           13.56562917892760       -7.39171707136542       -2.46123017263115
H           12.35299663085292       -7.48785023024210       -1.16980947875983
H           14.30367028492600       -8.69909830878816       -0.49254309995219
H           15.35525721220122       -7.65959780916803        1.26385431615537
H           15.07119244635718       -5.20192385619318        1.58497335606365
H           16.55901501902409       -4.48712390137031       -0.60903863625319
H           18.44197481379501       -2.56320639411026       -0.43967921405249
H           18.37329375623197        2.51923252934303        0.75275962988193
H           16.45908482878707        4.42007572457441        0.81871603284461
H           12.61147872907720        4.95766255774137        1.98914829379995
H           13.27954540709154        7.30735226913301        2.40499921353950
H           12.17726085922432        7.37948967012365        1.01696480120488
H           14.15751444881188        8.61569565989508        0.49428274905388
H           15.36948625393531        7.58238253240340       -1.15950360965283
H           15.14887935202625        5.11968354585131       -1.48705609987372
H           11.31800417977594        4.44326068415885       -0.31101845911244
H            9.44143606182588        2.51200974412492       -0.48318078746884
Ni          27.35588243484775        0.04533334995996        0.00252547600541
C           30.74571364121338        0.09149658454096       -0.12879865223721
C           30.09518283921453        1.25267780426407        0.23412299680482
C           30.77283380918740        2.46170206839097        0.58896701417809
C           29.81609168894703        3.39905383630395        0.78661258395372
C           28.55467081147376        2.76459270939679        0.53930276715943
N           28.73498986858440        1.43674178474460        0.24010290076121
C           27.33605018239627        3.43084390950351        0.54948011605440
C           27.32197236794586        4.89695005688503        0.76969091398161
C           27.92544345504668        5.74041523789762       -0.08071285135048
C           27.93385230223156        7.23225827716207        0.12912659812237
N           26.91550389990843        7.63586218750002        1.10247012054395
C           26.47407528318601        6.75520174364900        2.05598476209976
C           26.61367755994878        5.42397969370389        1.92741942733103
C           26.12635707206250        2.77794108055148        0.35241418671093
C           24.86190260250976        3.44648627232241        0.30752637948736
C           23.91480409016753        2.48621009185370        0.18007712692200
N           25.95633156303872        1.41844530478593        0.21550898322744
C           24.60264750706284        1.23534414942763        0.14117828829823
C           23.94566378478889        0.00227165166546        0.10934788007530
C           24.63030247978175       -1.21460109750114        0.04714130011186
C           23.97412691729843       -2.48290334319482        0.06345521224928
C           24.93647651023699       -3.42040476381846       -0.11232334911212
C           26.17741417415849       -2.72017158556494       -0.24643685158265
N           25.98126360320405       -1.36404847346150       -0.10904223444435
C           27.38631858818130       -3.34238491867196       -0.52996531694590
C           27.39547052534519       -4.80832360626839       -0.75188520638702
C           28.08914417658822       -5.63582607675278        0.04366602942258
C           28.12747754370216       -7.12587757017318       -0.17556628585231
N           27.05064384730873       -7.55814230625104       -1.07051241362972
C           26.50848765065581       -6.68759243531316       -1.98044526513893
C           26.61506389716984       -5.35320084524807       -1.85368816322905
C           28.58370000640922       -2.64354552733656       -0.61569743454569
C           29.83884958803571       -3.24427658570861       -0.96041799278240
C           30.78170619699591       -2.27993676666286       -0.84236022798433
C           30.10107421855074       -1.08833397358474       -0.43787964443182
N           28.75034974035347       -1.30986884212387       -0.33543902361784
H           31.82859127106371        0.10670446580354       -0.17260982387321
H           31.84362949364150        2.56033147981725        0.67222311373020
H           29.93952589687235        4.42969010629387        1.07705807785312
H           28.45324318129072        5.38584164139247       -0.95831636883859
H           27.72216126564528        7.74857601848658       -0.81707839090531
H           28.93391990911816        7.56485513251945        0.46565248790765
H           26.98277357675255        8.60273963348133        1.38592929106285
H           25.93026395004424        7.21044398353347        2.87759819883536
H           26.21413125528024        4.74112077670425        2.66358504083488
H           24.72739001252517        4.51413509431986        0.36665219882887
H           22.84428930528940        2.59869443144227        0.11953925362659
H           22.91272886908985       -2.62122915961031        0.19357865164484
H           24.82680826614485       -4.49194812199268       -0.15037322370823
H           28.67392854036202       -5.26823340164743        0.87879352582085
H           28.00568930487518       -7.65239797883068        0.78068870073715
H           29.10853849595103       -7.42520374191995       -0.59006659687869
H           27.12857243228759       -8.52029636969580       -1.36658789814074
H           25.91704706269548       -7.15622335022457       -2.76054721325337
H           26.13773456313611       -4.68059774911132       -2.55208679351299
H           29.96822767661225       -4.27245763620732       -1.25693790247481
H           31.84487734802804       -2.34943676565454       -1.00987196967301
C           19.96782222464087       -0.01750539886158        0.14818779836496
C           18.74624344206426       -0.01713780026021        0.13615542082083
C           21.31862212532183       -0.01296017938022        0.14750389468780
C           22.53997397891921       -0.01201464005880        0.13509498605197

          :  Hamiltonian                  GFN1-xTB          :
         :: total energy            -204.351915863132 Eh    ::
         :: gradient norm              0.000810144889 Eh/a0 ::
         :: HOMO-LUMO gap              1.027671467921 eV    ::
         :: SCC energy              -207.464502676303 Eh    ::
         :: repulsion energy           3.217982912467 Eh    ::

    * Orbital Energies and Occupations

         #    Occupation            Energy/Eh            Energy/eV
      -------------------------------------------------------------
         1        2.0000           -0.7798109             -21.2197
       ...           ...                  ...                  ...
       177        2.0000           -0.3890516             -10.5866
       178        2.0000           -0.3880637             -10.5598
       179        2.0000           -0.3880631             -10.5597
       180        2.0000           -0.3878218             -10.5532
       181        2.0000           -0.3869873             -10.5305
       182        2.0000           -0.3869780             -10.5302
       183        2.0000           -0.3869652             -10.5299
       184        2.0000           -0.3869646             -10.5298
       185        2.0000           -0.3764019             -10.2424
       186        2.0000           -0.3699953             -10.0681
       187        2.0000           -0.3699939             -10.0680
       188        2.0000           -0.3693356             -10.0501
       189        2.0000           -0.3686800             -10.0323 (HOMO)
       190                         -0.3309138              -9.0046 (LUMO)
       191                         -0.3198364              -8.7032
       192                         -0.3198347              -8.7031
       193                         -0.3190433              -8.6816
       194                         -0.3190185              -8.6809
       195                         -0.3171438              -8.6299
       196                         -0.2899449              -7.8898
       197                         -0.2827323              -7.6935
       198                         -0.2648866              -7.2079
       199                         -0.2648851              -7.2079
       200                         -0.2643659              -7.1938
       ...                                ...                  ...
       406                          1.5258179              41.5196
      -------------------------------------------------------------
                  HL-Gap            0.0377662 Eh            1.0277 eV

Wiberg/Mayer (AO) data.
largest (>0.10) Wiberg bond orders for each atom

     #   Z sym  total        # sym  WBO       # sym  WBO       # sym  WBO
 ---------------------------------------------------------------------------
     1  28 Ni   3.017 --     7 N    0.664    37 N    0.664    25 N    0.663
                            18 N    0.663
     2   6 C    3.932 --    36 C    1.363     3 C    1.363    38 H    0.970
     3   6 C    3.926 --     2 C    1.363     7 N    1.214     4 C    1.177
     4   6 C    3.960 --     5 C    1.646     3 C    1.177    39 H    0.975
     5   6 C    3.963 --     4 C    1.646     6 C    1.179    40 H    0.973
     6   6 C    3.920 --     8 C    1.323     7 N    1.220     5 C    1.179
     7   7 N    3.400 --     6 C    1.220     3 C    1.214     1 Ni   0.664
     8   6 C    3.940 --    15 C    1.327     6 C    1.323     9 C    1.024
     9   6 C    3.988 --    10 C    1.768    14 C    1.098     8 C    1.024
    10   6 C    3.973 --     9 C    1.768    11 C    1.013    41 H    0.972
    11   6 C    3.961 --    10 C    1.013    42 H    0.976    43 H    0.966
                            12 N    0.949
    12   7 N    3.248 --    13 C    1.161    11 C    0.949    44 H    0.928
                            14 C    0.127
    13   6 C    3.958 --    14 C    1.692    12 N    1.161    45 H    0.971
    14   6 C    3.968 --    13 C    1.692     9 C    1.098    46 H    0.974
                            12 N    0.127
    15   6 C    3.914 --     8 C    1.327    18 N    1.206    16 C    1.186
    16   6 C    3.959 --    17 C    1.634    15 C    1.186    47 H    0.972
    17   6 C    3.962 --    16 C    1.634    19 C    1.192    48 H    0.973
    18   7 N    3.406 --    19 C    1.238    15 C    1.206     1 Ni   0.663
    19   6 C    3.905 --    20 C    1.264    18 N    1.238    17 C    1.192
    20   6 C    3.943 --    19 C    1.264    21 C    1.264   118 C    1.181
    21   6 C    3.905 --    20 C    1.264    25 N    1.238    22 C    1.192
    22   6 C    3.962 --    23 C    1.634    21 C    1.192    49 H    0.974
    23   6 C    3.959 --    22 C    1.634    24 C    1.186    50 H    0.972
    24   6 C    3.914 --    26 C    1.327    25 N    1.205    23 C    1.186
    25   7 N    3.406 --    21 C    1.238    24 C    1.205     1 Ni   0.663
    26   6 C    3.940 --    24 C    1.327    33 C    1.323    27 C    1.024
    27   6 C    3.988 --    28 C    1.768    32 C    1.098    26 C    1.024
    28   6 C    3.973 --    27 C    1.768    29 C    1.013    51 H    0.972
    29   6 C    3.961 --    28 C    1.013    52 H    0.976    53 H    0.966
                            30 N    0.949
    30   7 N    3.248 --    31 C    1.160    29 C    0.949    54 H    0.928
                            32 C    0.127
    31   6 C    3.958 --    32 C    1.692    30 N    1.160    55 H    0.971
    32   6 C    3.968 --    31 C    1.692    27 C    1.098    56 H    0.974
                            30 N    0.127
    33   6 C    3.920 --    26 C    1.323    37 N    1.220    34 C    1.178
    34   6 C    3.963 --    35 C    1.646    33 C    1.178    57 H    0.973
    35   6 C    3.960 --    34 C    1.646    36 C    1.177    58 H    0.975
    36   6 C    3.926 --     2 C    1.363    37 N    1.213    35 C    1.177
    37   7 N    3.400 --    33 C    1.220    36 C    1.213     1 Ni   0.664
    38   1 H    1.001 --     2 C    0.970
    39   1 H    0.998 --     4 C    0.975
    40   1 H    1.007 --     5 C    0.973
    41   1 H    1.003 --    10 C    0.972
    42   1 H    1.019 --    11 C    0.976
    43   1 H    1.008 --    11 C    0.966
    44   1 H    0.964 --    12 N    0.928
    45   1 H    1.001 --    13 C    0.971
    46   1 H    1.003 --    14 C    0.974
    47   1 H    1.005 --    16 C    0.972
    48   1 H    1.002 --    17 C    0.973
    49   1 H    1.002 --    22 C    0.974
    50   1 H    1.005 --    23 C    0.972
    51   1 H    1.003 --    28 C    0.972
    52   1 H    1.019 --    29 C    0.976
    53   1 H    1.008 --    29 C    0.966
    54   1 H    0.964 --    30 N    0.928
    55   1 H    1.001 --    31 C    0.971
    56   1 H    1.003 --    32 C    0.974
    57   1 H    1.007 --    34 C    0.973
    58   1 H    0.998 --    35 C    0.975
    59  28 Ni   3.017 --    65 N    0.664    95 N    0.664    83 N    0.663
                            76 N    0.663
    60   6 C    3.932 --    94 C    1.363    61 C    1.363    96 H    0.970
    61   6 C    3.926 --    60 C    1.363    65 N    1.214    62 C    1.177
    62   6 C    3.960 --    63 C    1.646    61 C    1.177    97 H    0.975
    63   6 C    3.963 --    62 C    1.646    64 C    1.178    98 H    0.973
    64   6 C    3.920 --    66 C    1.323    65 N    1.220    63 C    1.178
    65   7 N    3.400 --    64 C    1.220    61 C    1.214    59 Ni   0.664
    66   6 C    3.940 --    73 C    1.327    64 C    1.323    67 C    1.024
    67   6 C    3.988 --    68 C    1.768    72 C    1.098    66 C    1.024
    68   6 C    3.973 --    67 C    1.768    69 C    1.013    99 H    0.972
    69   6 C    3.961 --    68 C    1.013   100 H    0.976   101 H    0.966
                            70 N    0.949
    70   7 N    3.248 --    71 C    1.161    69 C    0.949   102 H    0.928
                            72 C    0.127
    71   6 C    3.958 --    72 C    1.692    70 N    1.161   103 H    0.971
    72   6 C    3.968 --    71 C    1.692    67 C    1.098   104 H    0.974
                            70 N    0.127
    73   6 C    3.914 --    66 C    1.327    76 N    1.206    74 C    1.186
    74   6 C    3.959 --    75 C    1.634    73 C    1.186   105 H    0.972
    75   6 C    3.962 --    74 C    1.634    77 C    1.192   106 H    0.973
    76   7 N    3.406 --    77 C    1.238    73 C    1.206    59 Ni   0.663
    77   6 C    3.905 --    78 C    1.264    76 N    1.238    75 C    1.192
    78   6 C    3.943 --    77 C    1.264    79 C    1.264   120 C    1.181
    79   6 C    3.905 --    78 C    1.264    83 N    1.238    80 C    1.192
    80   6 C    3.962 --    81 C    1.634    79 C    1.192   107 H    0.974
    81   6 C    3.959 --    80 C    1.634    82 C    1.186   108 H    0.972
    82   6 C    3.914 --    84 C    1.327    83 N    1.205    81 C    1.186
    83   7 N    3.406 --    79 C    1.238    82 C    1.205    59 Ni   0.663
    84   6 C    3.940 --    82 C    1.327    91 C    1.323    85 C    1.024
    85   6 C    3.988 --    86 C    1.768    90 C    1.098    84 C    1.024
    86   6 C    3.973 --    85 C    1.768    87 C    1.013   109 H    0.972
    87   6 C    3.961 --    86 C    1.013   110 H    0.976   111 H    0.966
                            88 N    0.949
    88   7 N    3.248 --    89 C    1.160    87 C    0.949   112 H    0.928
                            90 C    0.127
    89   6 C    3.958 --    90 C    1.692    88 N    1.160   113 H    0.971
    90   6 C    3.968 --    89 C    1.692    85 C    1.098   114 H    0.974
                            88 N    0.127
    91   6 C    3.920 --    84 C    1.323    95 N    1.220    92 C    1.178
    92   6 C    3.963 --    93 C    1.646    91 C    1.178   115 H    0.973
    93   6 C    3.960 --    92 C    1.646    94 C    1.177   116 H    0.975
    94   6 C    3.926 --    60 C    1.363    95 N    1.213    93 C    1.177
    95   7 N    3.400 --    91 C    1.220    94 C    1.213    59 Ni   0.664
    96   1 H    1.001 --    60 C    0.970
    97   1 H    0.998 --    62 C    0.975
    98   1 H    1.007 --    63 C    0.973
    99   1 H    1.003 --    68 C    0.972
   100   1 H    1.019 --    69 C    0.976
   101   1 H    1.008 --    69 C    0.966
   102   1 H    0.964 --    70 N    0.928
   103   1 H    1.001 --    71 C    0.971
   104   1 H    1.003 --    72 C    0.974
   105   1 H    1.005 --    74 C    0.972
   106   1 H    1.002 --    75 C    0.973
   107   1 H    1.002 --    80 C    0.974
   108   1 H    1.005 --    81 C    0.972
   109   1 H    1.003 --    86 C    0.972
   110   1 H    1.019 --    87 C    0.976
   111   1 H    1.008 --    87 C    0.966
   112   1 H    0.964 --    88 N    0.928
   113   1 H    1.001 --    89 C    0.971
   114   1 H    1.003 --    90 C    0.974
   115   1 H    1.007 --    92 C    0.973
   116   1 H    0.998 --    93 C    0.975
   117   6 C    3.938 --   118 C    2.485   119 C    1.303
   118   6 C    3.927 --   117 C    2.485    20 C    1.181   120 C    0.200
   119   6 C    3.938 --   120 C    2.485   117 C    1.303
   120   6 C    3.927 --   119 C    2.485    78 C    1.181   118 C    0.200
 ---------------------------------------------------------------------------

           -------------------------------------------------
          | TOTAL ENERGY             -204.351915863132 Eh   |
          | GRADIENT NORM               0.000810144889 Eh/α |
          | HOMO-LUMO GAP               1.027671467921 eV   |
           -------------------------------------------------

 * finished run on 2022/07/30 at 03:15:23.111
