   * xtb version 6.5.1 (b24c23e) compiled by 'conda@728c89f4b128' on 2022-07-12
          program call               : xtb Ph_C8_3.xyz --gfn 1 --opt -T 48

   ID    Z sym.   atoms
    1    6 C      1-5, 7-10, 12-28, 31-36, 58-62, 64-67, 69-85, 88-93,
                  115-135, 137-140, 142-158, 161-166
    2    7 N      6, 11, 29, 30, 63, 68, 86, 87, 136, 141, 159, 160
    3    1 H      37-57, 94-114, 167-186

          :  Hamiltonian                  GFN1-xTB          :
 * total energy  :  -306.5530370 Eh     change       -0.1374468E-07 Eh
 * total energy  :  -307.2045798 Eh     change       -0.6515429E+00 Eh
 * total energy  :  -307.3944599 Eh     change       -0.1898800E+00 Eh
 * total energy  :  -307.4863023 Eh     change       -0.9184245E-01 Eh
 * total energy  :  -307.5420707 Eh     change       -0.5576836E-01 Eh
 * total energy  :  -307.6006454 Eh     change       -0.5857467E-01 Eh
 * total energy  :  -307.6655249 Eh     change       -0.6487959E-01 Eh
 * total energy  :  -307.7189829 Eh     change       -0.5345794E-01 Eh
 * total energy  :  -307.7562830 Eh     change       -0.3730009E-01 Eh
 * total energy  :  -307.7849029 Eh     change       -0.2861995E-01 Eh
 * total energy  :  -307.9361679 Eh     change       -0.6122671E-04 Eh
 * total energy  :  -307.9362170 Eh     change       -0.4903643E-04 Eh
 * total energy  :  -307.9362319 Eh     change       -0.1496720E-04 Eh
 * total energy  :  -307.9362459 Eh     change       -0.1398413E-04 Eh
 * total energy  :  -307.9362674 Eh     change       -0.2146530E-04 Eh
 * total energy  :  -307.9362743 Eh     change       -0.6953119E-05 Eh
 * total energy  :  -307.9362828 Eh     change       -0.8481923E-05 Eh
 * total energy  :  -307.9362881 Eh     change       -0.5235153E-05 Eh
 * total energy  :  -307.9362883 Eh     change       -0.2213162E-06 Eh
   *** GEOMETRY OPTIMIZATION CONVERGED AFTER 68 ITERATIONS ***

 final structure:
================
186
 xtb: 6.5.1 (b24c23e)
C           20.10615053821596       -0.08818789491700        0.01251409086859
C           20.72045265311451       -1.16159038708734        0.64466576180553
C           20.07495947429510       -2.27966317161212        1.24343213462295
C           21.04090228957435       -3.09812425319164        1.75766868097184
C           22.30766984984278       -2.50101166226686        1.49877637322178
N           22.06372212643145       -1.34217087644609        0.81783156674056
C           23.57225060068707       -2.99049531059855        1.84536793850451
C           24.78449036071775       -2.37565192384471        1.52408179819704
C           26.08184333689120       -2.87192364064883        1.94711334672233
C           26.99991803403085       -2.02410954317389        1.43890279255783
N           24.93597823776510       -1.23589329174708        0.79431344490461
C           26.26198111153100       -1.00586255759361        0.71670670010225
C           26.89620282418394        0.05508074988412        0.03824539787962
C           26.25654478027944        1.11012100815133       -0.63961905454713
C           26.89642837167177        2.16746367250765       -1.33934129374412
C           25.92577218998772        2.98786353570522       -1.84368108950099
C           24.66177139307928        2.45940177624480       -1.46061405610761
C           23.39808390238638        2.97207458164810       -1.77049572075236
C           23.36123298861787        4.23969760349158       -2.54034717134918
C           22.76759851963327        4.28317983973489       -3.80268910908462
C           22.73527910683426        5.46838864664345       -4.52180807362806
C           23.28961146575464        6.62416793001255       -3.98864853169376
C           23.88015955640832        6.58959420339981       -2.73275865882478
C           23.91949748147981        5.40494118977094       -2.01283610270970
C           22.18360279858104        2.37831205454413       -1.41094361270997
C           20.87690715958701        2.94822734808923       -1.70059274623136
C           19.96586682578164        2.08767317516134       -1.20340841981169
C           20.71469937538675        0.99906227378985       -0.60057240196526
N           22.04658479310503        1.21202916208723       -0.73688211149214
N           24.91405716442775        1.32058160185485       -0.74164594111217
C           23.60778263073799       -4.26159126256088        2.60996625931697
C           22.99932399080785       -4.35278986817411        3.86265126424256
C           23.03310108080104       -5.54292574124245        4.57381036460578
C           23.66921252792187       -6.65633801446818        4.04199280366427
C           24.27486862312501       -6.57437301624294        2.79545645654923
C           24.24701949396358       -5.38491828268282        2.08326260565123
H           19.02103010320712       -0.10990908730806        0.00154477972036
H           19.00729483385310       -2.42963811985139        1.26532991508944
H           20.89502263842116       -4.03812634175785        2.26467522280117
H           22.78541655642156       -0.71123089895354        0.48571943192285
H           26.24538454224997       -3.74243055421516        2.56145275365215
H           28.07320724045213       -2.05658169954354        1.53714093179124
H           27.96418306982769        2.27476055831796       -1.44259684861305
H           26.06858082117164        3.87574748509188       -2.43774317039277
H           22.34567839449412        3.37848336153836       -4.22602297351499
H           22.27597635308852        5.48924656994394       -5.50389408902267
H           23.26129945085562        7.55056362745441       -4.55101778636190
H           24.31146897336136        7.49031435111615       -2.31016762449383
H           24.36892816551532        5.38341129637703       -1.02616001174927
H           20.70546423477735        3.88556636709601       -2.20497585389448
H           18.88954461866516        2.15899698834379       -1.21991269685934
H           24.19462691457083        0.72016288024064       -0.35236966730306
H           22.51454545547529       -3.48035688977369        4.28677608537549
H           22.56129995861064       -5.60055508259065        5.54849684249752
H           23.69341882136305       -7.58637420505507        4.59851735872576
H           24.77149827774578       -7.44173904084014        2.37470601314689
H           24.70914590037995       -5.32637477617043        1.10410315574277
C           64.03815854824215        0.04657946386783       -0.07185503283777
C           63.41655855201626        1.07361400795132       -0.77039755806911
C           64.05455507382231        2.10103604196735       -1.52052071002706
C           63.08265553982068        2.91140756658773       -2.03636600796582
C           61.81954725956298        2.41080911846206       -1.60950305932555
N           62.07159087611759        1.29762515932695       -0.85893386892825
C           60.55138740409523        2.92692520288054       -1.89945761453944
C           59.34300632822909        2.36279578154526       -1.48441448435445
C           58.04186834844977        2.95154754803955       -1.74650324836881
C           57.12913325380270        2.11853995620766       -1.20522599099612
N           59.19900874068396        1.20821331266734       -0.77680022047195
C           57.87408164222602        1.02904014019952       -0.60444312207531
C           57.24713596801228       -0.05237833221955        0.04813951484300
C           57.89475876616802       -1.11855141049079        0.70057954884923
C           57.26321243131812       -2.21533273452091        1.34482182868818
C           58.23965696592099       -3.01299562238978        1.87397127048767
C           59.49889109301387       -2.42300915253916        1.57404042314122
C           60.76586776332693       -2.90706342817715        1.91539728319791
C           60.81074422098970       -4.14247539623504        2.73533916859249
C           61.42726622534544       -5.29510819488502        2.24628681804561
C           61.46852827508537       -6.44826573545560        3.01533219705549
C           60.90005698212141       -6.46398018920694        4.28181620873329
C           60.28599790785219       -5.32119911988226        4.77597537823403
C           60.23796578551134       -4.16760620907259        4.00783152051004
C           61.97643437988441       -2.31419413733916        1.54129199530221
C           63.28622861640707       -2.80532355581457        1.94061917254343
C           64.19180156857466       -1.98007478882664        1.37790378463624
C           63.43644343255475       -0.97812021665945        0.64670488343938
N           62.10612820684725       -1.20545741403784        0.77492541883444
N           59.23827291631756       -1.28587297410619        0.85544512145527
C           60.50672111642145        4.16724781767664       -2.71265148696528
C           61.10446554149670        5.34040707466150       -2.25005148699483
C           61.06071340271865        6.49773408547700       -3.01295733134311
C           60.42580801825026        6.49669897493133       -4.24745049467005
C           59.83137517774615        5.33286256741164       -4.71598037444137
C           59.86868991913910        4.17502416182199       -3.95389087120289
H           65.12329158924162        0.05511347252111       -0.09378640636697
H           65.12157680327134        2.19332415675131       -1.64633060101551
H           63.22200642955793        3.77595925132320       -2.66492654455841
H           61.35430129778408        0.72037723859354       -0.43293202383007
H           57.87241251934826        3.88288269458124       -2.26211022289023
H           56.05520266287711        2.21410421912326       -1.19203817649723
H           56.19684620886139       -2.36785574504611        1.38831408332056
H           58.10394611473215       -3.93468715706414        2.41591720622013
H           61.86017962465451       -5.28864218597428        1.25218406027209
H           61.94613406340372       -7.33936549330445        2.62325976418550
H           60.93563663008306       -7.36546500744111        4.88291182886401
H           59.84325234728097       -5.32701883142080        5.76585145749593
H           59.77037510586196       -3.27185127511908        4.40150311078438
H           63.46344170235523       -3.65884584272770        2.57502452586320
H           65.26822614377819       -2.01460471244031        1.44073382841791
H           59.95285058612845       -0.66531163568270        0.48954216913216
H           61.58876306388226        5.34749933044440       -1.27976804537702
H           61.52394815631964        7.40490664251860       -2.64097294745269
H           60.39343587566662        7.40195530357113       -4.84306928927312
H           59.33529045996275        5.32641721361931       -5.68032330639387
H           59.41471707775593        3.26359337040788       -4.32665420589420
C           28.30184164261468        0.07192370183465        0.03002917892426
C           29.52641648845459        0.08100049578651        0.01562218813027
C           30.86910325876196        0.08834980989655        0.00333100197811
C           32.09979016808799        0.08847419224747       -0.01168457280764
C           33.43773081982329        0.08590533806201       -0.02078644465258
C           34.66848142376197        0.07852358910552       -0.03324934280581
C           36.01097366423608        0.07171264059512       -0.04302276088426
C           37.23572924252529        0.05637222213246       -0.05265701653026
C           46.90818814364754       -0.07425750186158       -0.01117982637753
C           48.13284794595116       -0.09418683781472        0.00549488365061
C           49.47514609808457       -0.10734784337534        0.02287451085751
C           50.70590476407663       -0.11526975462011        0.03844610155631
C           52.04380110286863       -0.11902859611504        0.04464919540561
C           53.27457133115715       -0.10982069360150        0.05337464473748
C           54.61717772313590       -0.09572471786528        0.05692723320744
C           55.84175150982953       -0.07712811450844        0.05789391156954
C           38.64043315912519        0.04330411905029       -0.05705841678050
C           39.27991908646922        1.19722852684497        0.43554485930342
C           38.64422452802227        2.35439111047379        0.95541473071832
C           39.61923263835977        3.24427265053978        1.31479705820287
C           40.87957635952701        2.65801450275039        1.01694804408730
N           40.62338192340565        1.41808401659066        0.49513482817563
C           42.14477588755555        3.21764612605485        1.23072557137407
C           43.36395669284432        2.59050609899122        0.97004531579673
C           44.65610984510609        3.22536578719882        1.15916681055654
C           45.58572694585575        2.31202689598789        0.81046292941081
N           43.52992074383383        1.32456709791130        0.49678144178968
C           44.86002917805554        1.12626486105282        0.39989192814922
C           45.50377739398768       -0.05259057630597       -0.02761317587984
C           44.86354601232760       -1.22280661699329       -0.47917748299773
C           45.49822880304824       -2.42052537922995       -0.89867043520238
C           44.52345136206121       -3.30260827926304       -1.27744681878416
C           43.26444444006501       -2.66516287065103       -1.10603293363477
C           41.99985228370422       -3.20706097558040       -1.36461178383355
C           41.97473221387874       -4.57915787607950       -1.93181545427423
C           42.54377897913677       -4.83784272743074       -3.17939828642094
C           42.51771839658890       -6.11909846464534       -3.70951836576421
C           41.93031326741207       -7.15679612151334       -2.99870856206134
C           41.36538123217437       -6.90779510737223       -1.75528184896393
C           41.38404379297288       -5.62680451384321       -1.22438323309728
C           40.78081478652644       -2.56804433553797       -1.13427933018374
C           39.48970844798763       -3.14873069495899       -1.45734410813548
C           38.56003125096942       -2.24375983904708       -1.08769041371729
C           39.28483355698807       -1.10891282011563       -0.55090345233583
N           40.61443713308341       -1.32720357497151       -0.59867502343761
N           43.52084240214644       -1.41354492479383       -0.61310285350208
C           42.17136043752262        4.59514023362430        1.78450988041797
C           41.62014177075780        5.65714912304754        1.06660420731071
C           41.64766749577561        6.94297870017961        1.58555049445061
C           42.21875364359482        7.18232362166394        2.82800130755629
C           42.76609105965090        6.13017916598778        3.54959593084861
C           42.74594224409993        4.84401476170252        3.03153148585434
H           37.57715808492081        2.47923532845884        1.04450434343858
H           39.48031737944113        4.21764002838253        1.75615366553016
H           41.33668375629657        0.75858915093179        0.20275014316228
H           44.80873861393910        4.23646133523302        1.50017546993197
H           46.65963117076144        2.40868471082644        0.81393652817925
H           46.56445438232002       -2.57960957325103       -0.90283060556976
H           44.66142833982033       -4.30964896654960       -1.63573494529897
H           42.99209734294377       -4.02597930327900       -3.74140150442482
H           42.95735549808946       -6.30747740216729       -4.68270764091844
H           41.91275251352170       -8.15828411875118       -3.41339691325420
H           40.90823256095580       -7.71564178167661       -1.19473305002897
H           40.95265822089829       -5.43588309344731       -0.24812121755925
H           39.33783988678371       -4.11266831911487       -1.91522138532766
H           37.48673892663606       -2.30938440390997       -1.16754108765750
H           42.80811940279869       -0.73077491996892       -0.37839541279603
H           41.18480539469449        5.47408549370748        0.09042765432742
H           41.22196096389256        7.76186648846463        1.01628206691606
H           42.23738691030044        8.18762436122280        3.23331116566970
H           43.21052438443473        6.31141906378386        4.52193940237740
H           43.16350285136209        4.02122846963899        3.60101830049446

          :  Hamiltonian                  GFN1-xTB          :
         :: total energy            -307.936288290657 Eh    ::
         :: gradient norm              0.000804390455 Eh/a0 ::
         :: HOMO-LUMO gap              0.947504505575 eV    ::
         :: SCC energy              -313.479511737178 Eh    ::
         :: repulsion energy           5.698924532631 Eh    ::

    * Orbital Energies and Occupations

         #    Occupation            Energy/Eh            Energy/eV
      -------------------------------------------------------------
         1        2.0000           -0.8056105             -21.9218
       ...           ...                  ...                  ...
       273        2.0000           -0.4161942             -11.3252
       274        2.0000           -0.4153404             -11.3020
       275        2.0000           -0.4153255             -11.3016
       276        2.0000           -0.4139939             -11.2653
       277        2.0000           -0.4107088             -11.1760
       278        2.0000           -0.4095062             -11.1432
       279        2.0000           -0.4071720             -11.0797
       280        2.0000           -0.4000085             -10.8848
       281        2.0000           -0.3988402             -10.8530
       282        2.0000           -0.3988119             -10.8522
       283        2.0000           -0.3844821             -10.4623
       284        2.0000           -0.3821194             -10.3980
       285        2.0000           -0.3783032             -10.2942 (HOMO)
       286                         -0.3434830              -9.3466 (LUMO)
       287                         -0.3371722              -9.1749
       288                         -0.3351017              -9.1186
       289                         -0.3316102              -9.0236
       290                         -0.3310231              -9.0076
       291                         -0.3309884              -9.0067
       292                         -0.3106545              -8.4533
       293                         -0.3025764              -8.2335
       294                         -0.3024628              -8.2304
       295                         -0.2934607              -7.9855
       296                         -0.2891981              -7.8695
       ...                                ...                  ...
       620                          1.6054343              43.6861
      -------------------------------------------------------------
                  HL-Gap            0.0348201 Eh            0.9475 eV

Wiberg/Mayer (AO) data.
largest (>0.10) Wiberg bond orders for each atom

     #   Z sym  total        # sym  WBO       # sym  WBO       # sym  WBO
 ---------------------------------------------------------------------------
     1   6 C    3.925 --    28 C    1.366     2 C    1.346    37 H    0.971
     2   6 C    3.903 --     1 C    1.346     3 C    1.230     6 N    1.170
     3   6 C    3.954 --     4 C    1.595     2 C    1.230    38 H    0.977
     4   6 C    3.959 --     3 C    1.595     5 C    1.235    39 H    0.974
     5   6 C    3.896 --     7 C    1.302     4 C    1.235     6 N    1.177
     6   7 N    3.470 --     5 C    1.177     2 C    1.170    40 H    0.873
     7   6 C    3.940 --     8 C    1.337     5 C    1.302    31 C    1.029
     8   6 C    3.915 --     7 C    1.337    11 N    1.285     9 C    1.125
     9   6 C    3.966 --    10 C    1.710     8 C    1.125    41 H    0.974
    10   6 C    3.964 --     9 C    1.710    12 C    1.128    42 H    0.974
    11   7 N    3.022 --    12 C    1.345     8 C    1.285
    12   6 C    3.908 --    11 N    1.345    13 C    1.253    10 C    1.128
    13   6 C    3.938 --    12 C    1.253    14 C    1.252   115 C    1.191
    14   6 C    3.885 --    13 C    1.252    15 C    1.248    30 N    1.190
    15   6 C    3.959 --    16 C    1.584    14 C    1.248    43 H    0.975
    16   6 C    3.955 --    15 C    1.584    17 C    1.240    44 H    0.974
    17   6 C    3.899 --    18 C    1.311    16 C    1.240    30 N    1.164
    18   6 C    3.926 --    25 C    1.320    17 C    1.311    19 C    1.029
    19   6 C    3.988 --    24 C    1.395    20 C    1.394    18 C    1.029
                            22 C    0.108
    20   6 C    3.987 --    21 C    1.448    19 C    1.394    45 H    0.973
                            23 C    0.110
    21   6 C    3.995 --    20 C    1.448    22 C    1.437    46 H    0.973
                            24 C    0.109
    22   6 C    3.989 --    23 C    1.438    21 C    1.437    47 H    0.974
                            19 C    0.108
    23   6 C    3.995 --    24 C    1.447    22 C    1.438    48 H    0.973
                            20 C    0.110
    24   6 C    3.987 --    23 C    1.447    19 C    1.395    49 H    0.973
                            21 C    0.109
    25   6 C    3.929 --    18 C    1.320    29 N    1.318    26 C    1.118
    26   6 C    3.967 --    27 C    1.722    25 C    1.118    50 H    0.974
    27   6 C    3.966 --    26 C    1.722    28 C    1.117    51 H    0.976
    28   6 C    3.929 --     1 C    1.366    29 N    1.300    27 C    1.117
    29   7 N    3.013 --    25 C    1.318    28 C    1.300
    30   7 N    3.474 --    14 C    1.190    17 C    1.164    52 H    0.873
    31   6 C    3.989 --    32 C    1.395    36 C    1.394     7 C    1.029
                            34 C    0.108
    32   6 C    3.987 --    33 C    1.447    31 C    1.395    53 H    0.973
                            35 C    0.109
    33   6 C    3.995 --    32 C    1.447    34 C    1.438    54 H    0.973
                            36 C    0.109
    34   6 C    3.989 --    33 C    1.438    35 C    1.437    55 H    0.974
                            31 C    0.108
    35   6 C    3.995 --    36 C    1.448    34 C    1.437    56 H    0.973
                            32 C    0.109
    36   6 C    3.988 --    35 C    1.448    31 C    1.394    57 H    0.973
                            33 C    0.109
    37   1 H    1.002 --     1 C    0.971
    38   1 H    0.998 --     3 C    0.977
    39   1 H    1.005 --     4 C    0.974
    40   1 H    0.986 --     6 N    0.873
    41   1 H    1.005 --     9 C    0.974
    42   1 H    1.003 --    10 C    0.974
    43   1 H    1.002 --    15 C    0.975
    44   1 H    1.005 --    16 C    0.974
    45   1 H    1.005 --    20 C    0.973
    46   1 H    1.003 --    21 C    0.973
    47   1 H    1.003 --    22 C    0.974
    48   1 H    1.003 --    23 C    0.973
    49   1 H    1.005 --    24 C    0.973
    50   1 H    1.005 --    26 C    0.974
    51   1 H    0.998 --    27 C    0.976
    52   1 H    0.987 --    30 N    0.873
    53   1 H    1.005 --    32 C    0.973
    54   1 H    1.003 --    33 C    0.973
    55   1 H    1.003 --    34 C    0.974
    56   1 H    1.003 --    35 C    0.973
    57   1 H    1.005 --    36 C    0.973
    58   6 C    3.925 --    85 C    1.366    59 C    1.346    94 H    0.971
    59   6 C    3.903 --    58 C    1.346    60 C    1.230    63 N    1.170
    60   6 C    3.954 --    61 C    1.595    59 C    1.230    95 H    0.977
    61   6 C    3.959 --    60 C    1.595    62 C    1.235    96 H    0.974
    62   6 C    3.896 --    64 C    1.302    61 C    1.235    63 N    1.177
    63   7 N    3.470 --    62 C    1.177    59 C    1.170    97 H    0.873
    64   6 C    3.940 --    65 C    1.337    62 C    1.302    88 C    1.029
    65   6 C    3.915 --    64 C    1.337    68 N    1.285    66 C    1.125
    66   6 C    3.966 --    67 C    1.710    65 C    1.125    98 H    0.974
    67   6 C    3.964 --    66 C    1.710    69 C    1.128    99 H    0.974
    68   7 N    3.022 --    69 C    1.345    65 C    1.285
    69   6 C    3.908 --    68 N    1.345    70 C    1.253    67 C    1.128
    70   6 C    3.938 --    69 C    1.253    71 C    1.252   130 C    1.191
    71   6 C    3.885 --    70 C    1.252    72 C    1.248    87 N    1.190
    72   6 C    3.959 --    73 C    1.584    71 C    1.248   100 H    0.975
    73   6 C    3.955 --    72 C    1.584    74 C    1.240   101 H    0.974
    74   6 C    3.899 --    75 C    1.311    73 C    1.240    87 N    1.164
    75   6 C    3.926 --    82 C    1.320    74 C    1.311    76 C    1.029
    76   6 C    3.988 --    81 C    1.395    77 C    1.394    75 C    1.029
                            79 C    0.108
    77   6 C    3.987 --    78 C    1.448    76 C    1.394   102 H    0.973
                            80 C    0.109
    78   6 C    3.995 --    77 C    1.448    79 C    1.437   103 H    0.973
                            81 C    0.109
    79   6 C    3.989 --    80 C    1.438    78 C    1.437   104 H    0.974
                            76 C    0.108
    80   6 C    3.995 --    81 C    1.447    79 C    1.438   105 H    0.973
                            77 C    0.109
    81   6 C    3.987 --    80 C    1.447    76 C    1.395   106 H    0.973
                            78 C    0.109
    82   6 C    3.929 --    75 C    1.320    86 N    1.317    83 C    1.118
    83   6 C    3.967 --    84 C    1.722    82 C    1.118   107 H    0.974
    84   6 C    3.966 --    83 C    1.722    85 C    1.117   108 H    0.976
    85   6 C    3.929 --    58 C    1.366    86 N    1.300    84 C    1.117
    86   7 N    3.013 --    82 C    1.317    85 C    1.300
    87   7 N    3.474 --    71 C    1.190    74 C    1.164   109 H    0.873
    88   6 C    3.989 --    89 C    1.395    93 C    1.394    64 C    1.029
                            91 C    0.108
    89   6 C    3.987 --    90 C    1.447    88 C    1.395   110 H    0.973
                            92 C    0.109
    90   6 C    3.995 --    89 C    1.447    91 C    1.438   111 H    0.973
                            93 C    0.110
    91   6 C    3.989 --    90 C    1.438    92 C    1.437   112 H    0.974
                            88 C    0.108
    92   6 C    3.995 --    93 C    1.448    91 C    1.437   113 H    0.973
                            89 C    0.109
    93   6 C    3.988 --    92 C    1.448    88 C    1.394   114 H    0.973
                            90 C    0.110
    94   1 H    1.002 --    58 C    0.971
    95   1 H    0.998 --    60 C    0.977
    96   1 H    1.005 --    61 C    0.974
    97   1 H    0.986 --    63 N    0.873
    98   1 H    1.005 --    66 C    0.974
    99   1 H    1.003 --    67 C    0.974
   100   1 H    1.002 --    72 C    0.975
   101   1 H    1.005 --    73 C    0.974
   102   1 H    1.005 --    77 C    0.973
   103   1 H    1.003 --    78 C    0.973
   104   1 H    1.003 --    79 C    0.974
   105   1 H    1.003 --    80 C    0.973
   106   1 H    1.005 --    81 C    0.973
   107   1 H    1.005 --    83 C    0.974
   108   1 H    0.998 --    84 C    0.976
   109   1 H    0.987 --    87 N    0.873
   110   1 H    1.005 --    89 C    0.973
   111   1 H    1.003 --    90 C    0.973
   112   1 H    1.003 --    91 C    0.974
   113   1 H    1.003 --    92 C    0.973
   114   1 H    1.005 --    93 C    0.973
   115   6 C    3.876 --   116 C    2.439    13 C    1.191   118 C    0.186
   116   6 C    3.932 --   115 C    2.439   117 C    1.343
   117   6 C    3.891 --   118 C    2.336   116 C    1.343   120 C    0.182
   118   6 C    3.924 --   117 C    2.336   119 C    1.369   115 C    0.186
   119   6 C    3.922 --   120 C    2.335   118 C    1.369   122 C    0.186
   120   6 C    3.891 --   119 C    2.335   121 C    1.345   117 C    0.182
   121   6 C    3.929 --   122 C    2.436   120 C    1.345
   122   6 C    3.877 --   121 C    2.436   131 C    1.194   119 C    0.186
   123   6 C    3.877 --   124 C    2.435   143 C    1.194   126 C    0.186
   124   6 C    3.929 --   123 C    2.435   125 C    1.345
   125   6 C    3.891 --   126 C    2.334   124 C    1.345   128 C    0.182
   126   6 C    3.922 --   125 C    2.334   127 C    1.369   123 C    0.186
   127   6 C    3.923 --   128 C    2.335   126 C    1.369   130 C    0.186
   128   6 C    3.891 --   127 C    2.335   129 C    1.344   125 C    0.182
   129   6 C    3.932 --   130 C    2.438   128 C    1.344
   130   6 C    3.876 --   129 C    2.438    70 C    1.191   127 C    0.186
   131   6 C    3.925 --   158 C    1.253   132 C    1.247   122 C    1.194
   132   6 C    3.886 --   133 C    1.253   131 C    1.247   136 N    1.190
   133   6 C    3.956 --   134 C    1.578   132 C    1.253   167 H    0.975
   134   6 C    3.956 --   133 C    1.578   135 C    1.246   168 H    0.974
   135   6 C    3.894 --   137 C    1.301   134 C    1.246   136 N    1.166
   136   7 N    3.471 --   132 C    1.190   135 C    1.166   169 H    0.874
   137   6 C    3.928 --   138 C    1.339   135 C    1.301   161 C    1.026
   138   6 C    3.916 --   137 C    1.339   141 N    1.284   139 C    1.125
   139   6 C    3.966 --   140 C    1.710   138 C    1.125   170 H    0.974
   140   6 C    3.964 --   139 C    1.710   142 C    1.129   171 H    0.974
   141   7 N    3.010 --   142 C    1.344   138 C    1.284
   142   6 C    3.909 --   141 N    1.344   143 C    1.253   140 C    1.129
   143   6 C    3.925 --   142 C    1.253   144 C    1.247   123 C    1.194
   144   6 C    3.886 --   145 C    1.253   143 C    1.247   160 N    1.190
   145   6 C    3.956 --   146 C    1.578   144 C    1.253   172 H    0.975
   146   6 C    3.956 --   145 C    1.578   147 C    1.246   173 H    0.974
   147   6 C    3.894 --   148 C    1.301   146 C    1.246   160 N    1.166
   148   6 C    3.928 --   155 C    1.339   147 C    1.301   149 C    1.026
   149   6 C    3.988 --   150 C    1.396   154 C    1.396   148 C    1.026
                           152 C    0.108
   150   6 C    3.987 --   151 C    1.447   149 C    1.396   174 H    0.973
                           153 C    0.110
   151   6 C    3.995 --   150 C    1.447   152 C    1.438   175 H    0.973
                           154 C    0.110
   152   6 C    3.990 --   151 C    1.438   153 C    1.438   176 H    0.974
                           149 C    0.108
   153   6 C    3.995 --   154 C    1.447   152 C    1.438   177 H    0.973
                           150 C    0.110
   154   6 C    3.988 --   153 C    1.447   149 C    1.396   178 H    0.973
                           151 C    0.110
   155   6 C    3.916 --   148 C    1.339   159 N    1.283   156 C    1.125
   156   6 C    3.966 --   157 C    1.710   155 C    1.125   179 H    0.974
   157   6 C    3.964 --   156 C    1.710   158 C    1.129   180 H    0.974
   158   6 C    3.909 --   159 N    1.344   131 C    1.253   157 C    1.129
   159   7 N    3.010 --   158 C    1.344   155 C    1.283
   160   7 N    3.471 --   144 C    1.190   147 C    1.166   181 H    0.874
   161   6 C    3.988 --   162 C    1.396   166 C    1.395   137 C    1.026
                           164 C    0.108
   162   6 C    3.987 --   163 C    1.447   161 C    1.396   182 H    0.973
                           165 C    0.110
   163   6 C    3.995 --   162 C    1.447   164 C    1.438   183 H    0.973
                           166 C    0.110
   164   6 C    3.990 --   163 C    1.438   165 C    1.438   184 H    0.974
                           161 C    0.108
   165   6 C    3.995 --   166 C    1.447   164 C    1.438   185 H    0.973
                           162 C    0.110
   166   6 C    3.988 --   165 C    1.447   161 C    1.395   186 H    0.973
                           163 C    0.110
   167   1 H    1.002 --   133 C    0.975
   168   1 H    1.005 --   134 C    0.974
   169   1 H    0.987 --   136 N    0.874
   170   1 H    1.005 --   139 C    0.974
   171   1 H    1.002 --   140 C    0.974
   172   1 H    1.002 --   145 C    0.975
   173   1 H    1.005 --   146 C    0.974
   174   1 H    1.005 --   150 C    0.973
   175   1 H    1.002 --   151 C    0.973
   176   1 H    1.003 --   152 C    0.974
   177   1 H    1.003 --   153 C    0.973
   178   1 H    1.005 --   154 C    0.973
   179   1 H    1.005 --   156 C    0.974
   180   1 H    1.002 --   157 C    0.974
   181   1 H    0.987 --   160 N    0.874
   182   1 H    1.005 --   162 C    0.973
   183   1 H    1.002 --   163 C    0.973
   184   1 H    1.003 --   164 C    0.974
   185   1 H    1.003 --   165 C    0.973
   186   1 H    1.005 --   166 C    0.973
 ---------------------------------------------------------------------------

           -------------------------------------------------
          | TOTAL ENERGY             -307.936288290657 Eh   |
          | GRADIENT NORM               0.000804390455 Eh/α |
          | HOMO-LUMO GAP               0.947504505575 eV   |
           -------------------------------------------------

 * finished run on 2022/07/29 at 22:56:12.725
