   * xtb version 6.5.1 (b24c23e) compiled by 'conda@728c89f4b128' on 2022-07-12
          program call               : xtb Fe_PhCHO_C6_2.xyz --gfn 1 --opt -T 48

   ID    Z sym.   atoms
    1   26 Fe     1, 61
    2    6 C      2-6, 8-13, 15-19, 21-26, 28-33, 35-40, 62-66, 68-73, 75-79,
                  81-86, 88-93, 95-100, 121-126
    3    7 N      7, 20, 27, 41, 67, 80, 87, 101
    4    8 O      14, 34, 74, 94
    5    1 H      42-60, 102-120
########################################################################
[WARNING] Please study the warnings concerning your input carefully
-1- prog_main_parseArguments: Unknown option '-T' provided
########################################################################

          :  Hamiltonian                  GFN1-xTB          :
 * total energy  :  -226.8588440 Eh     change        0.5185683E-08 Eh
 * total energy  :  -226.9408764 Eh     change       -0.8203239E-01 Eh
 * total energy  :  -226.9815743 Eh     change       -0.4069792E-01 Eh
 * total energy  :  -226.9937634 Eh     change       -0.1218910E-01 Eh
 * total energy  :  -227.0010803 Eh     change       -0.7316869E-02 Eh
 * total energy  :  -227.0048636 Eh     change       -0.3783320E-02 Eh
 * total energy  :  -227.0077377 Eh     change       -0.2874081E-02 Eh
 * total energy  :  -227.0091757 Eh     change       -0.1437973E-02 Eh
 * total energy  :  -227.0099004 Eh     change       -0.7247292E-03 Eh
 * total energy  :  -227.0105270 Eh     change       -0.6265654E-03 Eh
 * total energy  :  -227.0120414 Eh     change        0.1167793E-04 Eh
 * total energy  :  -227.0120642 Eh     change       -0.2277509E-04 Eh
 * total energy  :  -227.0120443 Eh     change        0.1996942E-04 Eh
 * total energy  :  -227.0120879 Eh     change       -0.4369216E-04 Eh
 * total energy  :  -227.0120945 Eh     change       -0.6585740E-05 Eh
 * total energy  :  -227.0120798 Eh     change        0.1473694E-04 Eh
 * total energy  :  -227.0121080 Eh     change       -0.2818498E-04 Eh
 * total energy  :  -227.0121157 Eh     change       -0.7688769E-05 Eh
 * total energy  :  -227.0121201 Eh     change       -0.4457862E-05 Eh
   *** GEOMETRY OPTIMIZATION CONVERGED AFTER 30 ITERATIONS ***

 final structure:
================
126
 xtb: 6.5.1 (b24c23e)
Fe          14.57795734467870        0.02997793570857       -0.09348322035086
C           11.18929776361009        0.08161758984937       -0.16316523132638
C           11.85095563786876        1.29089892655412       -0.11176987835818
C           11.18235255184200        2.55683395487798       -0.08334130265002
C           12.14050344731893        3.49727050787764        0.08854372788055
C           13.39519148906387        2.80445606836664        0.14920555615619
N           13.20525014093283        1.45596512288748        0.01631014809985
C           14.61448517062948        3.42582184689374        0.39581192968841
C           14.63230861872093        4.89372233486291        0.60166287601515
C           14.98607677329141        5.42837389804629        1.84337130711850
C           15.00131525217475        6.79706332663678        2.03278730290626
C           14.67082177398832        7.66027277042327        0.98303449256022
C           14.69917369177596        9.11737901522223        1.20877222850918
O           14.98948176388814        9.62572977545108        2.26100877611686
C           14.32110143273966        7.12581119958764       -0.25918561155184
C           14.29887332580770        5.75503876309718       -0.44645298458989
C           15.81883318695812        2.73898565822968        0.43824170727767
C           17.09019439836808        3.37392511367587        0.62164868894449
C           18.03224118142350        2.41400316164969        0.46315903246562
N           15.98613348273911        1.39607798479127        0.19517013502668
C           17.33451164567396        1.19704123259916        0.18785945908181
C           17.98649186155627       -0.01205270645333       -0.08522974770057
C           17.30297922056439       -1.21268395452297       -0.31170137373517
C           17.96647089941960       -2.44837731669901       -0.58699765402406
C           17.00351884046770       -3.39867008215083       -0.65610005433699
C           15.75401465321856       -2.73830461258364       -0.42038702195864
N           15.95318891307576       -1.39118087434525       -0.23668472161749
C           14.52927029162296       -3.39053724175628       -0.37803992201415
C           14.50747164424920       -4.86492342326712       -0.51340905164539
C           13.84450455736044       -5.46495080009580       -1.58764184679821
C           13.82094150520926       -6.84232606063771       -1.71527568333995
C           14.45618076669982       -7.64763283566870       -0.76698892728490
C           14.44003793804231       -9.11812026880297       -0.87704396800287
O           14.97194594815776       -9.85400771794948       -0.08612122826613
C           15.11983720633431       -7.04726788277986        0.30801498979692
C           15.14825832122419       -5.67148287259951        0.43176110619808
C           13.31976758500718       -2.71905542062851       -0.23364787570912
C           12.04300756854400       -3.37078585951312       -0.17316821876908
C           11.10700090359108       -2.39388107052833       -0.13212611912771
C           11.81320348480203       -1.14856661477897       -0.14730996167916
N           13.16692114757902       -1.36030557808844       -0.17329321013672
H           10.10585782627327        0.09888792341456       -0.19888865492287
H           10.11539734882117        2.68699664507843       -0.16987573317205
H           12.02037113383270        4.56459343281865        0.17903831583635
H           15.23488713735128        4.76041249774158        2.66014808373773
H           15.26877065899751        7.22162639221954        2.99446621431100
H           14.42683751605233        9.72184171087908        0.31735832522709
H           14.06741913604567        7.78888647910651       -1.07987640698872
H           14.03738922564869        5.34181500200449       -1.41404429846599
H           17.23325058984662        4.42255820884935        0.82494527442378
H           19.10469790434949        2.50746738031842        0.51869574056850
H           19.03207252969123       -2.55866557406779       -0.70735590352049
H           17.11779445646540       -4.45097852434102       -0.85883701111909
H           13.36079369762546       -4.84174218805602       -2.33133777048613
H           13.30796961276419       -7.29990561412684       -2.55496621442934
H           13.88807902693292       -9.50284984306577       -1.76106005090851
H           15.60837322993168       -7.68083588422256        1.04049002019736
H           15.65327192112056       -5.20887437230779        1.27212206843795
H           11.89479467477707       -4.43831084910637       -0.16035244123077
H           10.03361616328151       -2.48785895377033       -0.08932988921133
Fe          30.55967419601259       -0.01699106015068       -0.09616139324710
C           33.94833889020759       -0.05795645785136       -0.17372762811791
C           33.28671043001957       -1.26219605879513       -0.29562062227576
C           33.95536083328576       -2.51917564080753       -0.44837630109963
C           32.99729202388323       -3.47459086642790       -0.41215196587651
C           31.74258596299128       -2.79762238456223       -0.25296453032443
N           31.93245483808563       -1.44395369048824       -0.19212027128814
C           30.52333971712337       -3.44787777605072       -0.09736744983502
C           30.50558432628430       -4.93012107726325       -0.10238903052353
C           30.15132053775622       -5.63561569560073        1.05071872104620
C           30.13607884376379       -7.01731778855085        1.04398325409764
C           30.46714399674994       -7.72280588729879       -0.11749342992976
C           30.43890659880161       -9.19720225386210       -0.10072909090858
O           30.14791650186619       -9.84965906482782        0.86856670217490
C           30.81735160730233       -7.01744893603386       -1.27113399127817
C           30.83952769075760       -5.63396035006549       -1.26198749963223
C           29.31896630594245       -2.77418740875284        0.04286919113075
C           28.04765080295963       -3.42888446205186        0.13396325853144
C           27.10554598826888       -2.45620486188171        0.11470479017322
N           29.15157060632140       -1.41033888889805       -0.00566250442859
C           27.80318317212535       -1.21235096977289        0.01607614680086
C           27.15110700048315        0.02329725940507       -0.08137417950144
C           27.83451175416543        1.24404167056911       -0.13367177779035
C           27.17092540788258        2.50635792371719       -0.22938385636924
C           28.13388042967733        3.45680779723253       -0.16273756472155
C           29.38347810489747        2.76959998792455       -0.02428788685020
N           29.18432633534643        1.41003858141026       -0.03458625811469
C           30.60826791804610        3.40909535659375        0.11027835153816
C           30.63012944934170        4.88775221028328        0.18569580726176
C           31.29314685715126        5.63405292181266       -0.79256120783258
C           31.31631507143253        7.01562207837887       -0.72383770401748
C           30.68067137514727        7.67833043767650        0.32881026281121
C           30.69630067782635        9.14960603631498        0.42802173402045
O           30.16401885546978        9.76590719725663        1.31507891340968
C           30.01713422178469        6.93158158808814        1.30789128816650
C           29.98910846022451        5.55213101233486        1.23554372578700
C           31.81775439126946        2.72385296258540        0.15743333245244
C           33.09447121242811        3.36029615872247        0.31054302634839
C           34.03052899790070        2.38761017054655        0.21143972666499
C           33.32439566116550        1.15724522313748        0.01822686790194
N           31.97065994341554        1.37044324771487        0.02289183466989
H           35.03176727354797       -0.06986380451030       -0.21187971668965
H           35.02230082063934       -2.63557661839809       -0.55285390822435
H           33.11751575702324       -4.54389585123144       -0.47483864954394
H           29.90213265859590       -5.09030976139402        1.95390762303579
H           29.86822870934492       -7.57405499362743        1.93555979148621
H           30.71159232312578       -9.66911205428370       -1.06876379523216
H           31.07145247374218       -7.55734601987685       -2.17750243309420
H           31.10135620246841       -5.08763581888662       -2.16106321386780
H           27.90464613677947       -4.49582200116287        0.18515104758946
H           26.03310580356007       -2.55664984216620        0.15679833157062
H           26.10526020008746        2.63270717845270       -0.33203652843939
H           28.01949326376529        4.52726627639513       -0.21319584546210
H           31.77713272584695        5.12257252047466       -1.61693707180626
H           31.82924700813521        7.58765430418957       -1.49018014476369
H           31.24731268234039        9.65581414478591       -0.39309692935844
H           29.52835401279095        7.45489549865668        2.12264811606305
H           29.48416461157437        4.97503018454670        2.00185758234738
H           33.24257680781907        4.41500700363908        0.47605106506085
H           35.10390457396401        2.47454330535621        0.26731358974664
C           23.18387810210417        0.01837022198238       -0.13792440590896
C           21.95374458720419        0.00094796454006       -0.13825336407563
C           20.61257809478291       -0.00804431040515       -0.12911211427701
C           19.38704332441788       -0.01906633403655       -0.11498592514609
C           24.52502295096537        0.02853668192461       -0.12762646524628
C           25.75057277974203        0.03462602022972       -0.11066374395012

          :  Hamiltonian                  GFN1-xTB          :
         :: total energy            -227.012120129039 Eh    ::
         :: gradient norm              0.000395338527 Eh/a0 ::
         :: HOMO-LUMO gap              0.091259324046 eV    ::
         :: SCC energy              -230.579246634998 Eh    ::
         :: repulsion energy           3.679298638662 Eh    ::

    * Orbital Energies and Occupations

         #    Occupation            Energy/Eh            Energy/eV
      -------------------------------------------------------------
         1        2.0000           -0.7933447             -21.5880
       ...           ...                  ...                  ...
       195        2.0000           -0.4401664             -11.9775
       196        2.0000           -0.4360447             -11.8654
       197        2.0000           -0.4297076             -11.6929
       198        2.0000           -0.4100934             -11.1592
       199        2.0000           -0.4100851             -11.1590
       200        2.0000           -0.4095948             -11.1456
       201        1.9924           -0.4026882             -10.9577
       202        1.9914           -0.4025670             -10.9544
       203        1.9451           -0.4007842             -10.9059
       204        1.9440           -0.4007649             -10.9054
       205        1.9375           -0.4006574             -10.9024
       206        1.9375           -0.4006566             -10.9024
       207        1.7174           -0.3991090             -10.8603 (HOMO)
       208        0.3023           -0.3957553             -10.7690 (LUMO)
       209        0.2324           -0.3954669             -10.7612
       210                         -0.3525335              -9.5929
       211                         -0.3439061              -9.3582
       212                         -0.3439036              -9.3581
       213                         -0.3401738              -9.2566
       214                         -0.3290495              -8.9539
       215                         -0.3286944              -8.9442
       216                         -0.3241932              -8.8217
       217                         -0.3241755              -8.8213
       218                         -0.3149743              -8.5709
       ...                                ...                  ...
       438                          1.5606747              42.4681
      -------------------------------------------------------------
                  HL-Gap            0.0033537 Eh            0.0913 eV

Wiberg/Mayer (AO) data.
largest (>0.10) Wiberg bond orders for each atom

     #   Z sym  total        # sym  WBO       # sym  WBO       # sym  WBO
 ---------------------------------------------------------------------------
     1  26 Fe   3.152 --    41 N    0.672     7 N    0.667    20 N    0.664
                            27 N    0.660
     2   6 C    3.925 --     3 C    1.363    40 C    1.363    42 H    0.970
     3   6 C    3.923 --     2 C    1.363     7 N    1.209     4 C    1.172
     4   6 C    3.959 --     5 C    1.651     3 C    1.172    43 H    0.975
     5   6 C    3.961 --     4 C    1.651     6 C    1.174    44 H    0.973
     6   6 C    3.920 --     8 C    1.313     7 N    1.226     5 C    1.174
     7   7 N    3.381 --     6 C    1.226     3 C    1.209     1 Fe   0.667
     8   6 C    3.926 --    17 C    1.335     6 C    1.313     9 C    1.025
     9   6 C    3.986 --    16 C    1.386    10 C    1.383     8 C    1.025
    10   6 C    3.988 --    11 C    1.469     9 C    1.383    45 H    0.972
                            15 C    0.101
    11   6 C    3.988 --    10 C    1.469    12 C    1.371    46 H    0.968
                            16 C    0.101
    12   6 C    3.985 --    15 C    1.379    11 C    1.371    13 C    1.048
    13   6 C    3.864 --    14 O    1.810    12 C    1.048    47 H    0.942
    14   8 O    2.006 --    13 C    1.810
    15   6 C    3.993 --    16 C    1.464    12 C    1.379    48 H    0.971
                            10 C    0.101
    16   6 C    3.988 --    15 C    1.464     9 C    1.386    49 H    0.972
                            11 C    0.101
    17   6 C    3.916 --     8 C    1.335    20 N    1.199    18 C    1.178
    18   6 C    3.956 --    19 C    1.640    17 C    1.178    50 H    0.973
    19   6 C    3.960 --    18 C    1.640    21 C    1.187    51 H    0.973
    20   7 N    3.382 --    21 C    1.246    17 C    1.199     1 Fe   0.664
    21   6 C    3.902 --    22 C    1.249    20 N    1.246    19 C    1.187
    22   6 C    3.925 --    23 C    1.251    21 C    1.249   124 C    1.204
    23   6 C    3.902 --    22 C    1.251    27 N    1.244    24 C    1.188
    24   6 C    3.959 --    25 C    1.638    23 C    1.188    52 H    0.973
    25   6 C    3.956 --    24 C    1.638    26 C    1.179    53 H    0.973
    26   6 C    3.916 --    28 C    1.330    27 N    1.202    25 C    1.179
    27   7 N    3.381 --    23 C    1.244    26 C    1.202     1 Fe   0.660
    28   6 C    3.926 --    26 C    1.330    37 C    1.313    29 C    1.032
    29   6 C    3.986 --    30 C    1.383    36 C    1.381    28 C    1.032
    30   6 C    3.987 --    31 C    1.465    29 C    1.383    54 H    0.972
                            35 C    0.101
    31   6 C    3.993 --    30 C    1.465    32 C    1.379    55 H    0.971
                            36 C    0.100
    32   6 C    3.983 --    31 C    1.379    35 C    1.371    33 C    1.048
    33   6 C    3.864 --    34 O    1.809    32 C    1.048    56 H    0.942
    34   8 O    2.005 --    33 C    1.809
    35   6 C    3.988 --    36 C    1.470    32 C    1.371    57 H    0.968
                            30 C    0.101
    36   6 C    3.987 --    35 C    1.470    29 C    1.381    58 H    0.972
                            31 C    0.100
    37   6 C    3.920 --    28 C    1.313    41 N    1.225    38 C    1.174
    38   6 C    3.961 --    39 C    1.650    37 C    1.174    59 H    0.972
    39   6 C    3.959 --    38 C    1.650    40 C    1.173    60 H    0.975
    40   6 C    3.923 --     2 C    1.363    41 N    1.209    39 C    1.173
    41   7 N    3.383 --    37 C    1.225    40 C    1.209     1 Fe   0.672
    42   1 H    1.000 --     2 C    0.970
    43   1 H    0.997 --     4 C    0.975
    44   1 H    1.004 --     5 C    0.973
    45   1 H    1.003 --    10 C    0.972
    46   1 H    1.004 --    11 C    0.968
    47   1 H    1.010 --    13 C    0.942
    48   1 H    1.000 --    15 C    0.971
    49   1 H    1.003 --    16 C    0.972
    50   1 H    1.003 --    18 C    0.973
    51   1 H    1.001 --    19 C    0.973
    52   1 H    1.001 --    24 C    0.973
    53   1 H    1.003 --    25 C    0.973
    54   1 H    1.004 --    30 C    0.972
    55   1 H    1.000 --    31 C    0.971
    56   1 H    1.010 --    33 C    0.942
    57   1 H    1.004 --    35 C    0.968
    58   1 H    1.003 --    36 C    0.972
    59   1 H    1.004 --    38 C    0.972
    60   1 H    0.997 --    39 C    0.975
    61  26 Fe   3.151 --   101 N    0.672    67 N    0.667    80 N    0.664
                            87 N    0.660
    62   6 C    3.925 --    63 C    1.363   100 C    1.363   102 H    0.970
    63   6 C    3.923 --    62 C    1.363    67 N    1.209    64 C    1.172
    64   6 C    3.959 --    65 C    1.651    63 C    1.172   103 H    0.975
    65   6 C    3.961 --    64 C    1.651    66 C    1.174   104 H    0.973
    66   6 C    3.920 --    68 C    1.313    67 N    1.226    65 C    1.174
    67   7 N    3.381 --    66 C    1.226    63 C    1.209    61 Fe   0.667
    68   6 C    3.926 --    77 C    1.335    66 C    1.313    69 C    1.025
    69   6 C    3.986 --    76 C    1.386    70 C    1.383    68 C    1.025
    70   6 C    3.988 --    71 C    1.469    69 C    1.383   105 H    0.972
                            75 C    0.101
    71   6 C    3.988 --    70 C    1.469    72 C    1.371   106 H    0.968
                            76 C    0.101
    72   6 C    3.985 --    75 C    1.379    71 C    1.371    73 C    1.048
    73   6 C    3.864 --    74 O    1.810    72 C    1.048   107 H    0.942
    74   8 O    2.006 --    73 C    1.810
    75   6 C    3.993 --    76 C    1.464    72 C    1.379   108 H    0.971
                            70 C    0.101
    76   6 C    3.988 --    75 C    1.464    69 C    1.386   109 H    0.972
                            71 C    0.101
    77   6 C    3.916 --    68 C    1.335    80 N    1.199    78 C    1.178
    78   6 C    3.956 --    79 C    1.640    77 C    1.178   110 H    0.973
    79   6 C    3.960 --    78 C    1.640    81 C    1.187   111 H    0.973
    80   7 N    3.382 --    81 C    1.246    77 C    1.199    61 Fe   0.664
    81   6 C    3.902 --    82 C    1.249    80 N    1.246    79 C    1.187
    82   6 C    3.925 --    83 C    1.251    81 C    1.249   126 C    1.204
    83   6 C    3.902 --    82 C    1.251    87 N    1.244    84 C    1.188
    84   6 C    3.959 --    85 C    1.638    83 C    1.188   112 H    0.973
    85   6 C    3.956 --    84 C    1.638    86 C    1.179   113 H    0.973
    86   6 C    3.916 --    88 C    1.330    87 N    1.202    85 C    1.179
    87   7 N    3.381 --    83 C    1.244    86 C    1.202    61 Fe   0.660
    88   6 C    3.926 --    86 C    1.330    97 C    1.313    89 C    1.032
    89   6 C    3.986 --    90 C    1.383    96 C    1.381    88 C    1.032
    90   6 C    3.987 --    91 C    1.465    89 C    1.383   114 H    0.972
                            95 C    0.101
    91   6 C    3.993 --    90 C    1.465    92 C    1.379   115 H    0.971
                            96 C    0.100
    92   6 C    3.983 --    91 C    1.379    95 C    1.371    93 C    1.048
    93   6 C    3.864 --    94 O    1.809    92 C    1.048   116 H    0.942
    94   8 O    2.005 --    93 C    1.809
    95   6 C    3.988 --    96 C    1.470    92 C    1.371   117 H    0.968
                            90 C    0.101
    96   6 C    3.987 --    95 C    1.470    89 C    1.381   118 H    0.972
                            91 C    0.100
    97   6 C    3.920 --    88 C    1.313   101 N    1.225    98 C    1.174
    98   6 C    3.961 --    99 C    1.650    97 C    1.174   119 H    0.972
    99   6 C    3.959 --    98 C    1.650   100 C    1.173   120 H    0.975
   100   6 C    3.923 --    62 C    1.363   101 N    1.209    99 C    1.173
   101   7 N    3.383 --    97 C    1.225   100 C    1.209    61 Fe   0.672
   102   1 H    1.000 --    62 C    0.970
   103   1 H    0.997 --    64 C    0.975
   104   1 H    1.004 --    65 C    0.973
   105   1 H    1.003 --    70 C    0.972
   106   1 H    1.004 --    71 C    0.968
   107   1 H    1.010 --    73 C    0.942
   108   1 H    1.000 --    75 C    0.971
   109   1 H    1.003 --    76 C    0.972
   110   1 H    1.003 --    78 C    0.973
   111   1 H    1.001 --    79 C    0.973
   112   1 H    1.001 --    84 C    0.973
   113   1 H    1.003 --    85 C    0.973
   114   1 H    1.004 --    90 C    0.972
   115   1 H    1.000 --    91 C    0.971
   116   1 H    1.010 --    93 C    0.942
   117   1 H    1.004 --    95 C    0.968
   118   1 H    1.003 --    96 C    0.972
   119   1 H    1.004 --    98 C    0.972
   120   1 H    0.997 --    99 C    0.975
   121   6 C    3.914 --   122 C    2.340   125 C    1.352   124 C    0.186
   122   6 C    3.914 --   121 C    2.340   123 C    1.352   126 C    0.186
   123   6 C    3.922 --   124 C    2.423   122 C    1.352
   124   6 C    3.879 --   123 C    2.423    22 C    1.204   121 C    0.186
   125   6 C    3.922 --   126 C    2.423   121 C    1.352
   126   6 C    3.879 --   125 C    2.423    82 C    1.204   122 C    0.186
 ---------------------------------------------------------------------------

           -------------------------------------------------
          | TOTAL ENERGY             -227.012120129039 Eh   |
          | GRADIENT NORM               0.000395338527 Eh/α |
          | HOMO-LUMO GAP               0.091259324046 eV   |
           -------------------------------------------------

 * finished run on 2022/07/29 at 16:30:34.648
