   * xtb version 6.5.1 (b24c23e) compiled by 'conda@728c89f4b128' on 2022-07-12
          program call               : xtb p-CP_C4_3.xyz --gfn 1 --opt -T 48

   ID    Z sym.   atoms
    1    6 C      1-5, 7-10, 12-23, 26-31, 34-38, 41, 42, 64-68, 70-73,
                  75-86, 89-94, 97-101, 104, 105, 127-139, 141-144, 146-157,
                  160-165, 168-172, 175, 176
    2    7 N      6, 11, 32, 33, 69, 74, 95, 96, 140, 145, 166, 167
    3    8 O      24, 25, 39, 40, 87, 88, 102, 103, 158, 159, 173, 174
    4    1 H      43-63, 106-126, 177-196

          :  Hamiltonian                  GFN1-xTB          :
 * total energy  :  -359.6581057 Eh     change       -0.1602757E-08 Eh
 * total energy  :  -359.8796376 Eh     change       -0.2215320E+00 Eh
 * total energy  :  -359.9790690 Eh     change       -0.9943141E-01 Eh
 * total energy  :  -360.0292577 Eh     change       -0.5018868E-01 Eh
 * total energy  :  -360.0685490 Eh     change       -0.3929127E-01 Eh
 * total energy  :  -360.1168363 Eh     change       -0.4828733E-01 Eh
 * total energy  :  -360.1626747 Eh     change       -0.4583833E-01 Eh
 * total energy  :  -360.1947446 Eh     change       -0.3206997E-01 Eh
 * total energy  :  -360.2227188 Eh     change       -0.2797416E-01 Eh
 * total energy  :  -360.2431340 Eh     change       -0.2041518E-01 Eh
 * total energy  :  -360.4536181 Eh     change       -0.1553067E-04 Eh
 * total energy  :  -360.4536268 Eh     change       -0.8728310E-05 Eh
 * total energy  :  -360.4536368 Eh     change       -0.1004836E-04 Eh
 * total energy  :  -360.4536483 Eh     change       -0.1143278E-04 Eh
 * total energy  :  -360.4536551 Eh     change       -0.6804442E-05 Eh
 * total energy  :  -360.4536611 Eh     change       -0.6013108E-05 Eh
 * total energy  :  -360.4536681 Eh     change       -0.6963421E-05 Eh
 * total energy  :  -360.4536745 Eh     change       -0.6449565E-05 Eh
 * total energy  :  -360.4536792 Eh     change       -0.4662180E-05 Eh
   *** GEOMETRY OPTIMIZATION CONVERGED AFTER 83 ITERATIONS ***

 final structure:
================
196
 xtb: 6.5.1 (b24c23e)
C           32.29062124827074       -0.08250442227652        0.01347665080412
C           32.90237348432983       -1.31880183800685       -0.14791315829013
C           32.25342676541515       -2.57849322230777       -0.28250697203674
C           33.21740353636366       -3.53529628053560       -0.43032701927551
C           34.48665620892727       -2.88953098169647       -0.39873109961916
N           34.24589383601871       -1.55740533585090       -0.21792051867617
C           35.75098746738068       -3.48067741908091       -0.49927371891399
C           36.96634282769565       -2.79694451925420       -0.41264431002942
C           38.26534249810142       -3.42814518514986       -0.56537045025664
C           39.18382230619731       -2.45044447711689       -0.42497434898266
N           37.11724618856444       -1.46073952709197       -0.20400497452109
C           38.44490585795609       -1.22265338738950       -0.20000034488935
C           39.07780829619685        0.02278151653769       -0.02070306115598
C           38.44146108865470        1.26497924267571        0.15464226523175
C           39.08494709015535        2.51438535062439        0.36141820371696
C           38.11712471869509        3.47037665328482        0.49643773498410
C           36.85109956873098        2.83421762896510        0.36643536046651
C           35.58722971484545        3.42705923353783        0.45771835113090
C           35.55105426757603        4.89287352163518        0.67098368999801
C           36.11803919443254        5.76197366967428       -0.26523633495573
C           36.08098245223704        7.12898029817905       -0.06099428523198
C           35.48175139582109        7.65331204030238        1.08591190735666
C           35.47136523327439        9.12506278106587        1.26272227882458
O           34.87476859157800        9.52550690893684        2.39598986529811
O           35.94644061944047        9.90779199784349        0.47974304859701
C           34.91602389833963        6.79006866756820        2.02486396465680
C           34.94942065777911        5.42268563237973        1.81572395893726
C           34.37142297338949        2.74031638785888        0.36780971378358
C           33.06524578649341        3.38018850103083        0.40768162503721
C           32.15351466725197        2.39495151249789        0.28475509130163
C           32.90121901840308        1.15601117873566        0.15898226763781
N           34.23344293990016        1.40359005198988        0.20513091392661
N           37.09919829058747        1.50217266059150        0.16705054817384
C           35.78313561532040       -4.94630978667011       -0.72090942131574
C           35.21261173673209       -5.49660500139586       -1.87158240467580
C           35.24446855648716       -6.86295308469266       -2.08881293167241
C           35.84395083471844       -7.70400712275136       -1.15081806912376
C           35.90529533527859       -9.17357872426504       -1.33696635727875
O           35.32948847757765       -9.59560916086799       -2.47289535507406
O           36.41581786742673       -9.93698373633636       -0.55689843972463
C           36.41033737335885       -7.15910578648692        0.00319114180183
C           36.38272738113201       -5.79301067734013        0.21512009182691
H           31.20539525947802       -0.09486750664645        0.02208655360620
H           31.18473914205425       -2.72058572610553       -0.26165668568950
H           33.06939587232718       -4.59718115950438       -0.54188672531049
H           34.96998956396344       -0.85067856899507       -0.14378119880544
H           38.43001622342216       -4.47437496750462       -0.76568636744594
H           40.25831404689919       -2.52445791797243       -0.47475327931458
H           40.15317741037988        2.65225712299801        0.40680550149972
H           38.26392784256429        4.52199527410317        0.68105611075963
H           36.57123815095375        5.35846508994724       -1.16366188313824
H           36.51360107722093        7.80913265188484       -0.78656555662500
H           34.91050043392684       10.49497186751005        2.43551377317106
H           34.45304185931467        7.19232230956533        2.91816503379246
H           34.52209435783397        4.75141835462352        2.55203038181048
H           32.89451781942424        4.44051525174462        0.50177275379408
H           31.07744543207148        2.46839381362020        0.26823572170779
H           36.37723444719742        0.79741026928658        0.05862788266740
H           34.75895507268239       -4.84180656485161       -2.60722164081493
H           34.80671245916890       -7.28105237100622       -2.98758477583204
H           35.41408782721865      -10.56177602610456       -2.51932618547756
H           36.86980347446335       -7.82265027595815        0.72753409902651
H           36.81298848652010       -5.37305298429455        1.11709162768772
C           65.93196028938551        0.07143140322080        0.06015387978637
C           65.31677415795124        1.25371591242255        0.45049668001360
C           65.96134367030388        2.44618261275832        0.88494283634857
C           64.99470065266850        3.37272898204874        1.15632629797716
C           63.72819769207204        2.77917531364654        0.88640694537509
N           63.97304012118262        1.49984187485597        0.47564015223524
C           62.46244462946400        3.35953290802507        1.02364675803504
C           61.25011793748404        2.70768700818339        0.78230511314310
C           59.95163188343955        3.35205355900681        0.87019052144217
C           59.03545166115718        2.40610200064739        0.57839476830857
N           61.10210013071872        1.40434513306079        0.42121418517631
C           59.77548209520096        1.18918842479587        0.30387182761679
C           59.14475133171519       -0.02950188979712       -0.01359076771737
C           59.78440932027659       -1.23976542620166       -0.33646313238499
C           59.14582761945517       -2.47066557783970       -0.64415946906852
C           60.11658678099205       -3.38912420997316       -0.93269774714669
C           61.37931032618598       -2.74369057313864       -0.81712355499450
C           62.64454410912024       -3.30745298197325       -1.01494959418307
C           62.68370867205185       -4.72087888312962       -1.45732544048854
C           62.08833749724970       -5.10170064434633       -2.66326456548841
C           62.13138142121350       -6.41992226736301       -3.07791489045525
C           62.76525410634648       -7.38439727053286       -2.29212473406115
C           62.78289813935555       -8.78477422999149       -2.77774356609955
O           63.41652714787900       -9.63161116072629       -1.95211573095317
O           62.28302962032785       -9.15315274416380       -3.81031803649179
C           63.35782805700836       -7.01056878800952       -1.08548365900289
C           63.31812096837004       -5.68965809567570       -0.67506058751628
C           63.85846487738603       -2.63747170921750       -0.82688364596858
C           65.16560259966998       -3.22181240235063       -1.08603899298223
C           66.07474889333696       -2.27506475606824       -0.77914494117690
C           65.32430383145284       -1.10913261660935       -0.34632402765351
N           63.99309629148277       -1.36047242620553       -0.39811101137621
N           61.12699911060989       -1.45051017792723       -0.44413631277886
C           62.42246622107898        4.77562589470557        1.45992476771212
C           63.02166403342481        5.77229011178170        0.68543750888112
C           62.98281580784897        7.09567377168732        1.08854740185799
C           62.34715127756433        7.44294334643741        2.28102127366810
C           62.27788414539560        8.84514773116382        2.75736284210629
O           62.88408209957167        9.72045981799779        1.94109450452209
O           61.73570355418532        9.19101558374220        3.77631215544750
C           61.75074413925469        6.44980546691525        3.06041182840575
C           61.78558170227559        5.12923222432838        2.65265159898752
H           67.01714521299687        0.08131575791845        0.07438151788490
H           67.02903487125106        2.56427812413722        0.97880911037976
H           65.13926600069630        4.37714888768142        1.51989688409896
H           63.25142495689702        0.83143878973012        0.22711494931012
H           59.78617090943833        4.39013571641614        1.10873086404037
H           57.96203151527698        2.49899328893612        0.53830553038994
H           58.07873567729924       -2.62404225366393       -0.63931262377663
H           59.97439113892204       -4.42532773760368       -1.19282353065186
H           61.60860794492712       -4.35221857820498       -3.28258325349233
H           61.67759679152191       -6.72036618677722       -4.01601338360155
H           63.38320285819001      -10.52123038311889       -2.33975667400594
H           63.84701579885711       -7.75650344191493       -0.47031808041963
H           63.76673661431531       -5.40218216648760        0.26910107374424
H           65.33879104562013       -4.21648799253372       -1.46406705016653
H           67.15055873447731       -2.32686947212001       -0.83866327536339
H           61.84613031499502       -0.75585241034425       -0.27107983227693
H           63.50301464519905        5.50478969097826       -0.24856728820934
H           63.44310378233374        7.86371077670471        0.47826934261671
H           62.79123405624761       10.60928000618122        2.32090190350667
H           61.26293939017658        6.73053469273424        3.98746882964739
H           61.33206039990084        4.35806746574085        3.26484689914748
C           41.70736266340870        0.05580703583044       -0.00325416172728
C           40.48612307789589        0.04048220092535       -0.01498521341736
C           43.05825123711548        0.06633784696705        0.01101823068640
C           44.27959598242595        0.07035727319146        0.03012134294148
C           55.16384198166418       -0.04927590936242        0.01489317387781
C           53.94262481750980       -0.03112884896227        0.02942531134275
C           56.51495368024018       -0.05480817449796        0.00028242308479
C           57.73627298795950       -0.04849417243696       -0.01085087858079
C           45.68716620466637        0.07104086762015        0.04702791161227
C           46.32081294752514        1.03222838425947       -0.76170773859651
C           45.67834981716696        1.97427174721827       -1.60702161204377
C           46.64725093555688        2.72703741291664       -2.21131896394864
C           47.91090994937981        2.27132173043198       -1.74488956596815
N           47.66284396541069        1.24094992389805       -0.87845786317268
C           49.17432787517205        2.75210090364912       -2.10927001507294
C           50.39532784282589        2.23770133764962       -1.66765765032038
C           51.68680848368228        2.80063977144092       -2.02064189359827
C           52.61654046304026        2.02996543685481       -1.41969681718768
N           50.56089757760964        1.16353556986480       -0.84943789134500
C           51.89174494315309        1.00598374754111       -0.69284886802572
C           52.53512872120059       -0.00523905309665        0.04593957366646
C           51.90062043508031       -0.99795009086301        0.81488497591741
C           52.54140473558366       -2.01964972972246        1.56334131120008
C           51.57263682182774       -2.74457559619954        2.20125204485778
C           50.31099557355240       -2.18237416603856        1.86369413753028
C           49.04899570944787       -2.61620017923456        2.28738109185480
C           49.02916920224843       -3.73606101274944        3.25913120194216
C           48.40982590125145       -4.94677661428946        2.93803911690188
C           48.39181420635850       -5.98493156832435        3.85122256479126
C           48.98814980593485       -5.83082106153088        5.10421606770452
C           48.93800004505255       -6.97005269546014        6.05161095947672
O           49.53589787316949       -6.71799940494950        7.22610517478210
O           48.41770513875919       -8.03026552250117        5.81406195598742
C           49.60777522904665       -4.62393660406512        5.42984915903549
C           49.62977058630984       -3.58840086295136        4.51220112758728
C           47.82744411362579       -2.07993198005258        1.87521649407277
C           46.53641873089406       -2.53183249510679        2.36358955371086
C           45.60664230077899       -1.78948313330567        1.72824309622215
C           46.33114282962260       -0.87520505544576        0.86710058134174
N           47.66153831470287       -1.06635472973147        0.98268849641269
N           50.55936998790687       -1.13796771993325        1.01462090498762
C           49.19841275240403        3.89819454335515       -3.04951247209942
C           48.60613026979469        5.11511746100002       -2.70125093119696
C           48.62846368362666        6.17992197876313       -3.58306401790203
C           49.23855726700576        6.04687551681997       -4.83181171754349
C           49.23192061369374        7.21502775944039       -5.74465675155533
O           49.84732128293443        6.98571644582984       -6.91442688122208
O           48.72828288733367        8.27821963255659       -5.48499805694850
C           49.83020440156852        4.83367018993586       -5.18500734799069
C           49.81091637397753        3.77089670434647       -4.29901819909495
H           44.61093832452922        2.05421790127782       -1.73485346315994
H           46.50151248266090        3.52092163568380       -2.92541529087554
H           48.38114998657620        0.70644939831782       -0.40142918397941
H           51.83945371740234        3.67476249098537       -2.63258194896499
H           53.68998988479183        2.12840730055266       -1.44316382258020
H           53.60767396215111       -2.17378530474724        1.60132743013176
H           51.71631747488945       -3.59987901565048        2.84106601215865
H           47.95662824895805       -5.07260210862264        1.96140530875148
H           47.91661902195500       -6.92869053219878        3.60710476254219
H           49.45817547539523       -7.50753375797189        7.78594368593575
H           50.06907705636795       -4.49850208887751        6.40227927846424
H           50.09956224619405       -2.64601195693460        4.77067510970454
H           46.38362098473351       -3.30361274127322        3.10029743834505
H           44.53343139570809       -1.82856080011941        1.82404269877024
H           49.84234582056683       -0.55408178009355        0.59726227212283
H           48.14376006863490        5.22549371908119       -1.72689740935071
H           48.17541727094356        7.12865516147051       -3.31700811221192
H           49.79938744822135        7.79365987979737       -7.45084596181999
H           50.30207772230957        4.72480741856636       -6.15434279575424
H           50.25879576359591        2.82406661618472       -4.57873707180141

          :  Hamiltonian                  GFN1-xTB          :
         :: total energy            -360.453679173341 Eh    ::
         :: gradient norm              0.000901419863 Eh/a0 ::
         :: HOMO-LUMO gap              0.972010350808 eV    ::
         :: SCC energy              -365.872440168241 Eh    ::
         :: repulsion energy           5.584627000986 Eh    ::

    * Orbital Energies and Occupations

         #    Occupation            Energy/Eh            Energy/eV
      -------------------------------------------------------------
         1        2.0000           -0.8330114             -22.6674
       ...           ...                  ...                  ...
       305        2.0000           -0.4271010             -11.6220
       306        2.0000           -0.4266305             -11.6092
       307        2.0000           -0.4262147             -11.5979
       308        2.0000           -0.4254962             -11.5783
       309        2.0000           -0.4244424             -11.5497
       310        2.0000           -0.4241960             -11.5430
       311        2.0000           -0.4240182             -11.5381
       312        2.0000           -0.4088374             -11.1250
       313        2.0000           -0.4082135             -11.1081
       314        2.0000           -0.4076860             -11.0937
       315        2.0000           -0.3967987             -10.7974
       316        2.0000           -0.3928020             -10.6887
       317        2.0000           -0.3872893             -10.5387 (HOMO)
       318                         -0.3515686              -9.5667 (LUMO)
       319                         -0.3445852              -9.3766
       320                         -0.3425843              -9.3222
       321                         -0.3420975              -9.3089
       322                         -0.3414391              -9.2910
       323                         -0.3390631              -9.2264
       324                         -0.3181180              -8.6564
       325                         -0.3155540              -8.5867
       326                         -0.3148916              -8.5686
       327                         -0.3092693              -8.4156
       328                         -0.3092076              -8.4140
       ...                                ...                  ...
       660                          1.5081324              41.0384
      -------------------------------------------------------------
                  HL-Gap            0.0357207 Eh            0.9720 eV

Wiberg/Mayer (AO) data.
largest (>0.10) Wiberg bond orders for each atom

     #   Z sym  total        # sym  WBO       # sym  WBO       # sym  WBO
 ---------------------------------------------------------------------------
     1   6 C    3.928 --    31 C    1.367     2 C    1.347    43 H    0.971
     2   6 C    3.901 --     1 C    1.347     3 C    1.229     6 N    1.169
     3   6 C    3.954 --     4 C    1.597     2 C    1.229    44 H    0.976
     4   6 C    3.959 --     3 C    1.597     5 C    1.233    45 H    0.974
     5   6 C    3.897 --     7 C    1.303     4 C    1.233     6 N    1.178
     6   7 N    3.471 --     5 C    1.178     2 C    1.169    46 H    0.873
     7   6 C    3.938 --     8 C    1.333     5 C    1.303    34 C    1.031
     8   6 C    3.915 --     7 C    1.333    11 N    1.289     9 C    1.123
     9   6 C    3.966 --    10 C    1.712     8 C    1.123    47 H    0.973
    10   6 C    3.964 --     9 C    1.712    12 C    1.126    48 H    0.974
    11   7 N    3.023 --    12 C    1.340     8 C    1.289
    12   6 C    3.910 --    11 N    1.340    13 C    1.260    10 C    1.126
    13   6 C    3.938 --    12 C    1.260    14 C    1.257   128 C    1.179
    14   6 C    3.887 --    13 C    1.257    15 C    1.246    33 N    1.187
    15   6 C    3.959 --    16 C    1.586    14 C    1.246    49 H    0.975
    16   6 C    3.955 --    15 C    1.586    17 C    1.239    50 H    0.974
    17   6 C    3.898 --    18 C    1.308    16 C    1.239    33 N    1.167
    18   6 C    3.926 --    28 C    1.319    17 C    1.308    19 C    1.034
    19   6 C    3.986 --    27 C    1.385    20 C    1.384    18 C    1.034
    20   6 C    3.986 --    21 C    1.464    19 C    1.384    51 H    0.972
                            26 C    0.102
    21   6 C    3.990 --    20 C    1.464    22 C    1.385    52 H    0.968
                            27 C    0.102
    22   6 C    3.981 --    26 C    1.388    21 C    1.385    23 C    1.010
    23   6 C    3.836 --    25 O    1.690    24 O    1.088    22 C    1.010
    24   8 O    2.096 --    23 C    1.088    53 H    0.838    25 O    0.128
    25   8 O    1.958 --    23 C    1.690    24 O    0.128
    26   6 C    3.991 --    27 C    1.462    22 C    1.388    54 H    0.970
                            20 C    0.102
    27   6 C    3.987 --    26 C    1.462    19 C    1.385    55 H    0.972
                            21 C    0.102
    28   6 C    3.928 --    32 N    1.319    18 C    1.319    29 C    1.117
    29   6 C    3.967 --    30 C    1.724    28 C    1.117    56 H    0.973
    30   6 C    3.966 --    29 C    1.724    31 C    1.116    57 H    0.976
    31   6 C    3.928 --     1 C    1.367    32 N    1.299    30 C    1.116
    32   7 N    3.014 --    28 C    1.319    31 C    1.299
    33   7 N    3.475 --    14 C    1.187    17 C    1.167    58 H    0.872
    34   6 C    3.986 --    35 C    1.386    42 C    1.385     7 C    1.031
    35   6 C    3.987 --    36 C    1.462    34 C    1.386    59 H    0.972
                            41 C    0.102
    36   6 C    3.991 --    35 C    1.462    37 C    1.388    60 H    0.970
                            42 C    0.103
    37   6 C    3.982 --    36 C    1.388    41 C    1.385    38 C    1.009
    38   6 C    3.836 --    40 O    1.690    39 O    1.088    37 C    1.009
    39   8 O    2.096 --    38 C    1.088    61 H    0.838    40 O    0.128
    40   8 O    1.958 --    38 C    1.690    39 O    0.128
    41   6 C    3.990 --    42 C    1.464    37 C    1.385    62 H    0.968
                            35 C    0.102
    42   6 C    3.987 --    41 C    1.464    34 C    1.385    63 H    0.972
                            36 C    0.103
    43   1 H    1.002 --     1 C    0.971
    44   1 H    0.997 --     3 C    0.976
    45   1 H    1.004 --     4 C    0.974
    46   1 H    0.986 --     6 N    0.873
    47   1 H    1.004 --     9 C    0.973
    48   1 H    1.003 --    10 C    0.974
    49   1 H    1.002 --    15 C    0.975
    50   1 H    1.004 --    16 C    0.974
    51   1 H    1.004 --    20 C    0.972
    52   1 H    1.005 --    21 C    0.968
    53   1 H    0.873 --    24 O    0.838
    54   1 H    1.005 --    26 C    0.970
    55   1 H    1.004 --    27 C    0.972
    56   1 H    1.004 --    29 C    0.973
    57   1 H    0.998 --    30 C    0.976
    58   1 H    0.987 --    33 N    0.872
    59   1 H    1.004 --    35 C    0.972
    60   1 H    1.005 --    36 C    0.970
    61   1 H    0.873 --    39 O    0.838
    62   1 H    1.005 --    41 C    0.968
    63   1 H    1.004 --    42 C    0.972
    64   6 C    3.928 --    94 C    1.367    65 C    1.347   106 H    0.971
    65   6 C    3.901 --    64 C    1.347    66 C    1.228    69 N    1.169
    66   6 C    3.954 --    67 C    1.597    65 C    1.228   107 H    0.976
    67   6 C    3.959 --    66 C    1.597    68 C    1.233   108 H    0.974
    68   6 C    3.897 --    70 C    1.303    67 C    1.233    69 N    1.178
    69   7 N    3.471 --    68 C    1.178    65 C    1.169   109 H    0.873
    70   6 C    3.938 --    71 C    1.331    68 C    1.303    97 C    1.032
    71   6 C    3.915 --    70 C    1.331    74 N    1.290    72 C    1.124
    72   6 C    3.966 --    73 C    1.712    71 C    1.124   110 H    0.973
    73   6 C    3.964 --    72 C    1.712    75 C    1.127   111 H    0.974
    74   7 N    3.023 --    75 C    1.339    71 C    1.290
    75   6 C    3.910 --    74 N    1.339    76 C    1.261    73 C    1.127
    76   6 C    3.938 --    75 C    1.261    77 C    1.258   134 C    1.178
    77   6 C    3.887 --    76 C    1.258    78 C    1.247    96 N    1.187
    78   6 C    3.959 --    79 C    1.585    77 C    1.247   112 H    0.975
    79   6 C    3.956 --    78 C    1.585    80 C    1.239   113 H    0.974
    80   6 C    3.898 --    81 C    1.308    79 C    1.239    96 N    1.168
    81   6 C    3.926 --    91 C    1.319    80 C    1.308    82 C    1.034
    82   6 C    3.986 --    90 C    1.385    83 C    1.384    81 C    1.034
    83   6 C    3.986 --    84 C    1.465    82 C    1.384   114 H    0.972
                            89 C    0.102
    84   6 C    3.990 --    83 C    1.465    85 C    1.384   115 H    0.968
                            90 C    0.102
    85   6 C    3.981 --    89 C    1.388    84 C    1.384    86 C    1.010
    86   6 C    3.836 --    88 O    1.689    87 O    1.088    85 C    1.010
    87   8 O    2.096 --    86 C    1.088   116 H    0.838    88 O    0.128
    88   8 O    1.957 --    86 C    1.689    87 O    0.128
    89   6 C    3.991 --    90 C    1.462    85 C    1.388   117 H    0.970
                            83 C    0.102
    90   6 C    3.987 --    89 C    1.462    82 C    1.385   118 H    0.972
                            84 C    0.102
    91   6 C    3.929 --    81 C    1.319    95 N    1.318    92 C    1.117
    92   6 C    3.967 --    93 C    1.724    91 C    1.117   119 H    0.973
    93   6 C    3.966 --    92 C    1.724    94 C    1.116   120 H    0.976
    94   6 C    3.928 --    64 C    1.367    95 N    1.299    93 C    1.116
    95   7 N    3.014 --    91 C    1.318    94 C    1.299
    96   7 N    3.475 --    77 C    1.187    80 C    1.168   121 H    0.872
    97   6 C    3.986 --    98 C    1.386   105 C    1.384    70 C    1.032
    98   6 C    3.987 --    99 C    1.462    97 C    1.386   122 H    0.972
                           104 C    0.102
    99   6 C    3.991 --    98 C    1.462   100 C    1.389   123 H    0.970
                           105 C    0.103
   100   6 C    3.982 --    99 C    1.389   104 C    1.385   101 C    1.009
   101   6 C    3.836 --   103 O    1.690   102 O    1.088   100 C    1.009
   102   8 O    2.096 --   101 C    1.088   124 H    0.838   103 O    0.128
   103   8 O    1.958 --   101 C    1.690   102 O    0.128
   104   6 C    3.990 --   105 C    1.465   100 C    1.385   125 H    0.968
                            98 C    0.102
   105   6 C    3.987 --   104 C    1.465    97 C    1.384   126 H    0.972
                            99 C    0.103
   106   1 H    1.002 --    64 C    0.971
   107   1 H    0.997 --    66 C    0.976
   108   1 H    1.004 --    67 C    0.974
   109   1 H    0.986 --    69 N    0.873
   110   1 H    1.004 --    72 C    0.973
   111   1 H    1.003 --    73 C    0.974
   112   1 H    1.002 --    78 C    0.975
   113   1 H    1.004 --    79 C    0.974
   114   1 H    1.004 --    83 C    0.972
   115   1 H    1.005 --    84 C    0.968
   116   1 H    0.873 --    87 O    0.838
   117   1 H    1.005 --    89 C    0.970
   118   1 H    1.004 --    90 C    0.972
   119   1 H    1.004 --    92 C    0.973
   120   1 H    0.998 --    93 C    0.976
   121   1 H    0.987 --    96 N    0.872
   122   1 H    1.004 --    98 C    0.972
   123   1 H    1.005 --    99 C    0.970
   124   1 H    0.873 --   102 O    0.838
   125   1 H    1.005 --   104 C    0.968
   126   1 H    1.004 --   105 C    0.972
   127   6 C    3.932 --   128 C    2.483   129 C    1.300
   128   6 C    3.920 --   127 C    2.483    13 C    1.179   130 C    0.197
   129   6 C    3.929 --   130 C    2.482   127 C    1.300
   130   6 C    3.922 --   129 C    2.482   135 C    1.181   128 C    0.197
   131   6 C    3.929 --   132 C    2.483   133 C    1.299
   132   6 C    3.921 --   131 C    2.483   147 C    1.180   134 C    0.197
   133   6 C    3.932 --   134 C    2.484   131 C    1.299
   134   6 C    3.920 --   133 C    2.484    76 C    1.178   132 C    0.197
   135   6 C    3.927 --   165 C    1.260   136 C    1.253   130 C    1.181
   136   6 C    3.887 --   135 C    1.253   137 C    1.250   140 N    1.187
   137   6 C    3.956 --   138 C    1.580   136 C    1.250   177 H    0.975
   138   6 C    3.956 --   137 C    1.580   139 C    1.243   178 H    0.974
   139   6 C    3.894 --   141 C    1.300   138 C    1.243   140 N    1.168
   140   7 N    3.472 --   136 C    1.187   139 C    1.168   179 H    0.874
   141   6 C    3.928 --   142 C    1.333   139 C    1.300   168 C    1.032
   142   6 C    3.917 --   141 C    1.333   145 N    1.289   143 C    1.124
   143   6 C    3.966 --   144 C    1.711   142 C    1.124   180 H    0.973
   144   6 C    3.964 --   143 C    1.711   146 C    1.128   181 H    0.974
   145   7 N    3.012 --   146 C    1.338   142 C    1.289
   146   6 C    3.911 --   145 N    1.338   147 C    1.261   144 C    1.128
   147   6 C    3.927 --   146 C    1.261   148 C    1.253   132 C    1.180
   148   6 C    3.888 --   147 C    1.253   149 C    1.251   167 N    1.187
   149   6 C    3.956 --   150 C    1.580   148 C    1.251   182 H    0.975
   150   6 C    3.956 --   149 C    1.580   151 C    1.244   183 H    0.974
   151   6 C    3.894 --   152 C    1.299   150 C    1.244   167 N    1.168
   152   6 C    3.928 --   162 C    1.335   151 C    1.299   153 C    1.031
   153   6 C    3.986 --   161 C    1.386   154 C    1.385   152 C    1.031
   154   6 C    3.987 --   155 C    1.464   153 C    1.385   184 H    0.972
                           160 C    0.103
   155   6 C    3.990 --   154 C    1.464   156 C    1.385   185 H    0.968
                           161 C    0.102
   156   6 C    3.982 --   160 C    1.388   155 C    1.385   157 C    1.009
   157   6 C    3.836 --   159 O    1.690   158 O    1.088   156 C    1.009
   158   8 O    2.096 --   157 C    1.088   186 H    0.838   159 O    0.129
   159   8 O    1.958 --   157 C    1.690   158 O    0.129
   160   6 C    3.991 --   161 C    1.462   156 C    1.388   187 H    0.970
                           154 C    0.103
   161   6 C    3.986 --   160 C    1.462   153 C    1.386   188 H    0.972
                           155 C    0.102
   162   6 C    3.917 --   152 C    1.335   166 N    1.288   163 C    1.123
   163   6 C    3.967 --   164 C    1.712   162 C    1.123   189 H    0.973
   164   6 C    3.964 --   163 C    1.712   165 C    1.127   190 H    0.974
   165   6 C    3.910 --   166 N    1.340   135 C    1.260   164 C    1.127
   166   7 N    3.012 --   165 C    1.340   162 C    1.288
   167   7 N    3.472 --   148 C    1.187   151 C    1.168   191 H    0.873
   168   6 C    3.986 --   176 C    1.385   169 C    1.385   141 C    1.032
   169   6 C    3.986 --   170 C    1.464   168 C    1.385   192 H    0.972
                           175 C    0.102
   170   6 C    3.990 --   169 C    1.464   171 C    1.385   193 H    0.968
                           176 C    0.103
   171   6 C    3.982 --   175 C    1.388   170 C    1.385   172 C    1.009
   172   6 C    3.836 --   174 O    1.690   173 O    1.088   171 C    1.009
   173   8 O    2.097 --   172 C    1.088   194 H    0.838   174 O    0.129
   174   8 O    1.958 --   172 C    1.690   173 O    0.129
   175   6 C    3.991 --   176 C    1.462   171 C    1.388   195 H    0.970
                           169 C    0.102
   176   6 C    3.987 --   175 C    1.462   168 C    1.385   196 H    0.972
                           170 C    0.103
   177   1 H    1.002 --   137 C    0.975
   178   1 H    1.004 --   138 C    0.974
   179   1 H    0.987 --   140 N    0.874
   180   1 H    1.004 --   143 C    0.973
   181   1 H    1.002 --   144 C    0.974
   182   1 H    1.002 --   149 C    0.975
   183   1 H    1.004 --   150 C    0.974
   184   1 H    1.004 --   154 C    0.972
   185   1 H    1.005 --   155 C    0.968
   186   1 H    0.873 --   158 O    0.838
   187   1 H    1.005 --   160 C    0.970
   188   1 H    1.004 --   161 C    0.972
   189   1 H    1.004 --   163 C    0.973
   190   1 H    1.002 --   164 C    0.974
   191   1 H    0.987 --   167 N    0.873
   192   1 H    1.004 --   169 C    0.972
   193   1 H    1.005 --   170 C    0.968
   194   1 H    0.873 --   173 O    0.838
   195   1 H    1.005 --   175 C    0.970
   196   1 H    1.004 --   176 C    0.972
 ---------------------------------------------------------------------------

           -------------------------------------------------
          | TOTAL ENERGY             -360.453679173341 Eh   |
          | GRADIENT NORM               0.000901419863 Eh/α |
          | HOMO-LUMO GAP               0.972010350808 eV   |
           -------------------------------------------------

 * finished run on 2022/07/30 at 06:51:54.734
