   * xtb version 6.5.1 (b24c23e) compiled by 'conda@728c89f4b128' on 2022-07-12
          program call               : xtb Ni_PhCHO_C2_2.xyz --gfn 1 --opt -T 48

   ID    Z sym.   atoms
    1   28 Ni     1, 61
    2    6 C      2-6, 8-13, 15-19, 21-26, 28-33, 35-40, 62-66, 68-73, 75-79,
                  81-86, 88-93, 95-100, 121, 122
    3    7 N      7, 20, 27, 41, 67, 80, 87, 101
    4    8 O      14, 34, 74, 94
    5    1 H      42-60, 102-120
########################################################################
[WARNING] Please study the warnings concerning your input carefully
-1- prog_main_parseArguments: Unknown option '-T' provided
########################################################################

          :  Hamiltonian                  GFN1-xTB          :
 * total energy  :  -220.7134821 Eh     change       -0.1425349E-09 Eh
 * total energy  :  -220.8638348 Eh     change       -0.1503528E+00 Eh
 * total energy  :  -220.9224649 Eh     change       -0.5863011E-01 Eh
 * total energy  :  -220.9393598 Eh     change       -0.1689490E-01 Eh
 * total energy  :  -220.9466843 Eh     change       -0.7324423E-02 Eh
 * total energy  :  -220.9508686 Eh     change       -0.4184366E-02 Eh
 * total energy  :  -220.9526945 Eh     change       -0.1825879E-02 Eh
 * total energy  :  -220.9540314 Eh     change       -0.1336932E-02 Eh
 * total energy  :  -220.9547124 Eh     change       -0.6809415E-03 Eh
 * total energy  :  -220.9552321 Eh     change       -0.5197469E-03 Eh
 * total energy  :  -220.9564621 Eh     change       -0.1549766E-04 Eh
 * total energy  :  -220.9564699 Eh     change       -0.7739595E-05 Eh
 * total energy  :  -220.9564881 Eh     change       -0.1819887E-04 Eh
 * total energy  :  -220.9565044 Eh     change       -0.1627149E-04 Eh
 * total energy  :  -220.9565130 Eh     change       -0.8696765E-05 Eh
 * total energy  :  -220.9565231 Eh     change       -0.1004105E-04 Eh
 * total energy  :  -220.9565217 Eh     change        0.1416993E-05 Eh
 * total energy  :  -220.9565291 Eh     change       -0.7471548E-05 Eh
 * total energy  :  -220.9565318 Eh     change       -0.2684815E-05 Eh
   *** GEOMETRY OPTIMIZATION CONVERGED AFTER 31 ITERATIONS ***

 final structure:
================
122
 xtb: 6.5.1 (b24c23e)
Ni          17.13931389753066        0.05635411639534       -0.07082569548262
C           13.74937727060618        0.10868013307112       -0.17480116680552
C           14.41523907554479        1.31620862875879       -0.14467006161117
C           13.75108080962095        2.58405168886994       -0.13987494692647
C           14.71001438451481        3.52383593752147        0.02891157212493
C           15.96184761630684        2.82965049235859        0.11412210795455
N           15.77206602130300        1.47647757250437       -0.01331220865700
C           17.17337898061613        3.44715043858393        0.39588715638050
C           17.19210990355833        4.91391001629944        0.61056901540062
C           17.52194982223944        5.44034530365104        1.86246992092966
C           17.54148080839855        6.80780318018802        2.05960047799217
C           17.23721971998141        7.67854273351724        1.00813062285808
C           17.26759738971216        9.13409118971681        1.24345107163173
O           17.53430771935988        9.63419752487968        2.30578301327866
C           16.90995388355705        7.15261485719582       -0.24376953845437
C           16.88504856765813        5.78295836471881       -0.43923542636954
C           18.37257616128937        2.75161909092284        0.47542866724207
C           19.63662481697468        3.37484450250519        0.72711622240850
C           20.58062218878498        2.41432320949717        0.58548159732374
N           18.54199802288245        1.41323407989949        0.20243593671804
C           19.89467210097925        1.20974045555299        0.24176327417740
C           20.55106241758652        0.01835117613426       -0.07615077481449
C           19.86606286133356       -1.16442129581526       -0.36266837106250
C           20.51978304030374       -2.38860494518905       -0.69981124966202
C           19.55620118251095       -3.33753933189345       -0.77639919994112
C           18.31359392725463       -2.68760031226283       -0.48902355238979
N           18.51134327290261       -1.34276875199015       -0.27826828052986
C           17.09514116042068       -3.35106357390525       -0.41360540767295
C           17.08711147932180       -4.82647289203212       -0.53946918535836
C           16.39805182939624       -5.44642434310870       -1.58533427298676
C           16.39683481151737       -6.82503055942881       -1.70318494472317
C           17.08056606929278       -7.61157393144167       -0.77307516921255
C           17.09296333783273       -9.08255991848465       -0.87533473713523
O           17.66656200797625       -9.80218025802646       -0.09870662413515
C           17.76843765968855       -6.99135738611901        0.27518706219548
C           17.77463355770217       -5.61460672562871        0.38863578819713
C           15.88885061859786       -2.68559846608297       -0.23724804108787
C           14.61617448102238       -3.34023077550786       -0.14715204855477
C           13.67733700949610       -2.36641544937420       -0.10185853956358
C           14.37752859259309       -1.11888863137445       -0.14201323812291
N           15.73380971257910       -1.32278871997388       -0.19053551576817
H           12.66628219623479        0.12553539305534       -0.20703561796414
H           12.68524290151060        2.71586883625446       -0.23662011448519
H           14.59173911780615        4.59242189993098        0.10551401845802
H           17.74897326773067        4.76680820995360        2.68103938947648
H           17.79181240248474        7.22565051720419        3.02879006832814
H           17.02114204236703        9.74549863090538        0.34929485952263
H           16.67622169695679        7.82150640009352       -1.06567954647611
H           16.64204705601634        5.37673779978551       -1.41462561377911
H           19.77605159744608        4.41659186798973        0.96482357027656
H           21.64886071430320        2.50157927961580        0.69706714404266
H           21.58068458192837       -2.49470735010776       -0.85653102666108
H           19.66570167883001       -4.38253714818098       -1.01600408711467
H           15.87772290070809       -4.83798370303286       -2.31644877447419
H           15.86486326890643       -7.29825664427022       -2.52213738260845
H           16.52149326299394       -9.48424735027344       -1.73916568632179
H           18.29413353425876       -7.61033925898878        0.99428849436780
H           18.30039198883900       -5.13633738345209        1.20729804908716
H           14.47277743791172       -4.40819965835968       -0.12169627559905
H           12.60513258285119       -2.46370347138834       -0.04119955917076
Ni          27.99851482898745       -0.04573379021110       -0.07770816731188
C           31.38842252579570       -0.08269411003560       -0.18846155615324
C           30.72255977608068       -1.28220771238763       -0.33061610214759
C           31.38670498865993       -2.53780489807063       -0.50649771290017
C           30.42776541660234       -3.49204451269695       -0.47327563182161
C           29.17594643724357       -2.81706873290804       -0.29001164273511
N           29.36573353732683       -1.45954088925849       -0.22336037104460
C           27.96441074005724       -3.46839002443296       -0.09906248748442
C           27.94567067283867       -4.95077308119949       -0.09544793505876
C           27.61585700181336       -5.65011819720342        1.06873606900624
C           27.59631132151945       -7.03171173184823        1.06912286725558
C           27.90054508480252       -7.74384149650624       -0.09563605557174
C           27.87014991802473       -9.21806615192847       -0.06999752303980
O           27.60347278012259       -9.86435984729872        0.91029700323178
C           28.22779078121618       -7.04499738444552       -1.25988857949318
C           28.25269884237822       -5.66146514639238       -1.25831809169953
C           26.76522101536295       -2.79126413152945        0.07871051985595
C           25.50117662319456       -3.44397147324061        0.23911822966868
C           24.55718715605501       -2.47306167879730        0.23574529799810
N           26.59581832256335       -1.42763317310741       -0.00085872194156
C           25.24314039131782       -1.23181676057678        0.06703788077986
C           24.58673270260627       -0.00730366332856       -0.07797955023173
C           25.27172363641182        1.20421513443889       -0.19313332110027
C           24.61800889137974        2.46393287410296       -0.35256267154539
C           25.58159248343470        3.41409691775918       -0.29325770076613
C           26.82419391630481        2.72985050736092       -0.10130935748649
N           26.62643128836917        1.36873583560477       -0.08413181572674
C           28.04265017683796        3.37580654159437        0.06782340638333
C           28.05067068793679        4.85409804636261        0.15335445457706
C           28.73974307207075        5.61669388919401       -0.79353590203925
C           28.74088910364969        6.99803253871082       -0.71387178208160
C           28.05707168286683        7.64408308672380        0.31872482053448
C           28.04456977851885        9.11464058432228        0.42695354178826
O           27.47086628422389        9.71631013687214        1.29808967331026
C           27.36919619408812        6.88088365823519        1.26795771618393
C           27.36307429575708        5.50200919097060        1.18420250280845
C           29.24892619088391        2.69198487155318        0.14761753211587
C           30.52159694816065        3.32711622693612        0.33003398851907
C           31.46043776862708        2.35677677169656        0.23620099904914
C           30.76024915260602        1.12768367665397        0.01879593717736
N           29.40395914176293        1.33640064185955       -0.00018434788082
H           32.47151697305014       -0.09477684045436       -0.22278344844256
H           32.45253997579099       -2.65448942396468       -0.62106410629340
H           30.54602133826824       -4.56064614798155       -0.54966973594179
H           27.38885392172701       -5.10001145978411        1.97488190114171
H           27.34599007433013       -7.58331708334626        1.96893499040042
H           28.11658538033436       -9.69590921433667       -1.04211426097804
H           28.46150796255881       -7.59002827479341       -2.16867893368546
H           28.49568106886833       -5.12048551618851       -2.16592540932821
H           25.36174476359748       -4.50895398775353        0.32603765434123
H           23.48894924121159       -2.57531445932772        0.33379111823947
H           23.55710855077806        2.59126430656212       -0.49259635583606
H           25.47211019562982        4.48256478979808       -0.38165319788018
H           29.26013464808981        5.11859098288217       -1.60381772940785
H           29.27286301407946        7.58308000077456       -1.45706936216816
H           28.61609400914956        9.63526859408509       -0.37081951117732
H           26.84342790597869        7.39113075332034        2.06784343744137
H           26.83730876014261        4.91200996929447        1.92639118940389
H           30.66498880899004        4.38057632507525        0.50730651685836
H           32.53264137429801        2.44443359558639        0.31009706230671
C           21.96093327533240        0.00666821262734       -0.08905371878708
C           23.17686377833963        0.00611104238227       -0.08907273195592

          :  Hamiltonian                  GFN1-xTB          :
         :: total energy            -220.956531830047 Eh    ::
         :: gradient norm              0.000404873984 Eh/a0 ::
         :: HOMO-LUMO gap              1.239900541534 eV    ::
         :: SCC energy              -224.247743505972 Eh    ::
         :: repulsion energy           3.403164302926 Eh    ::

    * Orbital Energies and Occupations

         #    Occupation            Energy/Eh            Energy/eV
      -------------------------------------------------------------
         1        2.0000           -0.7938585             -21.6020
       ...           ...                  ...                  ...
       189        2.0000           -0.4415695             -12.0157
       190        2.0000           -0.4118041             -11.2058
       191        2.0000           -0.4112366             -11.1903
       192        2.0000           -0.4110830             -11.1861
       193        2.0000           -0.4108698             -11.1803
       194        2.0000           -0.4107551             -11.1772
       195        2.0000           -0.4100036             -11.1568
       196        2.0000           -0.4099996             -11.1567
       197        2.0000           -0.4089278             -11.1275
       198        2.0000           -0.4089274             -11.1275
       199        2.0000           -0.4088492             -11.1254
       200        2.0000           -0.4088484             -11.1253
       201        2.0000           -0.3979181             -10.8279 (HOMO)
       202                         -0.3523526              -9.5880 (LUMO)
       203                         -0.3451336              -9.3916
       204                         -0.3451263              -9.3914
       205                         -0.3407751              -9.2730
       206                         -0.3407691              -9.2728
       207                         -0.3363472              -9.1525
       208                         -0.3285098              -8.9392
       209                         -0.3277047              -8.9173
       210                         -0.3238615              -8.8127
       211                         -0.3238537              -8.8125
       212                         -0.3070050              -8.3540
       ...                                ...                  ...
       422                          1.3306742              36.2095
      -------------------------------------------------------------
                  HL-Gap            0.0455655 Eh            1.2399 eV

Wiberg/Mayer (AO) data.
largest (>0.10) Wiberg bond orders for each atom

     #   Z sym  total        # sym  WBO       # sym  WBO       # sym  WBO
 ---------------------------------------------------------------------------
     1  28 Ni   3.015 --     7 N    0.664    41 N    0.664    20 N    0.662
                            27 N    0.662
     2   6 C    3.935 --     3 C    1.365    40 C    1.364    42 H    0.970
     3   6 C    3.922 --     2 C    1.365     7 N    1.213     4 C    1.173
     4   6 C    3.960 --     5 C    1.651     3 C    1.173    43 H    0.975
     5   6 C    3.963 --     4 C    1.651     6 C    1.175    44 H    0.972
     6   6 C    3.919 --     8 C    1.323     7 N    1.221     5 C    1.175
     7   7 N    3.402 --     6 C    1.221     3 C    1.213     1 Ni   0.664
     8   6 C    3.938 --    17 C    1.327     6 C    1.323     9 C    1.025
     9   6 C    3.986 --    16 C    1.386    10 C    1.383     8 C    1.025
    10   6 C    3.988 --    11 C    1.469     9 C    1.383    45 H    0.972
                            15 C    0.101
    11   6 C    3.988 --    10 C    1.469    12 C    1.371    46 H    0.968
                            16 C    0.101
    12   6 C    3.985 --    15 C    1.380    11 C    1.371    13 C    1.048
    13   6 C    3.864 --    14 O    1.810    12 C    1.048    47 H    0.942
    14   8 O    2.006 --    13 C    1.810
    15   6 C    3.993 --    16 C    1.464    12 C    1.380    48 H    0.971
                            10 C    0.101
    16   6 C    3.988 --    15 C    1.464     9 C    1.386    49 H    0.972
                            11 C    0.101
    17   6 C    3.914 --     8 C    1.327    20 N    1.207    18 C    1.183
    18   6 C    3.959 --    19 C    1.637    17 C    1.183    50 H    0.972
    19   6 C    3.962 --    18 C    1.637    21 C    1.190    51 H    0.969
    20   7 N    3.407 --    21 C    1.236    17 C    1.207     1 Ni   0.662
    21   6 C    3.908 --    22 C    1.269    20 N    1.236    19 C    1.190
    22   6 C    3.945 --    23 C    1.271    21 C    1.269   121 C    1.168
    23   6 C    3.908 --    22 C    1.271    27 N    1.234    24 C    1.191
    24   6 C    3.962 --    25 C    1.635    23 C    1.191    52 H    0.970
    25   6 C    3.959 --    24 C    1.635    26 C    1.184    53 H    0.973
    26   6 C    3.915 --    28 C    1.323    27 N    1.210    25 C    1.184
    27   7 N    3.406 --    23 C    1.234    26 C    1.210     1 Ni   0.662
    28   6 C    3.938 --    26 C    1.323    37 C    1.323    29 C    1.032
    29   6 C    3.986 --    30 C    1.384    36 C    1.380    28 C    1.032
    30   6 C    3.988 --    31 C    1.465    29 C    1.384    54 H    0.972
                            35 C    0.101
    31   6 C    3.993 --    30 C    1.465    32 C    1.379    55 H    0.971
                            36 C    0.100
    32   6 C    3.983 --    31 C    1.379    35 C    1.370    33 C    1.048
    33   6 C    3.864 --    34 O    1.809    32 C    1.048    56 H    0.942
    34   8 O    2.005 --    33 C    1.809
    35   6 C    3.988 --    36 C    1.471    32 C    1.370    57 H    0.968
                            30 C    0.101
    36   6 C    3.987 --    35 C    1.471    29 C    1.380    58 H    0.972
                            31 C    0.100
    37   6 C    3.920 --    28 C    1.323    41 N    1.221    38 C    1.175
    38   6 C    3.963 --    39 C    1.650    37 C    1.175    59 H    0.972
    39   6 C    3.960 --    38 C    1.650    40 C    1.174    60 H    0.975
    40   6 C    3.922 --     2 C    1.364    41 N    1.213    39 C    1.174
    41   7 N    3.402 --    37 C    1.221    40 C    1.213     1 Ni   0.664
    42   1 H    1.000 --     2 C    0.970
    43   1 H    0.997 --     4 C    0.975
    44   1 H    1.004 --     5 C    0.972
    45   1 H    1.003 --    10 C    0.972
    46   1 H    1.005 --    11 C    0.968
    47   1 H    1.010 --    13 C    0.942
    48   1 H    1.000 --    15 C    0.971
    49   1 H    1.003 --    16 C    0.972
    50   1 H    1.004 --    18 C    0.972
    51   1 H    1.005 --    19 C    0.969
    52   1 H    1.005 --    24 C    0.970
    53   1 H    1.003 --    25 C    0.973
    54   1 H    1.004 --    30 C    0.972
    55   1 H    1.000 --    31 C    0.971
    56   1 H    1.010 --    33 C    0.942
    57   1 H    1.005 --    35 C    0.968
    58   1 H    1.004 --    36 C    0.972
    59   1 H    1.004 --    38 C    0.972
    60   1 H    0.997 --    39 C    0.975
    61  28 Ni   3.015 --    67 N    0.664   101 N    0.664    80 N    0.662
                            87 N    0.662
    62   6 C    3.935 --    63 C    1.365   100 C    1.364   102 H    0.970
    63   6 C    3.922 --    62 C    1.365    67 N    1.213    64 C    1.173
    64   6 C    3.960 --    65 C    1.651    63 C    1.173   103 H    0.975
    65   6 C    3.963 --    64 C    1.651    66 C    1.175   104 H    0.972
    66   6 C    3.919 --    68 C    1.323    67 N    1.221    65 C    1.175
    67   7 N    3.402 --    66 C    1.221    63 C    1.213    61 Ni   0.664
    68   6 C    3.938 --    77 C    1.327    66 C    1.323    69 C    1.025
    69   6 C    3.986 --    76 C    1.386    70 C    1.383    68 C    1.025
    70   6 C    3.988 --    71 C    1.469    69 C    1.383   105 H    0.972
                            75 C    0.101
    71   6 C    3.988 --    70 C    1.469    72 C    1.371   106 H    0.968
                            76 C    0.101
    72   6 C    3.985 --    75 C    1.380    71 C    1.371    73 C    1.048
    73   6 C    3.864 --    74 O    1.810    72 C    1.048   107 H    0.942
    74   8 O    2.006 --    73 C    1.810
    75   6 C    3.993 --    76 C    1.464    72 C    1.380   108 H    0.971
                            70 C    0.101
    76   6 C    3.988 --    75 C    1.464    69 C    1.386   109 H    0.972
                            71 C    0.101
    77   6 C    3.914 --    68 C    1.327    80 N    1.207    78 C    1.183
    78   6 C    3.959 --    79 C    1.637    77 C    1.183   110 H    0.972
    79   6 C    3.962 --    78 C    1.637    81 C    1.190   111 H    0.969
    80   7 N    3.407 --    81 C    1.236    77 C    1.207    61 Ni   0.662
    81   6 C    3.908 --    82 C    1.269    80 N    1.236    79 C    1.190
    82   6 C    3.945 --    83 C    1.271    81 C    1.269   122 C    1.168
    83   6 C    3.908 --    82 C    1.271    87 N    1.234    84 C    1.191
    84   6 C    3.962 --    85 C    1.635    83 C    1.191   112 H    0.970
    85   6 C    3.959 --    84 C    1.635    86 C    1.184   113 H    0.973
    86   6 C    3.915 --    88 C    1.323    87 N    1.210    85 C    1.184
    87   7 N    3.406 --    83 C    1.234    86 C    1.210    61 Ni   0.662
    88   6 C    3.938 --    86 C    1.323    97 C    1.323    89 C    1.032
    89   6 C    3.986 --    90 C    1.384    96 C    1.380    88 C    1.032
    90   6 C    3.988 --    91 C    1.465    89 C    1.384   114 H    0.972
                            95 C    0.101
    91   6 C    3.993 --    90 C    1.465    92 C    1.379   115 H    0.971
                            96 C    0.100
    92   6 C    3.983 --    91 C    1.379    95 C    1.370    93 C    1.048
    93   6 C    3.864 --    94 O    1.809    92 C    1.048   116 H    0.942
    94   8 O    2.005 --    93 C    1.809
    95   6 C    3.988 --    96 C    1.471    92 C    1.370   117 H    0.968
                            90 C    0.101
    96   6 C    3.987 --    95 C    1.471    89 C    1.380   118 H    0.972
                            91 C    0.100
    97   6 C    3.920 --    88 C    1.323   101 N    1.221    98 C    1.175
    98   6 C    3.963 --    99 C    1.650    97 C    1.175   119 H    0.972
    99   6 C    3.960 --    98 C    1.650   100 C    1.174   120 H    0.975
   100   6 C    3.922 --    62 C    1.364   101 N    1.213    99 C    1.174
   101   7 N    3.402 --    97 C    1.221   100 C    1.213    61 Ni   0.664
   102   1 H    1.000 --    62 C    0.970
   103   1 H    0.997 --    64 C    0.975
   104   1 H    1.004 --    65 C    0.972
   105   1 H    1.003 --    70 C    0.972
   106   1 H    1.005 --    71 C    0.968
   107   1 H    1.010 --    73 C    0.942
   108   1 H    1.000 --    75 C    0.971
   109   1 H    1.003 --    76 C    0.972
   110   1 H    1.004 --    78 C    0.972
   111   1 H    1.005 --    79 C    0.969
   112   1 H    1.005 --    84 C    0.970
   113   1 H    1.003 --    85 C    0.973
   114   1 H    1.004 --    90 C    0.972
   115   1 H    1.000 --    91 C    0.971
   116   1 H    1.010 --    93 C    0.942
   117   1 H    1.005 --    95 C    0.968
   118   1 H    1.004 --    96 C    0.972
   119   1 H    1.004 --    98 C    0.972
   120   1 H    0.997 --    99 C    0.975
   121   6 C    3.937 --   122 C    2.590    22 C    1.168
   122   6 C    3.937 --   121 C    2.590    82 C    1.168
 ---------------------------------------------------------------------------

           -------------------------------------------------
          | TOTAL ENERGY             -220.956531830047 Eh   |
          | GRADIENT NORM               0.000404873984 Eh/α |
          | HOMO-LUMO GAP               1.239900541534 eV   |
           -------------------------------------------------

 * finished run on 2022/07/30 at 04:14:32.866
