   * xtb version 6.5.1 (b24c23e) compiled by 'conda@728c89f4b128' on 2022-07-12
          program call               : xtb Co_PhCHO_C6_3.xyz --gfn 1 --opt -T 48

   ID    Z sym.   atoms
    1   27 Co     1, 61, 133
    2    6 C      2-6, 8-13, 15-19, 21-26, 28-33, 35-40, 62-66, 68-73, 75-79,
                  81-86, 88-93, 95-100, 121-132, 134-138, 140-145, 147-151,
                  153-158, 160-165, 167-172
    3    7 N      7, 20, 27, 41, 67, 80, 87, 101, 139, 152, 159, 173
    4    8 O      14, 34, 74, 94, 146, 166
    5    1 H      42-60, 102-120, 174-191

          :  Hamiltonian                  GFN1-xTB          :
 * total energy  :  -347.1403083 Eh     change       -0.6740549E-08 Eh
 * total energy  :  -347.3225419 Eh     change       -0.1822336E+00 Eh
 * total energy  :  -347.4167705 Eh     change       -0.9422862E-01 Eh
 * total energy  :  -347.4800226 Eh     change       -0.6325204E-01 Eh
 * total energy  :  -347.5427059 Eh     change       -0.6268333E-01 Eh
 * total energy  :  -347.5935905 Eh     change       -0.5088461E-01 Eh
 * total energy  :  -347.6217768 Eh     change       -0.2818634E-01 Eh
 * total energy  :  -347.6444121 Eh     change       -0.2263523E-01 Eh
 * total energy  :  -347.6607981 Eh     change       -0.1638607E-01 Eh
 * total energy  :  -347.6730762 Eh     change       -0.1227804E-01 Eh
 * total energy  :  -347.7794871 Eh     change       -0.3879381E-04 Eh
 * total energy  :  -347.7795287 Eh     change       -0.4163351E-04 Eh
 * total energy  :  -347.7795557 Eh     change       -0.2700766E-04 Eh
 * total energy  :  -347.7795693 Eh     change       -0.1359387E-04 Eh
 * total energy  :  -347.7795811 Eh     change       -0.1177856E-04 Eh
 * total energy  :  -347.7795851 Eh     change       -0.3944439E-05 Eh
 * total energy  :  -347.7795907 Eh     change       -0.5622141E-05 Eh
 * total energy  :  -347.7795889 Eh     change        0.1769127E-05 Eh
 * total energy  :  -347.7795933 Eh     change       -0.4361942E-05 Eh
   *** GEOMETRY OPTIMIZATION CONVERGED AFTER 69 ITERATIONS ***

 final structure:
================
191
 xtb: 6.5.1 (b24c23e)
Co          29.52783452301524        0.00931831359599       -0.01937711031080
C           26.15596794112388        0.06258067221413       -0.13614968607116
C           26.83304750114130        1.25932564882558       -0.22833361326958
C           26.18631427419627        2.52915989221121       -0.36301406205322
C           27.14543357620117        3.47120960452789       -0.20791863848634
C           28.37973314619066        2.77496928188073        0.01140035384973
N           28.18414866993528        1.41899046054315       -0.04733982704829
C           29.56200145068530        3.39148122265482        0.39927606077656
C           29.57712064694336        4.86126602442051        0.58657504348224
C           29.78024255145317        5.41049256723160        1.85543085693968
C           29.79513350968401        6.78163011544815        2.02603914124105
C           29.61251173117120        7.63295693728143        0.93134345335847
C           29.63726058654047        9.09268640005593        1.13868648744449
O           29.80859438813456        9.61324456571864        2.21099183532237
C           29.41141280965209        7.08384809194726       -0.33719569389082
C           29.39152800104056        5.71073804582379       -0.50684507575592
C           30.73182139181106        2.67772259666998        0.60765171005964
C           31.98144324132507        3.27811661303143        0.96805551474013
C           32.92649371798277        2.31563942169313        0.84802317353995
N           30.90728510330356        1.34381496765209        0.31454689745755
C           32.25300140042839        1.13236338455152        0.41496022877342
C           32.92089997167172       -0.03128025078011        0.02391425512324
C           32.23269161837750       -1.18559219270316       -0.35783888861222
C           32.88296034725610       -2.38585268739515       -0.77927816026640
C           31.91981916488760       -3.33266960893668       -0.88325527940674
C           30.68474866637100       -2.70670939723802       -0.51754429187590
N           30.88256913046080       -1.37031610222059       -0.25633282698094
C           29.48442495920358       -3.38415593503650       -0.36265878248019
C           29.46751891450167       -4.85543529919785       -0.51581662756246
C           28.66837463002615       -5.45402222126103       -1.49400001014170
C           28.65806144576059       -6.82907460838094       -1.64557332595653
C           29.44288201491477       -7.63428259421642       -0.81666034817791
C           29.44948033786620       -9.10218210393157       -0.95749961822667
O           30.10680528937785       -9.83751503821722       -0.26644020194572
C           30.23950994765183       -7.03592569627297        0.16517921349217
C           30.25435626347249       -5.66234378209597        0.31184599967320
C           28.29748175587534       -2.71892545121158       -0.08347752726844
C           27.03628309555551       -3.37110054025772        0.11673767406296
C           26.09667002395257       -2.39792006993446        0.16636103510581
C           26.78685315266583       -1.15333077717171        0.01469791025942
N           28.14098502054805       -1.35678439275640       -0.07698416278782
H           25.07312571387261        0.07986602734801       -0.17206057649310
H           25.12948956242181        2.66140759140807       -0.53149216867334
H           27.03691897530829        4.54356330287012       -0.21718908684758
H           29.91172366511886        4.75239488758190        2.70682808782586
H           29.94725423606052        7.21747346307811        3.00764120822738
H           29.48366987003127        9.68720940138679        0.21282921639430
H           29.27254031710277        7.73743797640670       -1.19223993355019
H           29.24746780582732        5.28645658952099       -1.49406801608137
H           32.11110936177032        4.30997240872129        1.25070825199121
H           33.98861093963860        2.38781559687078        1.01782543089043
H           33.94191200999506       -2.47752333349344       -0.95904869197009
H           32.02459502774450       -4.36319856228916       -1.18082231908136
H           28.06891391094602       -4.83081378082232       -2.14800274374165
H           28.04047401990152       -7.28485440563134       -2.41262986379066
H           28.78931968606360       -9.48549630960382       -1.76475395910455
H           30.84282873787663       -7.66942523221121        0.80655901688822
H           30.86434038896933       -5.20207408917172        1.08087080255389
H           26.90152498595738       -4.43702725257218        0.20354082890517
H           25.02974650154931       -2.49351876379842        0.28992153883482
Co          61.43688534384507       -0.02943116536491       -0.06312800355514
C           64.81142457789011       -0.06508459990992       -0.18390950843632
C           64.13575552030672       -1.24041139542400       -0.42940786144905
C           64.78730592298481       -2.48151674450340       -0.71925544066061
C           63.82977826875459       -3.43720437768098       -0.69366484153170
C           62.59111998160426       -2.77630939594799       -0.40163730599697
N           62.78360863969986       -1.42375777698770       -0.28066220834099
C           61.40305298515764       -3.43991764006557       -0.12764142111719
C           61.38730142930949       -4.92155207961044       -0.14195173638245
C           61.14846031112419       -5.63635010005857        1.03499488293360
C           61.13020920226776       -7.01786542046617        1.01901593958654
C           61.34570707134085       -7.71456274141958       -0.17459938244798
C           61.31503656524051       -9.18870632339699       -0.16693315463629
O           61.11045243714629       -9.84867052485662        0.81944134470531
C           61.58347912989444       -7.00009069833058       -1.35112223462955
C           61.60603657663221       -5.61667431706708       -1.33382612247295
C           60.22572566830176       -2.76194251864880        0.14737408516527
C           58.96990520238260       -3.40984450656133        0.38195047003496
C           58.02489648944920       -2.44025335968669        0.38681990255705
N           60.05319590088705       -1.39929495919571        0.05247104125841
C           58.70460144030430       -1.20487930340415        0.15655981994765
C           58.04088298653823        0.00736153226393       -0.04436849674483
C           58.73072402193819        1.20788801333202       -0.22320621603645
C           58.08062999005021        2.46090106275918       -0.44325788369454
C           59.04407981765365        3.41146675946060       -0.39368593477611
C           60.27935718627997        2.73385924523488       -0.13719556417602
N           60.08153224933072        1.37303016213099       -0.09295069942758
C           61.48136113524846        3.37961539732644        0.11129765350888
C           61.49692433350788        4.85719315983716        0.18815574704888
C           62.27968557511213        5.60238363270612       -0.69818319320186
C           62.28876251059869        6.98427724878415       -0.63336054943234
C           61.51891442115163        7.64887711919516        0.32427267444658
C           61.51172673833895        9.12074418368878        0.41463086879778
O           60.86737298401918        9.73842335804573        1.22344584683745
C           60.73822954795395        6.90326860370172        1.21384857055577
C           60.72469408423920        5.52360195562905        1.14454864568605
C           62.67015409806251        2.68094991220217        0.27305377428348
C           63.93369576328912        3.29852314491855        0.55273560939141
C           64.87313739115004        2.32954556394561        0.45102971454786
C           64.18054449820890        1.11899133464377        0.12987587588019
N           62.82583570009543        1.33219513082906        0.07895164962938
H           65.89422893872543       -0.07655996359862       -0.22304624502424
H           65.84605141214291       -2.58920433155766       -0.89308667463531
H           63.94163512976868       -4.49950928235354       -0.83779666241858
H           60.99100217911811       -5.09847283047810        1.96297031392105
H           60.94963305742531       -7.58144397679007        1.92808135536930
H           61.49747094663103       -9.65353045103868       -1.15935710272826
H           61.74823500663598       -7.53300813859715       -2.28193380348764
H           61.77763324138984       -5.06389654690376       -2.25053973958436
H           58.83693751862501       -4.47264915034838        0.50086782215670
H           56.95936564939186       -2.53700394103631        0.51859516286152
H           57.02153804731520        2.58061838404039       -0.60480295004634
H           58.93982263480978        4.47664024780806       -0.52022893704779
H           62.86732717798537        5.08994870143643       -1.45149067272283
H           62.89336862008024        7.55531936387122       -1.33040336767175
H           62.15808657199518        9.62631921052955       -0.33445738688149
H           60.14639057534970        7.42783229568952        1.95629851590987
H           60.12706105575279        4.94776926082978        1.84210862797625
H           64.06981915193255        4.34077298807539        0.79155949129030
H           65.94130904927758        2.40694582005511        0.57660200161645
C           38.11933313345209       -0.05204057862998       -0.00613473728945
C           36.88995715327556       -0.05217878164178        0.00116102603656
C           35.54743408051955       -0.04813978574331        0.00996426602786
C           34.32290849694746       -0.04127671886016        0.01825231585674
C           39.46154487950910       -0.04990632597142       -0.01074674884785
C           40.68646964870065       -0.04533480097538       -0.01162065625572
C           54.06976466930878        0.02989362211637       -0.06547346837708
C           52.84092061842898        0.03063057749471       -0.06186687059530
C           51.49769794179027        0.02285841960316       -0.05800392468443
C           50.27328898426019        0.01653767373376       -0.05069156354314
C           55.41342132040427        0.02614575043552       -0.06222774434640
C           56.63742551058129        0.01942511455455       -0.05485101731806
Co          45.47929680576414       -0.01275948125634       -0.03548205038902
C           42.08690829216896       -0.03891806059002       -0.00875295893569
C           42.76281791040493        1.18399624898900        0.05812297954356
C           42.10768438210280        2.45265209400764        0.08365033221605
C           43.05749495250281        3.37360609061809        0.38038796885916
C           44.28703612135779        2.65911500347671        0.54268335606141
N           44.10374756989182        1.32271282325818        0.27718393065118
C           45.46203473074486        3.21652319856604        1.02946790924307
C           45.45228733954593        4.62423372263411        1.48247458971718
C           46.30102005275541        5.56479239896201        0.89086372895029
C           46.28511443075130        6.88031603873322        1.31231863408071
C           45.42667484801093        7.28389965823913        2.34009594967007
C           45.43149435458236        8.69381944561451        2.77371325700413
O           46.13571716040074        9.53993067607824        2.28643239181552
C           44.58122905771849        6.34430913899798        2.93443497440833
C           44.59119848972846        5.02877976625906        2.50634933225814
C           46.64561889416701        2.49380622763680        1.09642790410888
C           47.87456169653880        3.00188985338556        1.62671723067518
C           48.83604378574194        2.09856158602760        1.31570660027215
N           46.84027663538333        1.25042966385867        0.54164999221055
C           48.18809871010717        1.03793833984167        0.61183849695645
C           48.87176597699812        0.00526419537257       -0.03708703011277
C           48.19269017813989       -1.04268294750436       -0.66650463932777
C           48.84303148196307       -2.09864174998730       -1.37446988487523
C           47.89270486079116       -3.02719937085579       -1.64482032080713
C           46.66791939805987       -2.53591883366274       -1.09071276433045
N           46.85330043447181       -1.28558739371505       -0.55069318394897
C           45.49624091120492       -3.27558329095834       -0.99317814256429
C           45.50393109376014       -4.69031872313795       -1.42327751264241
C           46.37989739393703       -5.60379754516963       -0.83005172843947
C           46.38603823519610       -6.92864525729847       -1.22854263227456
C           45.52109282714638       -7.36474284905034       -2.23488525522956
C           45.51036518343017       -8.77050949101605       -2.68133833403140
O           44.78701699129656       -9.19073295273420       -3.54702520893004
C           44.64773663290632       -6.44990461856556       -2.83201684858372
C           44.63642700332593       -5.12877727258441       -2.42858956917786
C           44.31719164557816       -2.72359449036160       -0.51141942939884
C           43.09291608278073       -3.44729447531001       -0.34657012761621
C           42.13142836328735       -2.53037454784252       -0.07835957468691
C           42.77496262098255       -1.25536405319941       -0.06502474057723
N           44.12051346720246       -1.38543871842656       -0.26006104705118
H           41.05501695934300        2.60217457255240       -0.09437738657010
H           42.94577928252331        4.44075603659073        0.48230886991148
H           46.95868676123163        5.25743234057063        0.08574728865355
H           46.93495391515413        7.61797692551965        0.85396122893617
H           44.72304675226797        8.91966596482725        3.59868755322938
H           43.91446457073364        6.64842088433645        3.73473704644359
H           43.94182097449148        4.29896499240910        2.97658305857953
H           47.97833665364152        3.93207686391605        2.16103861145183
H           49.89203054545786        2.13629926552451        1.52931882129636
H           49.89305566361209       -2.11703663295778       -1.61789012199578
H           48.00137933909348       -3.96188634142407       -2.17038800669050
H           47.04392861534205       -5.27055521841460       -0.04044357368449
H           47.06463897011950       -7.63260749844111       -0.75789096194228
H           46.23393300757333       -9.42377276886530       -2.14892207865541
H           43.98250342312116       -6.79683247107256       -3.61543499303877
H           43.96726992387344       -4.41928781708320       -2.90203945855207
H           42.99175846389974       -4.51683075031154       -0.43202946675872
H           41.07802844830075       -2.68639838705379        0.08933790215854

          :  Hamiltonian                  GFN1-xTB          :
         :: total energy            -347.779593273093 Eh    ::
         :: gradient norm              0.000993290773 Eh/a0 ::
         :: HOMO-LUMO gap              0.004589749922 eV    ::
         :: SCC energy              -353.321634211917 Eh    ::
         :: repulsion energy           5.712708892886 Eh    ::

    * Orbital Energies and Occupations

         #    Occupation            Energy/Eh            Energy/eV
      -------------------------------------------------------------
         1        2.0000           -0.7949461             -21.6316
       ...           ...                  ...                  ...
       306        2.0000           -0.4090170             -11.1299
       307        2.0000           -0.4088238             -11.1247
       308        2.0000           -0.4087172             -11.1218
       309        1.9998           -0.4058285             -11.0432
       310        1.9998           -0.4056794             -11.0391
       311        1.9998           -0.4054455             -11.0327
       312        1.9997           -0.4053786             -11.0309
       313        1.9997           -0.4053361             -11.0298
       314        1.9997           -0.4052599             -11.0277
       315        1.9987           -0.4038435             -10.9891
       316        1.7468           -0.3986445             -10.8477
       317        1.1218           -0.3969364             -10.8012
       318        1.1074           -0.3969061             -10.8004 (HOMO)
       319        1.0267           -0.3967375             -10.7958 (LUMO)
       320                         -0.3568567              -9.7106
       321                         -0.3473017              -9.4506
       322                         -0.3472189              -9.4483
       323                         -0.3444354              -9.3726
       324                         -0.3437543              -9.3540
       325                         -0.3419079              -9.3038
       326                         -0.3321503              -9.0383
       327                         -0.3293456              -8.9620
       328                         -0.3288415              -8.9482
       329                         -0.3251808              -8.8486
       ...                                ...                  ...
       667                          1.5632914              42.5393
      -------------------------------------------------------------
                  HL-Gap            0.0001687 Eh            0.0046 eV

Wiberg/Mayer (AO) data.
largest (>0.10) Wiberg bond orders for each atom

     #   Z sym  total        # sym  WBO       # sym  WBO       # sym  WBO
 ---------------------------------------------------------------------------
     1  27 Co   3.023 --    41 N    0.637     7 N    0.637    20 N    0.632
                            27 N    0.631
     2   6 C    3.928 --     3 C    1.366    40 C    1.365    42 H    0.970
     3   6 C    3.923 --     2 C    1.366     7 N    1.200     4 C    1.173
     4   6 C    3.960 --     5 C    1.651     3 C    1.173    43 H    0.975
     5   6 C    3.963 --     4 C    1.651     6 C    1.175    44 H    0.973
     6   6 C    3.919 --     8 C    1.318     7 N    1.214     5 C    1.175
     7   7 N    3.346 --     6 C    1.214     3 C    1.200     1 Co   0.637
     8   6 C    3.931 --    17 C    1.335     6 C    1.318     9 C    1.025
     9   6 C    3.986 --    16 C    1.386    10 C    1.383     8 C    1.025
    10   6 C    3.988 --    11 C    1.469     9 C    1.383    45 H    0.972
                            15 C    0.100
    11   6 C    3.988 --    10 C    1.469    12 C    1.371    46 H    0.968
                            16 C    0.101
    12   6 C    3.985 --    15 C    1.379    11 C    1.371    13 C    1.048
    13   6 C    3.864 --    14 O    1.809    12 C    1.048    47 H    0.942
    14   8 O    2.005 --    13 C    1.809
    15   6 C    3.993 --    16 C    1.464    12 C    1.379    48 H    0.971
                            10 C    0.100
    16   6 C    3.988 --    15 C    1.464     9 C    1.386    49 H    0.972
                            11 C    0.101
    17   6 C    3.915 --     8 C    1.335    20 N    1.192    18 C    1.179
    18   6 C    3.957 --    19 C    1.640    17 C    1.179    50 H    0.973
    19   6 C    3.962 --    18 C    1.640    21 C    1.188    51 H    0.973
    20   7 N    3.347 --    21 C    1.233    17 C    1.192     1 Co   0.632
    21   6 C    3.901 --    22 C    1.257    20 N    1.233    19 C    1.188
    22   6 C    3.933 --    23 C    1.259    21 C    1.257   124 C    1.195
    23   6 C    3.901 --    22 C    1.259    27 N    1.231    24 C    1.189
    24   6 C    3.961 --    25 C    1.638    23 C    1.189    52 H    0.973
    25   6 C    3.958 --    24 C    1.638    26 C    1.181    53 H    0.973
    26   6 C    3.916 --    28 C    1.330    27 N    1.195    25 C    1.181
    27   7 N    3.347 --    23 C    1.231    26 C    1.195     1 Co   0.631
    28   6 C    3.931 --    26 C    1.330    37 C    1.316    29 C    1.034
    29   6 C    3.986 --    30 C    1.382    36 C    1.380    28 C    1.034
    30   6 C    3.987 --    31 C    1.466    29 C    1.382    54 H    0.972
                            35 C    0.101
    31   6 C    3.993 --    30 C    1.466    32 C    1.378    55 H    0.971
    32   6 C    3.983 --    31 C    1.378    35 C    1.370    33 C    1.048
    33   6 C    3.864 --    34 O    1.809    32 C    1.048    56 H    0.942
    34   8 O    2.004 --    33 C    1.809
    35   6 C    3.988 --    36 C    1.471    32 C    1.370    57 H    0.968
                            30 C    0.101
    36   6 C    3.987 --    35 C    1.471    29 C    1.380    58 H    0.972
    37   6 C    3.919 --    28 C    1.316    41 N    1.214    38 C    1.176
    38   6 C    3.963 --    39 C    1.649    37 C    1.176    59 H    0.973
    39   6 C    3.959 --    38 C    1.649    40 C    1.174    60 H    0.975
    40   6 C    3.923 --     2 C    1.365    41 N    1.200    39 C    1.174
    41   7 N    3.346 --    37 C    1.214    40 C    1.200     1 Co   0.637
    42   1 H    1.000 --     2 C    0.970
    43   1 H    0.997 --     4 C    0.975
    44   1 H    1.004 --     5 C    0.973
    45   1 H    1.003 --    10 C    0.972
    46   1 H    1.005 --    11 C    0.968
    47   1 H    1.010 --    13 C    0.942
    48   1 H    1.000 --    15 C    0.971
    49   1 H    1.003 --    16 C    0.972
    50   1 H    1.003 --    18 C    0.973
    51   1 H    1.001 --    19 C    0.973
    52   1 H    1.001 --    24 C    0.973
    53   1 H    1.003 --    25 C    0.973
    54   1 H    1.004 --    30 C    0.972
    55   1 H    1.000 --    31 C    0.971
    56   1 H    1.010 --    33 C    0.942
    57   1 H    1.005 --    35 C    0.968
    58   1 H    1.004 --    36 C    0.972
    59   1 H    1.003 --    38 C    0.973
    60   1 H    0.997 --    39 C    0.975
    61  27 Co   3.021 --   101 N    0.637    67 N    0.637    80 N    0.633
                            87 N    0.633
    62   6 C    3.931 --    63 C    1.367   100 C    1.365   102 H    0.970
    63   6 C    3.923 --    62 C    1.367    67 N    1.200    64 C    1.173
    64   6 C    3.960 --    65 C    1.651    63 C    1.173   103 H    0.975
    65   6 C    3.963 --    64 C    1.651    66 C    1.175   104 H    0.972
    66   6 C    3.919 --    68 C    1.319    67 N    1.213    65 C    1.175
    67   7 N    3.348 --    66 C    1.213    63 C    1.200    61 Co   0.637
    68   6 C    3.933 --    77 C    1.334    66 C    1.319    69 C    1.025
    69   6 C    3.986 --    76 C    1.386    70 C    1.383    68 C    1.025
    70   6 C    3.988 --    71 C    1.470    69 C    1.383   105 H    0.972
                            75 C    0.100
    71   6 C    3.988 --    70 C    1.470    72 C    1.371   106 H    0.968
                            76 C    0.101
    72   6 C    3.985 --    75 C    1.379    71 C    1.371    73 C    1.049
    73   6 C    3.864 --    74 O    1.809    72 C    1.049   107 H    0.942
    74   8 O    2.005 --    73 C    1.809
    75   6 C    3.993 --    76 C    1.464    72 C    1.379   108 H    0.971
                            70 C    0.100
    76   6 C    3.988 --    75 C    1.464    69 C    1.386   109 H    0.972
                            71 C    0.101
    77   6 C    3.915 --    68 C    1.334    80 N    1.193    78 C    1.179
    78   6 C    3.958 --    79 C    1.640    77 C    1.179   110 H    0.972
    79   6 C    3.961 --    78 C    1.640    81 C    1.188   111 H    0.973
    80   7 N    3.349 --    81 C    1.231    77 C    1.193    61 Co   0.633
    81   6 C    3.902 --    82 C    1.260    80 N    1.231    79 C    1.188
    82   6 C    3.937 --    83 C    1.262    81 C    1.260   132 C    1.188
    83   6 C    3.902 --    82 C    1.262    87 N    1.228    84 C    1.189
    84   6 C    3.961 --    85 C    1.638    83 C    1.189   112 H    0.973
    85   6 C    3.958 --    84 C    1.638    86 C    1.181   113 H    0.973
    86   6 C    3.916 --    88 C    1.329    87 N    1.196    85 C    1.181
    87   7 N    3.349 --    83 C    1.228    86 C    1.196    61 Co   0.633
    88   6 C    3.933 --    86 C    1.329    97 C    1.318    89 C    1.034
    89   6 C    3.986 --    90 C    1.383    96 C    1.380    88 C    1.034
    90   6 C    3.987 --    91 C    1.465    89 C    1.383   114 H    0.972
                            95 C    0.101
    91   6 C    3.993 --    90 C    1.465    92 C    1.379   115 H    0.971
    92   6 C    3.983 --    91 C    1.379    95 C    1.370    93 C    1.048
    93   6 C    3.864 --    94 O    1.809    92 C    1.048   116 H    0.942
    94   8 O    2.004 --    93 C    1.809
    95   6 C    3.988 --    96 C    1.471    92 C    1.370   117 H    0.968
                            90 C    0.101
    96   6 C    3.987 --    95 C    1.471    89 C    1.380   118 H    0.972
    97   6 C    3.920 --    88 C    1.318   101 N    1.213    98 C    1.175
    98   6 C    3.963 --    99 C    1.649    97 C    1.175   119 H    0.973
    99   6 C    3.959 --    98 C    1.649   100 C    1.174   120 H    0.975
   100   6 C    3.923 --    62 C    1.365   101 N    1.201    99 C    1.174
   101   7 N    3.347 --    97 C    1.213   100 C    1.201    61 Co   0.637
   102   1 H    1.000 --    62 C    0.970
   103   1 H    0.997 --    64 C    0.975
   104   1 H    1.004 --    65 C    0.972
   105   1 H    1.003 --    70 C    0.972
   106   1 H    1.005 --    71 C    0.968
   107   1 H    1.010 --    73 C    0.942
   108   1 H    1.000 --    75 C    0.971
   109   1 H    1.003 --    76 C    0.972
   110   1 H    1.003 --    78 C    0.972
   111   1 H    1.001 --    79 C    0.973
   112   1 H    1.001 --    84 C    0.973
   113   1 H    1.003 --    85 C    0.973
   114   1 H    1.004 --    90 C    0.972
   115   1 H    1.000 --    91 C    0.971
   116   1 H    1.010 --    93 C    0.942
   117   1 H    1.005 --    95 C    0.968
   118   1 H    1.004 --    96 C    0.972
   119   1 H    1.003 --    98 C    0.973
   120   1 H    0.997 --    99 C    0.975
   121   6 C    3.920 --   122 C    2.352   125 C    1.346   124 C    0.188
   122   6 C    3.917 --   121 C    2.352   123 C    1.344   126 C    0.188
   123   6 C    3.930 --   124 C    2.437   122 C    1.344
   124   6 C    3.881 --   123 C    2.437    22 C    1.195   121 C    0.188
   125   6 C    3.925 --   126 C    2.432   121 C    1.346
   126   6 C    3.884 --   125 C    2.432   134 C    1.201   122 C    0.188
   127   6 C    3.917 --   128 C    2.359   131 C    1.338   130 C    0.188
   128   6 C    3.921 --   127 C    2.359   129 C    1.340   132 C    0.188
   129   6 C    3.925 --   130 C    2.439   128 C    1.340
   130   6 C    3.885 --   129 C    2.439   154 C    1.196   127 C    0.188
   131   6 C    3.932 --   132 C    2.445   127 C    1.338
   132   6 C    3.882 --   131 C    2.445    82 C    1.188   128 C    0.188
   133  27 Co   3.035 --   152 N    0.631   173 N    0.630   159 N    0.626
                           139 N    0.626
   134   6 C    3.921 --   172 C    1.253   135 C    1.252   126 C    1.201
   135   6 C    3.903 --   134 C    1.252   139 N    1.233   136 C    1.193
   136   6 C    3.960 --   137 C    1.632   135 C    1.193   174 H    0.973
   137   6 C    3.959 --   136 C    1.632   138 C    1.185   175 H    0.973
   138   6 C    3.914 --   140 C    1.320   139 N    1.197   137 C    1.185
   139   7 N    3.339 --   135 C    1.233   138 C    1.197   133 Co   0.626
   140   6 C    3.925 --   149 C    1.322   138 C    1.320   141 C    1.035
   141   6 C    3.986 --   148 C    1.382   142 C    1.379   140 C    1.035
   142   6 C    3.986 --   143 C    1.470   141 C    1.379   176 H    0.971
                           147 C    0.100
   143   6 C    3.988 --   142 C    1.470   144 C    1.371   177 H    0.967
                           148 C    0.101
   144   6 C    3.983 --   147 C    1.379   143 C    1.371   145 C    1.047
   145   6 C    3.864 --   146 O    1.811   144 C    1.047   178 H    0.942
   146   8 O    2.006 --   145 C    1.811
   147   6 C    3.993 --   148 C    1.465   144 C    1.379   179 H    0.971
                           142 C    0.100
   148   6 C    3.985 --   147 C    1.465   141 C    1.382   180 H    0.972
                           143 C    0.101
   149   6 C    3.914 --   140 C    1.322   152 N    1.197   150 C    1.183
   150   6 C    3.959 --   151 C    1.635   149 C    1.183   181 H    0.973
   151   6 C    3.959 --   150 C    1.635   153 C    1.191   182 H    0.973
   152   7 N    3.339 --   153 C    1.232   149 C    1.197   133 Co   0.631
   153   6 C    3.903 --   154 C    1.256   152 N    1.232   151 C    1.191
   154   6 C    3.921 --   153 C    1.256   155 C    1.254   130 C    1.196
   155   6 C    3.903 --   154 C    1.254   159 N    1.231   156 C    1.193
   156   6 C    3.960 --   157 C    1.632   155 C    1.193   183 H    0.973
   157   6 C    3.959 --   156 C    1.632   158 C    1.185   184 H    0.973
   158   6 C    3.914 --   160 C    1.318   159 N    1.199   157 C    1.185
   159   7 N    3.339 --   155 C    1.231   158 C    1.199   133 Co   0.626
   160   6 C    3.925 --   169 C    1.324   158 C    1.318   161 C    1.036
   161   6 C    3.986 --   162 C    1.382   168 C    1.379   160 C    1.036
   162   6 C    3.985 --   163 C    1.465   161 C    1.382   185 H    0.971
                           167 C    0.101
   163   6 C    3.993 --   162 C    1.465   164 C    1.379   186 H    0.971
   164   6 C    3.983 --   163 C    1.379   167 C    1.370   165 C    1.047
   165   6 C    3.864 --   166 O    1.811   164 C    1.047   187 H    0.942
   166   8 O    2.005 --   165 C    1.811
   167   6 C    3.988 --   168 C    1.471   164 C    1.370   188 H    0.967
                           162 C    0.101
   168   6 C    3.986 --   167 C    1.471   161 C    1.379   189 H    0.971
   169   6 C    3.914 --   160 C    1.324   173 N    1.195   170 C    1.183
   170   6 C    3.959 --   171 C    1.634   169 C    1.183   190 H    0.973
   171   6 C    3.959 --   170 C    1.634   172 C    1.191   191 H    0.973
   172   6 C    3.902 --   134 C    1.253   173 N    1.234   171 C    1.191
   173   7 N    3.338 --   172 C    1.234   169 C    1.195   133 Co   0.630
   174   1 H    1.001 --   136 C    0.973
   175   1 H    1.003 --   137 C    0.973
   176   1 H    1.004 --   142 C    0.971
   177   1 H    1.004 --   143 C    0.967
   178   1 H    1.010 --   145 C    0.942
   179   1 H    1.000 --   147 C    0.971
   180   1 H    1.004 --   148 C    0.972
   181   1 H    1.003 --   150 C    0.973
   182   1 H    1.001 --   151 C    0.973
   183   1 H    1.001 --   156 C    0.973
   184   1 H    1.003 --   157 C    0.973
   185   1 H    1.004 --   162 C    0.971
   186   1 H    1.000 --   163 C    0.971
   187   1 H    1.010 --   165 C    0.942
   188   1 H    1.004 --   167 C    0.967
   189   1 H    1.004 --   168 C    0.971
   190   1 H    1.003 --   170 C    0.973
   191   1 H    1.001 --   171 C    0.973
 ---------------------------------------------------------------------------

           -------------------------------------------------
          | TOTAL ENERGY             -347.779593273093 Eh   |
          | GRADIENT NORM               0.000993290773 Eh/α |
          | HOMO-LUMO GAP               0.004589749922 eV   |
           -------------------------------------------------

 * finished run on 2022/07/29 at 22:45:26.578
