   * xtb version 6.5.1 (b24c23e) compiled by 'conda@728c89f4b128' on 2022-07-12
          program call               : xtb Co_Ph2OMe_C2_3.xyz --gfn 1 --opt -T 48

   ID    Z sym.   atoms
    1   27 Co     1, 73, 149
    2    6 C      2-6, 8-11, 13-21, 23-27, 29-33, 36, 37, 39-43, 45, 74-78,
                  80-83, 85-93, 95-99, 101-105, 108, 109, 111-115, 117,
                  145-148, 150-154, 156-159, 161-169, 171-175, 177-181, 184,
                  185, 187-191, 193
    3    7 N      7, 12, 34, 35, 79, 84, 106, 107, 155, 160, 182, 183
    4    8 O      22, 28, 38, 44, 94, 100, 110, 116, 170, 176, 186, 192
    5    1 H      46-72, 118-144, 194-219
########################################################################
[WARNING] Please study the warnings concerning your input carefully
-1- prog_main_parseArguments: Unknown option '-T' provided
########################################################################

          :  Hamiltonian                  GFN1-xTB          :
 * total energy  :  -384.2968738 Eh     change       -0.7332005E-08 Eh
 * total energy  :  -384.8303524 Eh     change       -0.5334785E+00 Eh
 * total energy  :  -384.9801020 Eh     change       -0.1497496E+00 Eh
 * total energy  :  -385.0589155 Eh     change       -0.7881352E-01 Eh
 * total energy  :  -385.0908525 Eh     change       -0.3193705E-01 Eh
 * total energy  :  -385.1079640 Eh     change       -0.1711147E-01 Eh
 * total energy  :  -385.1162464 Eh     change       -0.8282384E-02 Eh
 * total energy  :  -385.1202553 Eh     change       -0.4008919E-02 Eh
 * total energy  :  -385.1221215 Eh     change       -0.1866164E-02 Eh
 * total energy  :  -385.1231903 Eh     change       -0.1068845E-02 Eh
 * total energy  :  -385.1341504 Eh     change       -0.1219978E-04 Eh
 * total energy  :  -385.1341671 Eh     change       -0.1673904E-04 Eh
 * total energy  :  -385.1341909 Eh     change       -0.2380372E-04 Eh
 * total energy  :  -385.1342216 Eh     change       -0.3063305E-04 Eh
 * total energy  :  -385.1342541 Eh     change       -0.3248672E-04 Eh
 * total energy  :  -385.1342628 Eh     change       -0.8737198E-05 Eh
 * total energy  :  -385.1342757 Eh     change       -0.1288049E-04 Eh
 * total energy  :  -385.1342808 Eh     change       -0.5090507E-05 Eh
 * total energy  :  -385.1342854 Eh     change       -0.4668529E-05 Eh
   *** GEOMETRY OPTIMIZATION CONVERGED AFTER 263 ITERATIONS ***

 final structure:
================
219
 xtb: 6.5.1 (b24c23e)
Co          33.92713194431658        0.70230555361990       -0.31297433988260
C           30.95519020407117        2.03914118983802       -1.07519473606984
C           31.44855759746075        2.24048931589147        0.19830105416057
C           30.72751361989819        2.91896514753366        1.23270557547409
C           31.43781918612580        2.75379929296549        2.37394643142735
C           32.62839788625342        2.03740975865067        2.02262010468902
N           32.61056119383279        1.70708479958160        0.69233589067739
C           33.69623085742229        1.81901772248107        2.88304203578113
C           34.91988254292714        1.35950478427364        2.42008465798419
C           36.13199654312019        1.42468397565127        3.17949942761508
C           37.13941776423192        1.08672991023402        2.33822276428481
N           35.18309041393119        0.93347429197005        1.14018628286994
C           36.53494546589165        0.75381752937256        1.08667214035582
C           37.23630377576807        0.19452188971075        0.01349118147833
C           36.56877519732583       -0.40498422745464       -1.06134261814028
C           37.20266922450770       -1.30451106644923       -1.97432270572896
C           36.22107771678461       -1.83533810763027       -2.74298531563862
C           34.99872816972717       -1.20307651530459       -2.34787393678955
C           33.79711344970571       -1.33031051796801       -3.02536199806563
C           33.67731827345372       -2.30438031648769       -4.14394645895882
C           34.36487232290350       -2.11156657074012       -5.34935382020461
O           35.13248866325029       -0.99224853241059       -5.42489772199106
C           35.87540959511168       -0.70947081507571       -6.59320741148620
C           34.23166098263606       -3.02938319050255       -6.39088964471916
C           33.41137934333229       -4.13482269373218       -6.22345944976319
C           32.71664321215369       -4.34336985789320       -5.04168380019574
C           32.84607059994719       -3.42355229768483       -4.00146357380976
O           32.21028042507668       -3.54059126026839       -2.80660780613499
C           31.34158035999203       -4.62777209608180       -2.56105892306520
C           32.72324374041553       -0.48726101937799       -2.76468705855176
C           31.58949037214604       -0.34862239408744       -3.63037187491362
C           30.85214610330530        0.68136121250468       -3.15001935759551
C           31.50429378209584        1.13113125221613       -1.95722009411439
N           32.65687092054403        0.41964755767387       -1.74195519396339
N           35.22561547469424       -0.35141184474209       -1.29006086037744
C           33.58092784049377        2.19808319574503        4.31732960000574
C           33.57791828864663        1.19926756216547        5.30039043890297
O           33.66145621134510       -0.07828735618044        4.84655262802703
C           33.70479796448321       -1.16004849561881        5.75475776727034
C           33.48239658448403        1.53784205837608        6.64989240645350
C           33.40062200826016        2.87407399022085        7.01111740015696
C           33.41367651334442        3.87996544504077        6.05665382655349
C           33.50526267946827        3.54168765269996        4.70688956023481
O           33.54307162101402        4.45631945454230        3.70154258359075
C           33.49340505160566        5.83909950166043        3.98788344404471
H           30.02659165241117        2.52631729362537       -1.34974148921857
H           29.78293426138356        3.42046826475431        1.09152160213212
H           31.20214335117872        3.10689998285892        3.36454338333300
H           36.19482489230958        1.72744527010918        4.21235949770438
H           38.19704211670604        1.03630193596629        2.54124107105732
H           38.25830169031789       -1.52393850122071       -1.98615173817605
H           36.31077569779850       -2.56567509602398       -3.53029304285032
H           35.22095803594692       -0.57435596080680       -7.46285294022293
H           36.40718434621930        0.22324018625897       -6.39632416885960
H           36.60410993940064       -1.50078233907321       -6.80747949394380
H           34.75669125921463       -2.88873379161944       -7.32623372089093
H           33.30936505061572       -4.84877907463548       -7.03341090322298
H           32.08227225355246       -5.21368932615996       -4.93944381273178
H           30.95541622118341       -4.48574104502362       -1.54998445190479
H           30.50320572730597       -4.63975704547745       -3.26825717644427
H           31.87242077667468       -5.58626878844802       -2.61230575269289
H           31.41146348642982       -0.94931957735587       -4.50804501908529
H           29.93244987839429        1.09199134936688       -3.53628829541115
H           33.79777116565194       -2.06249287705997        5.14780246200686
H           32.78704545097489       -1.22099270787945        6.35228328759763
H           34.56951838960295       -1.08641100571551        6.42545916500845
H           33.47266313544235        0.77399399561399        7.41586829639255
H           33.32790655880160        3.13792896388478        8.06052801213616
H           33.35532259942892        4.91442418215801        6.36775866646703
H           34.34373284990068        6.15207496253765        4.60592719941971
H           33.54298974522396        6.35047748635351        3.02472197042222
H           32.55864374067227        6.11237138230339        4.49247959264733
Co          55.33308542011439       -0.21659131125561        0.09081487673794
C           58.32617917740247       -1.44573178371056        0.87623488174709
C           57.77461149727813       -1.81165137113918       -0.33592995316042
C           58.44412000858787       -2.62307165106381       -1.30778977829756
C           57.70481299196747       -2.56164629215377       -2.44168930919941
C           56.54553577013358       -1.77504316736928       -2.14049649113993
N           56.60958319521103       -1.30890901237392       -0.85432987907954
C           55.46256264538116       -1.60083597732483       -2.99397092351640
C           54.25503102786178       -1.09764357265116       -2.53432129557917
C           53.01482516808645       -1.22685411790666       -3.23757246733100
C           52.03389810010787       -0.87777120862093       -2.36813121884550
N           54.03199460552223       -0.60012057694399       -1.27255885933671
C           52.68027437544788       -0.46681959447769       -1.16187444569273
C           52.01324695977153        0.13424713684683       -0.08437134931045
C           52.71807024493470        0.89099516029922        0.86228234222228
C           52.10806381006338        1.85599567021175        1.72133955985429
C           53.11552406774884        2.52769174588874        2.33239966164011
C           54.33795802172082        1.92120038770366        1.90009577221884
C           55.57436322601066        2.17111818175986        2.47719843938861
C           55.69585530155349        3.31087295128867        3.42552047050228
C           55.68087292889055        4.62269692326060        2.93261983923711
O           55.57151425226688        4.74687805135402        1.58447722046277
C           55.52071475290897        6.02536072495909        0.98448633340659
C           55.78597475516082        5.70531364370167        3.80532864856679
C           55.89442524897670        5.47155689575510        5.16776840789793
C           55.89834635947008        4.18259996685960        5.67913698033098
C           55.79780291647717        3.09950635526141        4.80649175612418
O           55.77629341497904        1.80244569438889        5.21392742535508
C           55.84377250597174        1.48272584830527        6.58873054316954
C           56.64996364006809        1.31290885510722        2.28220823838346
C           57.85084532887051        1.31773741379281        3.06434341898051
C           58.56100690094701        0.22224130742672        2.70191932373884
C           57.83128352713451       -0.40958461011381        1.64402907884313
N           56.66333574141346        0.26460790803895        1.40015178944240
N           54.07565448077290        0.93522092742723        0.97976534183926
C           55.54139172945498       -2.08461502535837       -4.39892947434231
C           55.54154588918798       -3.45370393271663       -4.69430106614951
O           55.46917350098867       -4.29223338460189       -3.62684128646701
C           55.43566487941015       -5.69223764555860       -3.81673927566787
C           55.60083735848687       -3.88795652023141       -6.01821844929714
C           55.65972607904595       -2.95163178492796       -7.03944038151850
C           55.65633322144844       -1.59121892733384       -6.77080009715336
C           55.59211258018323       -1.15658001628205       -5.44721440865498
O           55.58383479585518        0.15127645567561       -5.07998752302676
C           55.64355602629048        1.17035781866010       -6.05702717648986
H           59.26432289836616       -1.90132998923190        1.17208153459161
H           59.37903395950224       -3.13402194533074       -1.13887058420341
H           57.90041132379054       -3.02872898451597       -3.39315624091771
H           52.91695802665974       -1.58060404287997       -4.25140032681787
H           50.96850507365448       -0.85616150628664       -2.53167215361587
H           51.04561540432370        2.01843534546315        1.80449912058880
H           53.04751077565965        3.33550345677918        3.04320686445873
H           56.44160884152929        6.59240669842390        1.16732009564257
H           55.41282032765645        5.85329800754995       -0.08800553345369
H           54.66138117637374        6.60390899318656        1.34471369273664
H           55.78272865364092        6.72147713155163        3.43434681325170
H           55.97496170275527        6.31310609009776        5.84705765650898
H           55.97731536026058        4.03049416057044        6.74725146419827
H           55.79882085038957        0.39376850140352        6.64984936016428
H           56.78272322182601        1.82973974606265        7.03702446169322
H           54.99850140503362        1.90967952180144        7.14205105427938
H           58.09284765850234        2.05208392978597        3.81514467076962
H           59.51175010830363       -0.12050751497078        3.07911556626425
H           55.36932717144962       -6.13232321227607       -2.82001232980533
H           56.34655221562840       -6.05329365640641       -4.30964286757583
H           54.56078628144472       -5.99671695778093       -4.40389629990061
H           55.59978828496119       -4.94282331796396       -6.25802332665442
H           55.70731845064078       -3.29018207114978       -8.06865949200417
H           55.70119485602356       -0.88328401572309       -7.58757813515743
H           54.78220540312121        1.12849019538949       -6.73486016407935
H           55.62443467254623        2.11558832273233       -5.51141737650966
H           56.56881875015999        1.11149392759448       -6.64311387847980
C           38.63570656792189        0.10201415222617        0.07779062420397
C           39.85040468836210        0.01999982073463        0.11227612478142
C           49.40255427910495       -0.02596050859566        0.04853721013317
C           50.61456997425510        0.08230929874543       -0.02816031786609
Co          44.62719939662946       -0.28797114899465        0.19956314913270
C           41.24876038610930       -0.09637012005373        0.14690180939134
C           41.90896819867928       -0.04881153194658        1.37997995919763
C           41.24138282562644        0.00125739727876        2.64192122026363
C           42.20311294189073        0.15051325195888        3.58548479861449
C           43.45234934850872        0.22439059905335        2.89126292092300
N           43.26141086862575        0.02422654947158        1.54251133395593
C           44.64476782750950        0.63566158172020        3.46615487350904
C           45.81243358582157        0.75865462649154        2.72525718118464
C           47.02596538698787        1.33369317674429        3.21689456552921
C           47.96070839610830        1.15833891596075        2.25040584393728
N           45.99401613652822        0.27133587736932        1.45419909397852
C           47.31980454444638        0.45905026811947        1.18220675905987
C           48.00829028593931       -0.14511570067858        0.12425037050009
C           47.34028768659435       -0.92191123480065       -0.83232382580880
C           48.00019316136626       -1.72208323313130       -1.81461097267295
C           47.03599560550919       -2.20213119599228       -2.63779096427045
C           45.79371617921936       -1.66409574113059       -2.17372947108882
C           44.61095600631280       -1.68480906195252       -2.89549034504983
C           44.58610221092560       -2.31046755974847       -4.24341260979259
C           43.78267370821724       -3.43447422559477       -4.48360798751171
O           43.08125128254295       -3.90149372182418       -3.41860901694035
C           42.20480616673468       -5.00090486186920       -3.56110239043894
C           43.74646408681675       -4.01858042328293       -5.74933999222230
C           44.50684423911520       -3.47298409709395       -6.77247964457130
C           45.30400620101823       -2.35838397882422       -6.56074269895632
C           45.34511361764367       -1.77599612201591       -5.29434575177116
O           46.08050626702232       -0.67286984971540       -4.99785435641767
C           46.90346944976611       -0.07206460641257       -5.97701173094716
C           43.44951015329989       -1.09139426745044       -2.41644737295510
C           42.24399885523866       -0.94289357461192       -3.17152331094878
C           41.30675627114552       -0.45663308535485       -2.32037934244773
C           41.94037033863050       -0.32593216465623       -1.04651025697747
N           43.26434938408148       -0.65528344035094       -1.12799511807878
N           45.98952147240570       -0.94650068689696       -1.01390294197515
C           44.67322001373076        1.00514263220138        4.90575631378847
C           45.42981890672382        0.24577877339415        5.80953318984039
O           46.08656777232535       -0.82026585161693        5.28398671214275
C           46.89946473000552       -1.63813622116968        6.10098250670812
C           45.46550012577997        0.58782489410832        7.16092264332359
C           44.75190670835312        1.69186630282078        7.60208376186617
C           44.00249602708215        2.46199338441537        6.72569169297735
C           43.96151580180123        2.11799560912397        5.37488004107071
O           43.27003670747466        2.81998647262069        4.43970983568257
C           42.49983152285640        3.94562951169972        4.80964124016313
H           40.17424256506477       -0.07595007636497        2.77443682851648
H           42.08713118532690        0.23161894502381        4.65396538271484
H           47.13692309114752        1.80661530337149        4.17928682861134
H           48.99932905622858        1.44634546237485        2.25943443198523
H           49.06385458814900       -1.89302017018359       -1.85256416903729
H           47.14690139272689       -2.83966359776699       -3.49972798432073
H           41.41973795389752       -4.79502988254961       -4.29883218513973
H           41.74609714777816       -5.15166951478961       -2.58214456774711
H           42.74434499075716       -5.91101775552344       -3.85013483653886
H           43.13387281627864       -4.88906169962616       -5.94236702249133
H           44.47627412601557       -3.92552555019728       -7.75758919311544
H           45.88247375913730       -1.95018305435150       -7.37868510884027
H           47.39914891382422        0.76596488403755       -5.48343829248627
H           46.31409763492442        0.30484370128945       -6.82170809752892
H           47.66256838689895       -0.77147149079566       -6.34779409083060
H           42.13876446654903       -1.18531503955981       -4.21666722142692
H           40.27365876665767       -0.22071274804899       -2.51915585431836
H           46.31420251292843       -2.12836197406860        6.88844559044869
H           47.32259113574941       -2.39893475939654        5.44248584824339
H           47.71431567146290       -1.06428904763689        6.55878939827325
H           46.04150436044511        0.00465970613470        7.86687588661401
H           44.78164022350225        1.95916824692250        8.65270773818408
H           43.46008115326669        3.32124620804748        7.09679231484105
H           43.12618785233735        4.73948288402352        5.23438344643278
H           41.71672643559175        3.67751481436228        5.52915927303263
H           42.03395828216788        4.30896298406582        3.89178272370828

          :  Hamiltonian                  GFN1-xTB          :
         :: total energy            -385.134285428848 Eh    ::
         :: gradient norm              0.000502558608 Eh/a0 ::
         :: HOMO-LUMO gap              0.025438079448 eV    ::
         :: SCC energy              -390.370987915047 Eh    ::
         :: repulsion energy           5.435860591407 Eh    ::

    * Orbital Energies and Occupations

         #    Occupation            Energy/Eh            Energy/eV
      -------------------------------------------------------------
         1        2.0000           -0.8057993             -21.9269
       ...           ...                  ...                  ...
       332        2.0000           -0.3779532             -10.2846
       333        2.0000           -0.3738470             -10.1729
       334        2.0000           -0.3720663             -10.1244
       335        2.0000           -0.3711577             -10.0997
       336        2.0000           -0.3710925             -10.0979
       337        1.9999           -0.3708439             -10.0912
       338        1.9999           -0.3707555             -10.0888
       339        1.9999           -0.3703914             -10.0789
       340        1.9999           -0.3701593             -10.0725
       341        1.9989           -0.3680398             -10.0149
       342        1.7895           -0.3629390              -9.8761
       343        1.2533           -0.3612959              -9.8314
       344        1.1979           -0.3611735              -9.8280 (HOMO)
       345        0.7609           -0.3602387              -9.8026 (LUMO)
       346                         -0.3254013              -8.8546
       347                         -0.3137165              -8.5367
       348                         -0.3101156              -8.4387
       349                         -0.3095924              -8.4244
       350                         -0.3088696              -8.4048
       351                         -0.3017549              -8.2112
       352                         -0.2831652              -7.7053
       353                         -0.2746375              -7.4733
       354                         -0.2707763              -7.3682
       355                         -0.2698692              -7.3435
       ...                                ...                  ...
       731                          1.3562311              36.9049
      -------------------------------------------------------------
                  HL-Gap            0.0009348 Eh            0.0254 eV

Wiberg/Mayer (AO) data.
largest (>0.10) Wiberg bond orders for each atom

     #   Z sym  total        # sym  WBO       # sym  WBO       # sym  WBO
 ---------------------------------------------------------------------------
     1  27 Co   3.022 --    34 N    0.632     7 N    0.631    12 N    0.628
                            35 N    0.627
     2   6 C    3.923 --    33 C    1.363     3 C    1.360    46 H    0.971
     3   6 C    3.926 --     2 C    1.360     7 N    1.208     4 C    1.174
     4   6 C    3.960 --     5 C    1.649     3 C    1.174    47 H    0.976
     5   6 C    3.963 --     4 C    1.649     6 C    1.177    48 H    0.974
     6   6 C    3.920 --     8 C    1.321     7 N    1.214     5 C    1.177
     7   7 N    3.344 --     6 C    1.214     3 C    1.208     1 Co   0.631
     8   6 C    3.926 --     9 C    1.335     6 C    1.321    36 C    1.015
     9   6 C    3.918 --     8 C    1.335    12 N    1.196    10 C    1.181
    10   6 C    3.959 --    11 C    1.637     9 C    1.181    49 H    0.975
    11   6 C    3.962 --    10 C    1.637    13 C    1.189    50 H    0.971
    12   7 N    3.346 --    13 C    1.237     9 C    1.196     1 Co   0.628
    13   6 C    3.911 --    14 C    1.257    12 N    1.237    11 C    1.189
    14   6 C    3.927 --    13 C    1.257    15 C    1.252   145 C    1.190
    15   6 C    3.911 --    14 C    1.252    35 N    1.243    16 C    1.187
    16   6 C    3.962 --    17 C    1.639    15 C    1.187    51 H    0.972
    17   6 C    3.959 --    16 C    1.639    18 C    1.180    52 H    0.974
    18   6 C    3.918 --    19 C    1.342    35 N    1.189    17 C    1.180
    19   6 C    3.927 --    18 C    1.342    30 C    1.314    20 C    1.015
    20   6 C    3.977 --    21 C    1.343    27 C    1.342    19 C    1.015
                            25 C    0.101
    21   6 C    3.903 --    24 C    1.362    20 C    1.343    22 O    1.031
    22   8 O    2.146 --    21 C    1.031    23 C    0.935
    23   6 C    3.907 --    54 H    0.983    55 H    0.980    53 H    0.980
                            22 O    0.935
    24   6 C    3.983 --    25 C    1.442    21 C    1.362    56 H    0.969
    25   6 C    3.993 --    26 C    1.442    24 C    1.442    57 H    0.974
                            20 C    0.101
    26   6 C    3.983 --    25 C    1.442    27 C    1.361    58 H    0.969
    27   6 C    3.903 --    26 C    1.361    20 C    1.342    28 O    1.033
    28   8 O    2.146 --    27 C    1.033    29 C    0.936
    29   6 C    3.908 --    59 H    0.983    60 H    0.980    61 H    0.980
                            28 O    0.936
    30   6 C    3.920 --    19 C    1.314    34 N    1.220    31 C    1.178
    31   6 C    3.963 --    32 C    1.647    30 C    1.178    62 H    0.975
    32   6 C    3.960 --    31 C    1.647    33 C    1.174    63 H    0.976
    33   6 C    3.926 --     2 C    1.363    34 N    1.203    32 C    1.174
    34   7 N    3.346 --    30 C    1.220    33 C    1.203     1 Co   0.632
    35   7 N    3.345 --    15 C    1.243    18 C    1.189     1 Co   0.627
    36   6 C    3.977 --    43 C    1.343    37 C    1.342     8 C    1.015
                            41 C    0.101
    37   6 C    3.903 --    40 C    1.361    36 C    1.342    38 O    1.034
    38   8 O    2.147 --    37 C    1.034    39 C    0.935
    39   6 C    3.907 --    64 H    0.983    66 H    0.980    65 H    0.980
                            38 O    0.935
    40   6 C    3.983 --    41 C    1.442    37 C    1.361    67 H    0.969
    41   6 C    3.993 --    40 C    1.442    42 C    1.442    68 H    0.974
                            36 C    0.101
    42   6 C    3.983 --    41 C    1.442    43 C    1.362    69 H    0.969
    43   6 C    3.903 --    42 C    1.362    36 C    1.343    44 O    1.030
    44   8 O    2.146 --    43 C    1.030    45 C    0.936
    45   6 C    3.908 --    71 H    0.983    70 H    0.980    72 H    0.980
                            44 O    0.936
    46   1 H    1.001 --     2 C    0.971
    47   1 H    0.998 --     4 C    0.976
    48   1 H    1.003 --     5 C    0.974
    49   1 H    1.002 --    10 C    0.975
    50   1 H    1.005 --    11 C    0.971
    51   1 H    1.004 --    16 C    0.972
    52   1 H    1.003 --    17 C    0.974
    53   1 H    1.009 --    23 C    0.980
    54   1 H    1.015 --    23 C    0.983
    55   1 H    1.009 --    23 C    0.980
    56   1 H    1.000 --    24 C    0.969
    57   1 H    1.003 --    25 C    0.974
    58   1 H    1.000 --    26 C    0.969
    59   1 H    1.015 --    29 C    0.983
    60   1 H    1.009 --    29 C    0.980
    61   1 H    1.009 --    29 C    0.980
    62   1 H    1.002 --    31 C    0.975
    63   1 H    0.998 --    32 C    0.976
    64   1 H    1.015 --    39 C    0.983
    65   1 H    1.009 --    39 C    0.980
    66   1 H    1.009 --    39 C    0.980
    67   1 H    1.000 --    40 C    0.969
    68   1 H    1.003 --    41 C    0.974
    69   1 H    1.000 --    42 C    0.969
    70   1 H    1.009 --    45 C    0.980
    71   1 H    1.015 --    45 C    0.983
    72   1 H    1.009 --    45 C    0.980
    73  27 Co   3.063 --   106 N    0.633    79 N    0.632   107 N    0.630
                            84 N    0.630
    74   6 C    3.921 --    75 C    1.361   105 C    1.359   118 H    0.971
    75   6 C    3.926 --    74 C    1.361    79 N    1.206    76 C    1.174
    76   6 C    3.960 --    77 C    1.648    75 C    1.174   119 H    0.976
    77   6 C    3.963 --    76 C    1.648    78 C    1.178   120 H    0.974
    78   6 C    3.921 --    80 C    1.316    79 N    1.217    77 C    1.178
    79   7 N    3.344 --    78 C    1.217    75 C    1.206    73 Co   0.632
    80   6 C    3.926 --    81 C    1.338    78 C    1.316   108 C    1.013
    81   6 C    3.917 --    80 C    1.338    84 N    1.191    82 C    1.182
    82   6 C    3.958 --    83 C    1.634    81 C    1.182   121 H    0.975
    83   6 C    3.962 --    82 C    1.634    85 C    1.191   122 H    0.971
    84   7 N    3.347 --    85 C    1.245    81 C    1.191    73 Co   0.630
    85   6 C    3.910 --    84 N    1.245    86 C    1.244    83 C    1.191
    86   6 C    3.924 --    87 C    1.247    85 C    1.244   148 C    1.205
    87   6 C    3.910 --    86 C    1.247   107 N    1.242    88 C    1.191
    88   6 C    3.962 --    89 C    1.634    87 C    1.191   123 H    0.969
    89   6 C    3.959 --    88 C    1.634    90 C    1.182   124 H    0.975
    90   6 C    3.917 --    91 C    1.335   107 N    1.193    89 C    1.182
    91   6 C    3.926 --    90 C    1.335   102 C    1.318    92 C    1.015
    92   6 C    3.977 --    99 C    1.344    93 C    1.342    91 C    1.015
                            97 C    0.101
    93   6 C    3.903 --    96 C    1.361    92 C    1.342    94 O    1.034
    94   8 O    2.147 --    93 C    1.034    95 C    0.935
    95   6 C    3.907 --   126 H    0.983   127 H    0.980   125 H    0.980
                            94 O    0.935
    96   6 C    3.983 --    97 C    1.442    93 C    1.361   128 H    0.969
    97   6 C    3.993 --    96 C    1.442    98 C    1.442   129 H    0.974
                            92 C    0.101
    98   6 C    3.983 --    97 C    1.442    99 C    1.362   130 H    0.969
    99   6 C    3.903 --    98 C    1.362    92 C    1.344   100 O    1.030
   100   8 O    2.146 --    99 C    1.030   101 C    0.935
   101   6 C    3.908 --   131 H    0.983   132 H    0.980   133 H    0.980
                           100 O    0.935
   102   6 C    3.921 --    91 C    1.318   106 N    1.216   103 C    1.177
   103   6 C    3.963 --   104 C    1.648   102 C    1.177   134 H    0.974
   104   6 C    3.960 --   103 C    1.648   105 C    1.174   135 H    0.976
   105   6 C    3.926 --    74 C    1.359   106 N    1.207   104 C    1.174
   106   7 N    3.344 --   102 C    1.216   105 C    1.207    73 Co   0.633
   107   7 N    3.347 --    87 C    1.242    90 C    1.193    73 Co   0.630
   108   6 C    3.977 --   109 C    1.344   115 C    1.343    80 C    1.013
                           113 C    0.101
   109   6 C    3.903 --   112 C    1.361   108 C    1.344   110 O    1.031
   110   8 O    2.146 --   109 C    1.031   111 C    0.935
   111   6 C    3.907 --   136 H    0.983   137 H    0.980   138 H    0.980
                           110 O    0.935
   112   6 C    3.983 --   113 C    1.442   109 C    1.361   139 H    0.969
   113   6 C    3.993 --   114 C    1.443   112 C    1.442   140 H    0.974
                           108 C    0.101
   114   6 C    3.983 --   113 C    1.443   115 C    1.361   141 H    0.969
   115   6 C    3.904 --   114 C    1.361   108 C    1.343   116 O    1.033
   116   8 O    2.146 --   115 C    1.033   117 C    0.936
   117   6 C    3.908 --   143 H    0.983   142 H    0.980   144 H    0.980
                           116 O    0.936
   118   1 H    1.001 --    74 C    0.971
   119   1 H    0.998 --    76 C    0.976
   120   1 H    1.002 --    77 C    0.974
   121   1 H    1.002 --    82 C    0.975
   122   1 H    1.005 --    83 C    0.971
   123   1 H    1.005 --    88 C    0.969
   124   1 H    1.001 --    89 C    0.975
   125   1 H    1.009 --    95 C    0.980
   126   1 H    1.015 --    95 C    0.983
   127   1 H    1.009 --    95 C    0.980
   128   1 H    1.000 --    96 C    0.969
   129   1 H    1.003 --    97 C    0.974
   130   1 H    1.000 --    98 C    0.969
   131   1 H    1.016 --   101 C    0.983
   132   1 H    1.009 --   101 C    0.980
   133   1 H    1.009 --   101 C    0.980
   134   1 H    1.003 --   103 C    0.974
   135   1 H    0.998 --   104 C    0.976
   136   1 H    1.015 --   111 C    0.983
   137   1 H    1.009 --   111 C    0.980
   138   1 H    1.009 --   111 C    0.980
   139   1 H    1.000 --   112 C    0.969
   140   1 H    1.003 --   113 C    0.974
   141   1 H    1.000 --   114 C    0.969
   142   1 H    1.009 --   117 C    0.980
   143   1 H    1.015 --   117 C    0.983
   144   1 H    1.009 --   117 C    0.980
   145   6 C    3.925 --   146 C    2.557    14 C    1.190
   146   6 C    3.928 --   145 C    2.557   150 C    1.191
   147   6 C    3.926 --   148 C    2.543   162 C    1.202
   148   6 C    3.928 --   147 C    2.543    86 C    1.205
   149  27 Co   3.033 --   183 N    0.627   155 N    0.627   182 N    0.624
                           160 N    0.624
   150   6 C    3.915 --   181 C    1.259   151 C    1.251   146 C    1.191
   151   6 C    3.911 --   150 C    1.251   155 N    1.242   152 C    1.192
   152   6 C    3.961 --   153 C    1.635   151 C    1.192   194 H    0.971
   153   6 C    3.959 --   152 C    1.635   154 C    1.183   195 H    0.975
   154   6 C    3.915 --   156 C    1.334   155 N    1.190   153 C    1.183
   155   7 N    3.335 --   151 C    1.242   154 C    1.190   149 Co   0.627
   156   6 C    3.920 --   154 C    1.334   157 C    1.320   184 C    1.020
   157   6 C    3.915 --   156 C    1.320   160 N    1.201   158 C    1.188
   158   6 C    3.960 --   159 C    1.632   157 C    1.188   196 H    0.975
   159   6 C    3.960 --   158 C    1.632   161 C    1.192   197 H    0.969
   160   7 N    3.336 --   161 C    1.233   157 C    1.201   149 Co   0.624
   161   6 C    3.909 --   162 C    1.255   160 N    1.233   159 C    1.192
   162   6 C    3.915 --   161 C    1.255   163 C    1.243   147 C    1.202
   163   6 C    3.909 --   183 N    1.247   162 C    1.243   164 C    1.192
   164   6 C    3.962 --   165 C    1.634   163 C    1.192   198 H    0.971
   165   6 C    3.959 --   164 C    1.634   166 C    1.183   199 H    0.975
   166   6 C    3.916 --   167 C    1.338   183 N    1.185   165 C    1.183
   167   6 C    3.921 --   166 C    1.338   178 C    1.315   168 C    1.021
   168   6 C    3.976 --   175 C    1.340   169 C    1.339   167 C    1.021
   169   6 C    3.903 --   172 C    1.362   168 C    1.339   170 O    1.034
   170   8 O    2.147 --   169 C    1.034   171 C    0.935
   171   6 C    3.907 --   201 H    0.983   200 H    0.980   202 H    0.980
                           170 O    0.935
   172   6 C    3.983 --   173 C    1.442   169 C    1.362   203 H    0.969
   173   6 C    3.991 --   172 C    1.442   174 C    1.442   204 H    0.974
   174   6 C    3.983 --   173 C    1.442   175 C    1.362   205 H    0.969
   175   6 C    3.902 --   174 C    1.362   168 C    1.340   176 O    1.033
   176   8 O    2.147 --   175 C    1.033   177 C    0.935
   177   6 C    3.907 --   206 H    0.983   208 H    0.980   207 H    0.980
                           176 O    0.935
   178   6 C    3.914 --   167 C    1.315   182 N    1.203   179 C    1.188
   179   6 C    3.960 --   180 C    1.631   178 C    1.188   209 H    0.975
   180   6 C    3.960 --   179 C    1.631   181 C    1.192   210 H    0.972
   181   6 C    3.911 --   150 C    1.259   182 N    1.230   180 C    1.192
   182   7 N    3.337 --   181 C    1.230   178 C    1.203   149 Co   0.624
   183   7 N    3.335 --   163 C    1.247   166 C    1.185   149 Co   0.627
   184   6 C    3.976 --   191 C    1.340   185 C    1.339   156 C    1.020
   185   6 C    3.903 --   188 C    1.362   184 C    1.339   186 O    1.035
   186   8 O    2.147 --   185 C    1.035   187 C    0.935
   187   6 C    3.907 --   212 H    0.983   213 H    0.980   211 H    0.980
                           186 O    0.935
   188   6 C    3.983 --   189 C    1.442   185 C    1.362   214 H    0.969
   189   6 C    3.992 --   188 C    1.442   190 C    1.442   215 H    0.974
   190   6 C    3.983 --   189 C    1.442   191 C    1.362   216 H    0.969
   191   6 C    3.903 --   190 C    1.362   184 C    1.340   192 O    1.033
   192   8 O    2.147 --   191 C    1.033   193 C    0.935
   193   6 C    3.907 --   219 H    0.983   218 H    0.980   217 H    0.980
                           192 O    0.935
   194   1 H    1.004 --   152 C    0.971
   195   1 H    1.002 --   153 C    0.975
   196   1 H    1.002 --   158 C    0.975
   197   1 H    1.005 --   159 C    0.969
   198   1 H    1.005 --   164 C    0.971
   199   1 H    1.002 --   165 C    0.975
   200   1 H    1.009 --   171 C    0.980
   201   1 H    1.015 --   171 C    0.983
   202   1 H    1.009 --   171 C    0.980
   203   1 H    1.000 --   172 C    0.969
   204   1 H    1.003 --   173 C    0.974
   205   1 H    1.000 --   174 C    0.969
   206   1 H    1.015 --   177 C    0.983
   207   1 H    1.009 --   177 C    0.980
   208   1 H    1.009 --   177 C    0.980
   209   1 H    1.002 --   179 C    0.975
   210   1 H    1.004 --   180 C    0.972
   211   1 H    1.009 --   187 C    0.980
   212   1 H    1.015 --   187 C    0.983
   213   1 H    1.009 --   187 C    0.980
   214   1 H    1.000 --   188 C    0.969
   215   1 H    1.003 --   189 C    0.974
   216   1 H    1.000 --   190 C    0.969
   217   1 H    1.009 --   193 C    0.980
   218   1 H    1.009 --   193 C    0.980
   219   1 H    1.015 --   193 C    0.983
 ---------------------------------------------------------------------------

           -------------------------------------------------
          | TOTAL ENERGY             -385.134285428848 Eh   |
          | GRADIENT NORM               0.000502558608 Eh/α |
          | HOMO-LUMO GAP               0.025438079448 eV   |
           -------------------------------------------------

 * finished run on 2022/07/30 at 01:46:09.013
