   * xtb version 6.5.1 (b24c23e) compiled by 'conda@728c89f4b128' on 2022-07-12
          program call               : xtb Fe_Ph3Me_C2_3.xyz --gfn 1 --opt -T 48

   ID    Z sym.   atoms
    1   26 Fe     1, 75, 153
    2    6 C      2-6, 8-20, 22-27, 29-42, 76-80, 82-94, 96-101, 103-116,
                  149-152, 154-158, 160-172, 174-179, 181-194
    3    7 N      7, 21, 28, 43, 81, 95, 102, 117, 159, 173, 180, 195
    4    1 H      44-74, 118-148, 196-225
########################################################################
[WARNING] Please study the warnings concerning your input carefully
-1- prog_main_parseArguments: Unknown option '-T' provided
########################################################################

          :  Hamiltonian                  GFN1-xTB          :
 * total energy  :  -346.0410823 Eh     change        0.5367156E-09 Eh
 * total energy  :  -346.2391586 Eh     change       -0.1980763E+00 Eh
 * total energy  :  -346.3530988 Eh     change       -0.1139401E+00 Eh
 * total energy  :  -346.3972205 Eh     change       -0.4412170E-01 Eh
 * total energy  :  -346.4165849 Eh     change       -0.1936442E-01 Eh
 * total energy  :  -346.4309804 Eh     change       -0.1439554E-01 Eh
 * total energy  :  -346.4409343 Eh     change       -0.9953855E-02 Eh
 * total energy  :  -346.4493024 Eh     change       -0.8368079E-02 Eh
 * total energy  :  -346.4558168 Eh     change       -0.6514396E-02 Eh
 * total energy  :  -346.4606668 Eh     change       -0.4850089E-02 Eh
 * total energy  :  -346.4843624 Eh     change       -0.8353777E-05 Eh
 * total energy  :  -346.4843710 Eh     change       -0.8612253E-05 Eh
 * total energy  :  -346.4843791 Eh     change       -0.8055836E-05 Eh
 * total energy  :  -346.4843864 Eh     change       -0.7280631E-05 Eh
 * total energy  :  -346.4843931 Eh     change       -0.6761750E-05 Eh
 * total energy  :  -346.4844002 Eh     change       -0.7083044E-05 Eh
 * total energy  :  -346.4844080 Eh     change       -0.7781642E-05 Eh
 * total energy  :  -346.4844172 Eh     change       -0.9148941E-05 Eh
 * total energy  :  -346.4844196 Eh     change       -0.2442077E-05 Eh
   *** GEOMETRY OPTIMIZATION CONVERGED AFTER 122 ITERATIONS ***

 final structure:
================
225
 xtb: 6.5.1 (b24c23e)
Fe          35.58083232090255        0.08767302340504       -0.04075423166429
C           32.18855676688796        0.17066192799682       -0.13239804089671
C           32.85323558176703        1.30672470778568        0.28304147493221
C           32.19689371270873        2.52163801008180        0.66439848778388
C           33.15998696027207        3.35595019069931        1.12322114998019
C           34.40333318832239        2.64855236204951        1.01997961694443
N           34.20596836313788        1.40842701077452        0.47688743990831
C           35.61472440465189        3.14354866415928        1.48593399641430
C           35.62857122186103        4.48258352942897        2.13836146996337
C           35.90322195392537        5.62270903850247        1.37664854310693
C           36.19097828304991        5.49200908940589       -0.09523578605733
C           35.90658707213709        6.86878526684523        1.99101198578686
C           35.64134075794352        6.99638341627617        3.35135352947182
C           35.66377832331093        8.35372533823893        4.00084160205808
C           35.37271325866432        5.85534604979778        4.09904847352330
C           35.36249545160853        4.59808946258590        3.50517348153277
C           35.06636295989137        3.36702866237833        4.31944503819675
C           36.81096177597429        2.45615344869457        1.35868280388913
C           38.06772235337241        2.95033106592498        1.83690646169957
C           39.01492815649360        2.07735509757526        1.41614709646767
N           36.98873087324657        1.27127968727232        0.68531778133820
C           38.33431748970513        1.05207879833326        0.68717924447328
C           38.99341110185020        0.03755203468584       -0.01749790337307
C           38.31265683300483       -0.97025617550177       -0.71098499391353
C           38.97164049658663       -2.03276803163071       -1.40591211874566
C           38.00682555339782       -2.90173223284835       -1.79378604272673
C           36.75988801366239       -2.36186621759723       -1.34027391293550
N           36.96238967100724       -1.16080154295116       -0.70444464412671
C           35.54381844903661       -3.01290929990496       -1.47394582233338
C           35.52831179659971       -4.37500009116382       -2.07676213854542
C           35.30765089221182       -4.53253577009663       -3.44864056468425
C           35.08781517235767       -3.32324801117704       -4.31789578282443
C           35.29280389028088       -5.80984732866053       -3.99442076968038
C           35.49282115316809       -6.93216189900020       -3.19508933909461
C           35.47150294301075       -8.30577369176177       -3.80956118515420
C           35.71165052128431       -6.76305497436365       -1.83299381662138
C           35.73210744144213       -5.49381436673808       -1.26494619936706
C           35.97151407108743       -5.31810295187239        0.21088186448076
C           34.33659994302955       -2.45024923476782       -1.08036907677211
C           33.06640192861830       -3.09702027762138       -1.24021554701120
C           32.12161068053707       -2.19594562571275       -0.88025315126065
C           32.81638078136542       -1.00508408611638       -0.49142570481659
N           34.17123548465811       -1.18372357766784       -0.58904313332690
H           31.10538403433667        0.20031583874507       -0.16927871093663
H           31.13438182053009        2.69150448986603        0.59070737366590
H           33.05646279158382        4.35903095512239        1.50487123035536
H           35.37539224441805        4.96868477106261       -0.59740815361674
H           37.10404692888863        4.91413862096772       -0.25146490092119
H           36.31580999509902        6.47145612057819       -0.55595376586529
H           36.11685704960383        7.75452531320989        1.40044486854723
H           35.15552886948178        8.33393514952481        4.96487803442073
H           36.69587143353487        8.67230281809085        4.16377911867518
H           35.17990920642015        9.09404734775786        3.36250050084936
H           35.16564995815398        5.94460128633341        5.16046676223863
H           35.87710962322122        2.64283972481268        4.22197437074762
H           34.94390019469220        3.61698811470343        5.37286358302178
H           34.14992924476788        2.89115485521371        3.96485271933726
H           38.19291687462656        3.85411040637069        2.41115970779518
H           40.08143926050592        2.11722140693507        1.56886854499978
H           40.03713447050505       -2.10053397860294       -1.55584102315952
H           38.11353756831075       -3.82823170406570       -2.33460735533153
H           34.17627783858683       -2.80286423176699       -4.01732118323129
H           34.99665586611928       -3.60829313345372       -5.36556342428839
H           35.91991667569474       -2.62453802965444       -4.21481043492285
H           35.12229499017506       -5.93409841538352       -5.05886371191389
H           36.26244425254315       -8.39842766900280       -4.55626568746838
H           35.61716593052630       -9.07563583360719       -3.05198707001494
H           34.51688426413264       -8.48338782454957       -4.30814447126126
H           35.86825646508620       -7.63128684113437       -1.20126460367833
H           35.15834388487497       -4.74737773946067        0.66285520134493
H           36.89911329966818       -4.76760010971201        0.37985692672825
H           36.04331354969665       -6.28324674783608        0.71139522344681
H           32.93416701991393       -4.10727360903476       -1.59299087357847
H           31.04885609750404       -2.30724859842737       -0.87445280466213
Fe          57.31602083391248       -0.01635857486025       -0.07921533804642
C           60.70996018793798        0.00262244299259       -0.11943728727269
C           60.06456317593835       -1.14254605218741       -0.54060214903119
C           60.74162601647371       -2.32771902818123       -0.97544758809010
C           59.78542516714978       -3.18844337205360       -1.39853880202072
C           58.52603715764531       -2.52345926333586       -1.22838624117053
N           58.70833784495625       -1.28675289467785       -0.67157032886421
C           57.31393272731126       -3.04207499694305       -1.66539713919274
C           57.31203659878759       -4.37101018703210       -2.33830412301623
C           57.56313346091175       -4.46222335531579       -3.71007188398662
C           57.83218982550537       -3.21526310847070       -4.50946635024458
C           57.56308763588582       -5.71020360712496       -4.32269316651013
C           57.31925727794627       -6.86638631082950       -3.58926376098607
C           57.30528849917997       -8.21193110531884       -4.26306862443014
C           57.06852770638257       -6.76302395096105       -2.22448367640225
C           57.06205750289206       -5.52614437977798       -1.59121953367426
C           56.79016504521356       -5.42214408879602       -0.11419570380596
C           56.10769460877811       -2.37848163195527       -1.50713844534365
C           54.85472696631996       -2.87620963011872       -1.99143975054738
C           53.90025652724945       -2.01833424440075       -1.55613584505402
N           55.91971226408510       -1.21001334886515       -0.80902994491039
C           54.57192254177666       -1.00323324676596       -0.80478536860536
C           53.90386851178545       -0.02399798996916       -0.06016615131415
C           54.57510950227854        0.95352756243631        0.68379951195901
C           53.90687855130454        1.95952578630560        1.45024150452061
C           54.86328297000865        2.81235221420157        1.89112457641089
C           56.11353991201921        2.32277866618025        1.39159338101084
N           55.92256865155839        1.16150844319955        0.68210740226057
C           57.31799840138817        2.99134688649542        1.54087693360646
C           57.31865888683578        4.31129812286934        2.23120924185170
C           57.05394873330619        5.47540719808046        1.50297480451274
C           56.76302526373268        5.38992760019095        0.02838954212580
C           57.06138447284844        6.70311384461143        2.15322863882986
C           57.32582252391940        6.78873445824926        3.51704299125353
C           57.34618510745482        8.13002329922882        4.19913000113120
C           57.58546874132417        5.62432181725038        4.23104769353262
C           57.58473149234974        4.38476828009882        3.60095411830751
C           57.86635087934057        3.12779778526733        4.38005721976655
C           58.52548423199970        2.48974133399782        1.07211312757291
C           59.78065168514371        3.16866449876246        1.21590833624252
C           60.73519663121604        2.32664221818707        0.75328752689148
C           60.06146615506307        1.13724992254905        0.32476390998818
N           58.70778845743695        1.26169585149395        0.49674962227524
H           61.79403024421975        0.01007917899309       -0.13517457896622
H           61.81153332510584       -2.46245173453418       -0.95601398209465
H           59.90340440489149       -4.18238539348292       -1.79942842038537
H           58.75472493810091       -2.74050913789986       -4.16938300793151
H           57.02037317195398       -2.49751771842076       -4.37923190335979
H           57.93012552712110       -3.44610189944830       -5.56978945205632
H           57.75844562470832       -5.78088222322616       -5.38773306834239
H           57.70802192301020       -8.97996903369718       -3.60196083328419
H           56.27995959999978       -8.48943414023436       -4.51852461226885
H           57.89194671728301       -8.19392875035317       -5.18168285877998
H           56.87752107816491       -7.66017720925573       -1.64470140914890
H           55.86854219975056       -4.86376109560535        0.06150519758584
H           56.68894934897185       -6.41034126135321        0.33349057933831
H           57.60204888117648       -4.89104588121370        0.38578293775185
H           54.73721951621516       -3.76989416747183       -2.58288469380870
H           52.83413261490597       -2.06408347718198       -1.71008644475128
H           52.84162643365456        2.00234559219867        1.61098585726438
H           54.74852658464955        3.69870966384580        2.49400911980829
H           57.57279380347049        4.87339209712641       -0.48994389765959
H           56.64705469771274        6.38341773036596       -0.40371528158642
H           55.84413284363647        4.82573043194148       -0.14296699978357
H           56.85728629310695        7.60728849135889        1.58900581657329
H           56.51673441300412        8.74946535374769        3.85557627569528
H           57.27831326435197        8.01919486949730        5.28132671852223
H           58.27638970469078        8.65290671322937        3.96551941040787
H           57.79085196402163        5.68064547699676        5.29504569027289
H           58.78084911076463        2.65500339586537        4.01646059610757
H           57.05030451243846        2.41354035637068        4.25694840490147
H           57.98507837912154        3.34558419467216        5.44100915860580
H           59.89725695564108        4.15882742061765        1.62644912803249
H           61.80221444007225        2.47602049657629        0.70442683633798
C           40.39782815037350        0.02266914807534       -0.01761735815055
C           41.61617436121908        0.00830347159991       -0.01583137061163
C           51.28114753040839       -0.02885169990492       -0.04673438049483
C           52.49940093849948       -0.02582345661737       -0.05449394669124
Fe          46.44861712304196       -0.03747602096472       -0.02297703071786
C           43.02017529568907       -0.01369220367163       -0.01445863317775
C           43.69498069605957        0.39002568758903        1.14389788835888
C           43.02280132042264        0.79201934807578        2.33986798201395
C           43.98389496078789        1.01564371924097        3.26877001718683
C           45.23890137544814        0.75781780781999        2.63002256140724
N           45.04642881901582        0.37936862393827        1.32422432692260
C           46.46193254659894        0.87747942550627        3.27322556641624
C           46.46658953403738        1.23410665408643        4.71952254267743
C           46.52828218841091        2.57265297678128        5.11559237299303
C           46.59116868402022        3.66110454305793        4.07762671734888
C           46.53062019699646        2.88355328753743        6.47081415233067
C           46.47207629157187        1.88236479574009        7.43406689504218
C           46.49273098530745        2.22437656866779        8.89932769749970
C           46.41252581397529        0.55284543952191        7.02718062840478
C           46.40866440523070        0.21823651347521        5.67879559068342
C           46.34233634641319       -1.22167918726813        5.24492813707285
C           47.68101372948684        0.68422503517838        2.64090251508269
C           48.94333883187637        0.85996544718011        3.29320089650176
C           49.89783029095808        0.63086828398662        2.35891171318065
N           47.86265168540483        0.33662967477551        1.32489026858636
C           49.21384370807056        0.30657825290354        1.14614318592034
C           49.87703380880406       -0.03891993063838       -0.03726207291576
C           49.20340173858525       -0.40524888213227       -1.20848909916604
C           49.87644784652709       -0.74097308418600       -2.42417165918859
C           48.91372141925549       -1.01759529565156       -3.33694201380507
C           47.65759923566730       -0.85043498492600       -2.67074374671144
N           47.85087334992073       -0.47346464563653       -1.36456393992769
C           46.43297728829900       -1.06212435313754       -3.28629965049533
C           46.42540269261630       -1.45580206773324       -4.72291346136065
C           46.36585036081013       -0.46566136047538       -5.70875149067154
C           46.30930875382407        0.98589117112597       -5.31392358427735
C           46.35890011656655       -0.83660420480905       -7.04754694365432
C           46.40924617416867       -2.17692514867276       -7.41884584698542
C           46.41815492253638       -2.55776080493041       -8.87461029619428
C           46.46928766141956       -3.15213812030151       -6.42945531613891
C           46.47771190454490       -2.80470984213954       -5.08314290177379
C           46.54223945917580       -3.86451923221248       -4.01609668449788
C           45.21496577389726       -0.90784111171590       -2.64125327089606
C           43.95268794233074       -1.14032391892022       -3.27533554017785
C           42.99871177986614       -0.85467826196602       -2.35618459127597
C           43.68298776171851       -0.44942127602452       -1.16827073343201
N           45.03413937269317       -0.49637701917745       -1.34360667829395
H           41.95324745459116        0.87653186965193        2.44472628944647
H           43.86924731198499        1.32842919826879        4.29395422282696
H           47.48513756827618        3.54544871816380        3.46180574976129
H           46.61465439440344        4.64459977250652        4.54587154557452
H           45.72289327337393        3.60723715531138        3.41829796715804
H           46.57727187039404        3.92306061171788        6.77841927166723
H           47.50191055365252        2.09563542892312        9.29732090000942
H           45.82407973427025        1.56867566709189        9.45819249479916
H           46.19061409067768        3.25878622958374        9.06313748966305
H           46.36698342384311       -0.23462324380880        7.77233411920752
H           45.44630917101292       -1.39590251023199        4.64616466354847
H           47.20832608528735       -1.47254829027933        4.62956730907480
H           46.32109060158070       -1.88743340015481        6.10714438274435
H           49.06704311253060        1.12796462718727        4.32994585976591
H           50.96962134592396        0.66635641790991        2.46910672541774
H           50.94697660982375       -0.75322681226750       -2.55040733437485
H           49.02811787522246       -1.30808871356949       -4.36868131301891
H           45.41673670561885        1.18142344529378       -4.71656370321071
H           46.28797595135168        1.62797890633482       -6.19389922852516
H           47.17922717957232        1.24872619740784       -4.70920558512491
H           46.31215967096603       -0.06933066505655       -7.81340796985733
H           46.12192967441074       -3.59821048453056       -9.00797111200679
H           47.42234529395330       -2.43232143179427       -9.28600860660986
H           45.73922180926721       -1.92181316703222       -9.44386582593340
H           46.50870064200012       -4.19978696664755       -6.70916077418693
H           46.55590089505789       -4.86073683290426       -4.45703492714955
H           45.67968469666302       -3.78677086689369       -3.35166773774307
H           47.44183317952886       -3.73745795605670       -3.41079300072309
H           43.82857895849759       -1.47524971085596       -4.29238226018368
H           41.92696308537818       -0.90144441265746       -2.46213081907495

          :  Hamiltonian                  GFN1-xTB          :
         :: total energy            -346.484419590996 Eh    ::
         :: gradient norm              0.000155316039 Eh/a0 ::
         :: HOMO-LUMO gap              0.055759571374 eV    ::
         :: SCC energy              -351.944949013641 Eh    ::
         :: repulsion energy           5.671590792185 Eh    ::

    * Orbital Energies and Occupations

         #    Occupation            Energy/Eh            Energy/eV
      -------------------------------------------------------------
         1        2.0000           -0.7702185             -20.9587
       ...           ...                  ...                  ...
       312        2.0000           -0.3951684             -10.7531
       313        2.0000           -0.3950889             -10.7509
       314        1.9998           -0.3902121             -10.6182
       315        1.9924           -0.3865950             -10.5198
       316        1.9921           -0.3865611             -10.5189
       317        1.9913           -0.3864712             -10.5164
       318        1.9694           -0.3852600             -10.4835
       319        1.9597           -0.3849957             -10.4763
       320        1.9545           -0.3848771             -10.4730
       321        1.9539           -0.3848648             -10.4727
       322        1.9529           -0.3848432             -10.4721
       323        1.9518           -0.3848211             -10.4715
       324        1.2810           -0.3818534             -10.3908 (HOMO)
       325        0.3417           -0.3798043             -10.3350 (LUMO)
       326        0.3401           -0.3797988             -10.3349
       327        0.3193           -0.3797269             -10.3329
       328                         -0.3412733              -9.2865
       329                         -0.3295464              -8.9674
       330                         -0.3269621              -8.8971
       331                         -0.3241479              -8.8205
       332                         -0.3240895              -8.8189
       333                         -0.3207415              -8.7278
       334                         -0.3015807              -8.2064
       335                         -0.2978129              -8.1039
       ...                                ...                  ...
       731                          1.3353103              36.3356
      -------------------------------------------------------------
                  HL-Gap            0.0020491 Eh            0.0558 eV

Wiberg/Mayer (AO) data.
largest (>0.10) Wiberg bond orders for each atom

     #   Z sym  total        # sym  WBO       # sym  WBO       # sym  WBO
 ---------------------------------------------------------------------------
     1  26 Fe   3.109 --    43 N    0.666     7 N    0.664    21 N    0.658
                            28 N    0.657
     2   6 C    3.915 --     3 C    1.363    42 C    1.362    44 H    0.971
     3   6 C    3.926 --     2 C    1.363     7 N    1.210     4 C    1.173
     4   6 C    3.959 --     5 C    1.649     3 C    1.173    45 H    0.975
     5   6 C    3.962 --     4 C    1.649     6 C    1.174    46 H    0.974
     6   6 C    3.920 --     8 C    1.316     7 N    1.222     5 C    1.174
     7   7 N    3.376 --     6 C    1.222     3 C    1.210     1 Fe   0.664
     8   6 C    3.916 --    18 C    1.339     6 C    1.316     9 C    1.005
     9   6 C    3.987 --    16 C    1.383    10 C    1.377     8 C    1.005
                            13 C    0.104
    10   6 C    3.984 --    12 C    1.424     9 C    1.377    11 C    1.021
                            15 C    0.102
    11   6 C    3.995 --    10 C    1.021    49 H    0.986    47 H    0.975
                            48 H    0.973
    12   6 C    3.993 --    10 C    1.424    13 C    1.410    50 H    0.971
                            16 C    0.103
    13   6 C    3.988 --    15 C    1.417    12 C    1.410    14 C    1.020
                             9 C    0.104
    14   6 C    3.996 --    13 C    1.020    51 H    0.985    53 H    0.980
                            52 H    0.972
    15   6 C    3.992 --    16 C    1.417    13 C    1.417    54 H    0.970
                            10 C    0.102
    16   6 C    3.984 --    15 C    1.417     9 C    1.383    17 C    1.020
                            12 C    0.103
    17   6 C    3.995 --    16 C    1.020    56 H    0.986    55 H    0.975
                            57 H    0.973
    18   6 C    3.919 --     8 C    1.339    21 N    1.197    19 C    1.178
    19   6 C    3.958 --    20 C    1.639    18 C    1.178    58 H    0.974
    20   6 C    3.961 --    19 C    1.639    22 C    1.188    59 H    0.971
    21   7 N    3.375 --    22 C    1.246    18 C    1.197     1 Fe   0.658
    22   6 C    3.912 --    23 C    1.255    21 N    1.246    20 C    1.188
    23   6 C    3.915 --    24 C    1.255    22 C    1.255   149 C    1.189
    24   6 C    3.912 --    23 C    1.255    28 N    1.244    25 C    1.187
    25   6 C    3.961 --    26 C    1.638    24 C    1.187    60 H    0.971
    26   6 C    3.958 --    25 C    1.638    27 C    1.179    61 H    0.974
    27   6 C    3.918 --    29 C    1.337    28 N    1.198    26 C    1.179
    28   7 N    3.375 --    24 C    1.244    27 C    1.198     1 Fe   0.657
    29   6 C    3.916 --    27 C    1.337    39 C    1.318    30 C    1.005
    30   6 C    3.987 --    37 C    1.383    31 C    1.376    29 C    1.005
                            34 C    0.104
    31   6 C    3.984 --    33 C    1.425    30 C    1.376    32 C    1.020
                            36 C    0.102
    32   6 C    3.995 --    31 C    1.020    63 H    0.986    64 H    0.975
                            62 H    0.973
    33   6 C    3.993 --    31 C    1.425    34 C    1.409    65 H    0.971
                            37 C    0.104
    34   6 C    3.988 --    36 C    1.419    33 C    1.409    35 C    1.020
                            30 C    0.104
    35   6 C    3.996 --    34 C    1.020    67 H    0.986    68 H    0.976
                            66 H    0.975
    36   6 C    3.992 --    34 C    1.419    37 C    1.416    69 H    0.969
                            31 C    0.102
    37   6 C    3.984 --    36 C    1.416    30 C    1.383    38 C    1.021
                            33 C    0.104
    38   6 C    3.995 --    37 C    1.021    72 H    0.986    70 H    0.975
                            71 H    0.973
    39   6 C    3.920 --    29 C    1.318    43 N    1.221    40 C    1.174
    40   6 C    3.962 --    41 C    1.649    39 C    1.174    73 H    0.974
    41   6 C    3.959 --    40 C    1.649    42 C    1.173    74 H    0.975
    42   6 C    3.926 --     2 C    1.362    43 N    1.211    41 C    1.173
    43   7 N    3.376 --    39 C    1.221    42 C    1.211     1 Fe   0.666
    44   1 H    1.001 --     2 C    0.971
    45   1 H    0.998 --     4 C    0.975
    46   1 H    1.002 --     5 C    0.974
    47   1 H    1.007 --    11 C    0.975
    48   1 H    1.008 --    11 C    0.973
    49   1 H    1.004 --    11 C    0.986
    50   1 H    0.999 --    12 C    0.971
    51   1 H    1.004 --    14 C    0.985
    52   1 H    1.006 --    14 C    0.972
    53   1 H    1.005 --    14 C    0.980
    54   1 H    1.000 --    15 C    0.970
    55   1 H    1.007 --    17 C    0.975
    56   1 H    1.004 --    17 C    0.986
    57   1 H    1.008 --    17 C    0.973
    58   1 H    1.002 --    19 C    0.974
    59   1 H    1.004 --    20 C    0.971
    60   1 H    1.004 --    25 C    0.971
    61   1 H    1.002 --    26 C    0.974
    62   1 H    1.008 --    32 C    0.973
    63   1 H    1.004 --    32 C    0.986
    64   1 H    1.007 --    32 C    0.975
    65   1 H    0.999 --    33 C    0.971
    66   1 H    1.005 --    35 C    0.975
    67   1 H    1.004 --    35 C    0.986
    68   1 H    1.005 --    35 C    0.976
    69   1 H    1.000 --    36 C    0.969
    70   1 H    1.007 --    38 C    0.975
    71   1 H    1.008 --    38 C    0.973
    72   1 H    1.004 --    38 C    0.986
    73   1 H    1.002 --    40 C    0.974
    74   1 H    0.998 --    41 C    0.975
    75  26 Fe   3.108 --    81 N    0.665   117 N    0.665   102 N    0.658
                            95 N    0.658
    76   6 C    3.915 --   116 C    1.362    77 C    1.362   118 H    0.971
    77   6 C    3.926 --    76 C    1.362    81 N    1.210    78 C    1.173
    78   6 C    3.959 --    79 C    1.649    77 C    1.173   119 H    0.975
    79   6 C    3.962 --    78 C    1.649    80 C    1.174   120 H    0.974
    80   6 C    3.920 --    82 C    1.318    81 N    1.221    79 C    1.174
    81   7 N    3.376 --    80 C    1.221    77 C    1.210    75 Fe   0.665
    82   6 C    3.917 --    92 C    1.338    80 C    1.318    83 C    1.005
    83   6 C    3.986 --    84 C    1.381    90 C    1.378    82 C    1.005
                            87 C    0.104
    84   6 C    3.984 --    86 C    1.419    83 C    1.381    85 C    1.020
                            89 C    0.103
    85   6 C    3.995 --    84 C    1.020   123 H    0.986   122 H    0.975
                           121 H    0.973
    86   6 C    3.992 --    84 C    1.419    87 C    1.416   124 H    0.970
                            90 C    0.102
    87   6 C    3.988 --    86 C    1.416    89 C    1.412    88 C    1.020
                            83 C    0.104
    88   6 C    3.996 --    87 C    1.020   127 H    0.984   125 H    0.982
                           126 H    0.971
    89   6 C    3.993 --    90 C    1.422    87 C    1.412   128 H    0.970
                            84 C    0.103
    90   6 C    3.984 --    89 C    1.422    83 C    1.378    91 C    1.021
                            86 C    0.102
    91   6 C    3.995 --    90 C    1.021   130 H    0.986   131 H    0.975
                           129 H    0.973
    92   6 C    3.918 --    82 C    1.338    95 N    1.198    93 C    1.178
    93   6 C    3.958 --    94 C    1.639    92 C    1.178   132 H    0.974
    94   6 C    3.961 --    93 C    1.639    96 C    1.187   133 H    0.972
    95   7 N    3.375 --    96 C    1.245    92 C    1.198    75 Fe   0.658
    96   6 C    3.912 --    97 C    1.256    95 N    1.245    94 C    1.187
    97   6 C    3.915 --    96 C    1.256    98 C    1.255   152 C    1.188
    98   6 C    3.912 --    97 C    1.255   102 N    1.245    99 C    1.187
    99   6 C    3.961 --   100 C    1.639    98 C    1.187   134 H    0.972
   100   6 C    3.958 --    99 C    1.639   101 C    1.178   135 H    0.974
   101   6 C    3.918 --   103 C    1.338   102 N    1.198   100 C    1.178
   102   7 N    3.375 --    98 C    1.245   101 C    1.198    75 Fe   0.658
   103   6 C    3.917 --   101 C    1.338   113 C    1.317   104 C    1.005
   104   6 C    3.987 --   111 C    1.383   105 C    1.377   103 C    1.005
                           108 C    0.104
   105   6 C    3.984 --   107 C    1.424   104 C    1.377   106 C    1.021
                           110 C    0.102
   106   6 C    3.995 --   105 C    1.021   137 H    0.986   136 H    0.975
                           138 H    0.973
   107   6 C    3.993 --   105 C    1.424   108 C    1.410   139 H    0.971
                           111 C    0.103
   108   6 C    3.988 --   110 C    1.417   107 C    1.410   109 C    1.020
                           104 C    0.104
   109   6 C    3.996 --   108 C    1.020   141 H    0.985   140 H    0.980
                           142 H    0.972
   110   6 C    3.992 --   108 C    1.417   111 C    1.417   143 H    0.970
                           105 C    0.102
   111   6 C    3.984 --   110 C    1.417   104 C    1.383   112 C    1.020
                           107 C    0.103
   112   6 C    3.995 --   111 C    1.020   146 H    0.986   145 H    0.975
                           144 H    0.973
   113   6 C    3.920 --   103 C    1.317   117 N    1.222   114 C    1.174
   114   6 C    3.962 --   115 C    1.649   113 C    1.174   147 H    0.974
   115   6 C    3.959 --   114 C    1.649   116 C    1.173   148 H    0.975
   116   6 C    3.926 --    76 C    1.362   117 N    1.210   115 C    1.173
   117   7 N    3.376 --   113 C    1.222   116 C    1.210    75 Fe   0.665
   118   1 H    1.001 --    76 C    0.971
   119   1 H    0.998 --    78 C    0.975
   120   1 H    1.002 --    79 C    0.974
   121   1 H    1.008 --    85 C    0.973
   122   1 H    1.007 --    85 C    0.975
   123   1 H    1.004 --    85 C    0.986
   124   1 H    1.000 --    86 C    0.970
   125   1 H    1.005 --    88 C    0.982
   126   1 H    1.006 --    88 C    0.971
   127   1 H    1.004 --    88 C    0.984
   128   1 H    0.999 --    89 C    0.970
   129   1 H    1.008 --    91 C    0.973
   130   1 H    1.004 --    91 C    0.986
   131   1 H    1.007 --    91 C    0.975
   132   1 H    1.002 --    93 C    0.974
   133   1 H    1.004 --    94 C    0.972
   134   1 H    1.004 --    99 C    0.972
   135   1 H    1.002 --   100 C    0.974
   136   1 H    1.007 --   106 C    0.975
   137   1 H    1.004 --   106 C    0.986
   138   1 H    1.008 --   106 C    0.973
   139   1 H    0.999 --   107 C    0.971
   140   1 H    1.005 --   109 C    0.980
   141   1 H    1.004 --   109 C    0.985
   142   1 H    1.006 --   109 C    0.972
   143   1 H    1.000 --   110 C    0.970
   144   1 H    1.008 --   112 C    0.973
   145   1 H    1.007 --   112 C    0.975
   146   1 H    1.004 --   112 C    0.986
   147   1 H    1.002 --   114 C    0.974
   148   1 H    0.998 --   115 C    0.975
   149   6 C    3.914 --   150 C    2.547    23 C    1.189
   150   6 C    3.921 --   149 C    2.547   154 C    1.192
   151   6 C    3.921 --   152 C    2.548   175 C    1.192
   152   6 C    3.914 --   151 C    2.548    97 C    1.188
   153  26 Fe   3.056 --   195 N    0.647   173 N    0.647   180 N    0.646
                           159 N    0.646
   154   6 C    3.901 --   155 C    1.252   194 C    1.252   150 C    1.192
   155   6 C    3.913 --   154 C    1.252   159 N    1.248   156 C    1.190
   156   6 C    3.960 --   157 C    1.634   155 C    1.190   196 H    0.971
   157   6 C    3.959 --   156 C    1.634   158 C    1.182   197 H    0.974
   158   6 C    3.916 --   160 C    1.326   159 N    1.205   157 C    1.182
   159   7 N    3.364 --   155 C    1.248   158 C    1.205   153 Fe   0.646
   160   6 C    3.908 --   170 C    1.327   158 C    1.326   161 C    1.005
   161   6 C    3.986 --   162 C    1.382   168 C    1.376   160 C    1.005
                           165 C    0.104
   162   6 C    3.983 --   164 C    1.418   161 C    1.382   163 C    1.021
                           167 C    0.103
   163   6 C    3.995 --   162 C    1.021   199 H    0.986   200 H    0.974
                           198 H    0.973
   164   6 C    3.992 --   162 C    1.418   165 C    1.417   201 H    0.970
                           168 C    0.102
   165   6 C    3.988 --   164 C    1.417   167 C    1.411   166 C    1.020
                           161 C    0.104
   166   6 C    3.996 --   165 C    1.020   204 H    0.984   203 H    0.981
                           202 H    0.972
   167   6 C    3.993 --   168 C    1.423   165 C    1.411   205 H    0.970
                           162 C    0.103
   168   6 C    3.984 --   167 C    1.423   161 C    1.376   169 C    1.021
                           164 C    0.102
   169   6 C    3.995 --   168 C    1.021   208 H    0.986   207 H    0.974
                           206 H    0.973
   170   6 C    3.916 --   160 C    1.327   173 N    1.205   171 C    1.182
   171   6 C    3.959 --   172 C    1.634   170 C    1.182   209 H    0.974
   172   6 C    3.960 --   171 C    1.634   174 C    1.190   210 H    0.972
   173   7 N    3.364 --   174 C    1.249   170 C    1.205   153 Fe   0.647
   174   6 C    3.912 --   175 C    1.252   173 N    1.249   172 C    1.190
   175   6 C    3.901 --   174 C    1.252   176 C    1.252   151 C    1.192
   176   6 C    3.912 --   175 C    1.252   180 N    1.249   177 C    1.191
   177   6 C    3.960 --   178 C    1.634   176 C    1.191   211 H    0.971
   178   6 C    3.959 --   177 C    1.634   179 C    1.182   212 H    0.974
   179   6 C    3.916 --   181 C    1.326   180 N    1.205   178 C    1.182
   180   7 N    3.364 --   176 C    1.249   179 C    1.205   153 Fe   0.646
   181   6 C    3.908 --   191 C    1.326   179 C    1.326   182 C    1.005
   182   6 C    3.986 --   189 C    1.382   183 C    1.376   181 C    1.005
                           186 C    0.104
   183   6 C    3.984 --   185 C    1.424   182 C    1.376   184 C    1.021
                           188 C    0.102
   184   6 C    3.995 --   183 C    1.021   214 H    0.986   215 H    0.974
                           213 H    0.973
   185   6 C    3.993 --   183 C    1.424   186 C    1.411   216 H    0.970
                           189 C    0.103
   186   6 C    3.988 --   188 C    1.417   185 C    1.411   187 C    1.020
                           182 C    0.104
   187   6 C    3.996 --   186 C    1.020   217 H    0.984   219 H    0.981
                           218 H    0.972
   188   6 C    3.992 --   189 C    1.418   186 C    1.417   220 H    0.970
                           183 C    0.102
   189   6 C    3.983 --   188 C    1.418   182 C    1.382   190 C    1.021
                           185 C    0.103
   190   6 C    3.995 --   189 C    1.021   221 H    0.986   222 H    0.974
                           223 H    0.973
   191   6 C    3.916 --   181 C    1.326   195 N    1.205   192 C    1.182
   192   6 C    3.959 --   193 C    1.634   191 C    1.182   224 H    0.974
   193   6 C    3.960 --   192 C    1.634   194 C    1.191   225 H    0.971
   194   6 C    3.913 --   154 C    1.252   195 N    1.249   193 C    1.191
   195   7 N    3.365 --   194 C    1.249   191 C    1.205   153 Fe   0.647
   196   1 H    1.004 --   156 C    0.971
   197   1 H    1.002 --   157 C    0.974
   198   1 H    1.007 --   163 C    0.973
   199   1 H    1.004 --   163 C    0.986
   200   1 H    1.007 --   163 C    0.974
   201   1 H    1.000 --   164 C    0.970
   202   1 H    1.006 --   166 C    0.972
   203   1 H    1.005 --   166 C    0.981
   204   1 H    1.004 --   166 C    0.984
   205   1 H    0.999 --   167 C    0.970
   206   1 H    1.007 --   169 C    0.973
   207   1 H    1.007 --   169 C    0.974
   208   1 H    1.004 --   169 C    0.986
   209   1 H    1.002 --   171 C    0.974
   210   1 H    1.004 --   172 C    0.972
   211   1 H    1.004 --   177 C    0.971
   212   1 H    1.002 --   178 C    0.974
   213   1 H    1.007 --   184 C    0.973
   214   1 H    1.004 --   184 C    0.986
   215   1 H    1.007 --   184 C    0.974
   216   1 H    0.999 --   185 C    0.970
   217   1 H    1.004 --   187 C    0.984
   218   1 H    1.006 --   187 C    0.972
   219   1 H    1.005 --   187 C    0.981
   220   1 H    1.000 --   188 C    0.970
   221   1 H    1.004 --   190 C    0.986
   222   1 H    1.007 --   190 C    0.974
   223   1 H    1.007 --   190 C    0.973
   224   1 H    1.002 --   192 C    0.974
   225   1 H    1.004 --   193 C    0.971
 ---------------------------------------------------------------------------

           -------------------------------------------------
          | TOTAL ENERGY             -346.484419590996 Eh   |
          | GRADIENT NORM               0.000155316039 Eh/α |
          | HOMO-LUMO GAP               0.055759571374 eV   |
           -------------------------------------------------

 * finished run on 2022/07/29 at 19:53:15.877
