   * xtb version 6.5.1 (b24c23e) compiled by 'conda@728c89f4b128' on 2022-07-12
          program call               : xtb Fe_PhOH_C4_2.xyz --gfn 1 --opt -T 48

   ID    Z sym.   atoms
    1   26 Fe     1, 59
    2    6 C      2-6, 8-12, 14-18, 20-25, 27-31, 33-38, 60-64, 66-70, 72-76,
                  78-83, 85-89, 91-96, 117-120
    3    7 N      7, 19, 26, 39, 65, 77, 84, 97
    4    8 O      13, 32, 71, 90
    5    1 H      40-58, 98-116
########################################################################
[WARNING] Please study the warnings concerning your input carefully
-1- prog_main_parseArguments: Unknown option '-T' provided
########################################################################

          :  Hamiltonian                  GFN1-xTB          :
 * total energy  :  -213.4734377 Eh     change        0.5161382E-09 Eh
 * total energy  :  -214.2850638 Eh     change       -0.8116261E+00 Eh
 * total energy  :  -214.3864702 Eh     change       -0.1014064E+00 Eh
 * total energy  :  -214.4435426 Eh     change       -0.5707237E-01 Eh
 * total energy  :  -214.4620964 Eh     change       -0.1855381E-01 Eh
 * total energy  :  -214.4712131 Eh     change       -0.9116646E-02 Eh
 * total energy  :  -214.4763829 Eh     change       -0.5169846E-02 Eh
 * total energy  :  -214.4794947 Eh     change       -0.3111762E-02 Eh
 * total energy  :  -214.4813360 Eh     change       -0.1841379E-02 Eh
 * total energy  :  -214.4828806 Eh     change       -0.1544560E-02 Eh
 * total energy  :  -214.4868838 Eh     change       -0.2176153E-04 Eh
 * total energy  :  -214.4869034 Eh     change       -0.1966477E-04 Eh
 * total energy  :  -214.4869194 Eh     change       -0.1598624E-04 Eh
 * total energy  :  -214.4869310 Eh     change       -0.1155098E-04 Eh
 * total energy  :  -214.4869413 Eh     change       -0.1030187E-04 Eh
 * total energy  :  -214.4869495 Eh     change       -0.8188171E-05 Eh
 * total energy  :  -214.4869555 Eh     change       -0.6047481E-05 Eh
 * total energy  :  -214.4869609 Eh     change       -0.5421957E-05 Eh
 * total energy  :  -214.4869656 Eh     change       -0.4661895E-05 Eh
   *** GEOMETRY OPTIMIZATION CONVERGED AFTER 38 ITERATIONS ***

 final structure:
================
120
 xtb: 6.5.1 (b24c23e)
Fe          15.58886265656020       -0.05709022303329       -0.10885779436043
C           12.20690691794049       -0.09297215671638       -0.28811578653923
C           12.86402684714473       -1.30593555359523       -0.28586907415167
C           12.18996321673298       -2.56776953970049       -0.34088620815128
C           13.13803579505108       -3.52047128293499       -0.17885765067630
C           14.39365381386922       -2.83920840767242       -0.04846725737302
N           14.21266957908474       -1.48470759179041       -0.12068583173807
C           15.60601844760575       -3.48038759403833        0.18639241094275
C           15.61471945223497       -4.95710208380645        0.32306546788778
C           15.25416431732402       -5.77250317416257       -0.74969674187501
C           15.26543526276498       -7.15311362988589       -0.62382757215040
C           15.63297940189843       -7.73378676249987        0.58782338504992
O           15.65337371249851       -9.08098780557060        0.75584374288416
C           15.99364508873756       -6.92962801153397        1.66755761562643
C           15.98764738645644       -5.55286883859762        1.53004232723518
C           16.81279234435683       -2.80067966879213        0.27283343995306
C           18.08160833465896       -3.45097078576184        0.41524613152215
C           19.02856190101819       -2.48758983318159        0.31428149526302
N           16.98724748780386       -1.44594408935401        0.11332593685584
C           18.33635784983423       -1.25262403183325        0.11863603365706
C           18.99365380340770       -0.02931562157182       -0.06507904932994
C           18.31580717135634        1.18941537879226       -0.19500174069267
C           18.98648038918937        2.44056945558540       -0.35852586776098
C           18.02794083335686        3.39823888887267       -0.34979217987435
C           16.77380149560164        2.72662142822004       -0.18227565461591
N           16.96671658698791        1.36786711760186       -0.11190267009315
C           15.55055048437375        3.37969980612022       -0.10623340300435
C           15.53728255466103        4.86089223803783       -0.11415107562443
C           16.18251006450599        5.58177806214692        0.89404612312928
C           16.16978170591611        6.96510055253165        0.89500036810314
C           15.51428714535528        7.65130448373082       -0.12594945981961
O           15.52351075798829        9.00843015034167       -0.09619634458870
C           14.87336806184766        6.94607233480653       -1.14214343437203
C           14.88423624308017        5.56014341629025       -1.13010780057588
C           14.33731432912038        2.70053367066297       -0.05431196589924
C           13.05859549484033        3.34689116715247        0.01674710391567
C           12.12215687238516        2.37256509088427       -0.06673718867629
C           12.82957713397586        1.13182938692105       -0.16163475803188
N           14.18284114441134        1.34170097565570       -0.11841722459645
H           11.12524837244638       -0.10441345238373       -0.36335038662682
H           11.12579114165738       -2.68794738189030       -0.46834532520556
H           13.00817341969507       -4.58976521731663       -0.13944153496029
H           14.98064950261500       -5.32196517375080       -1.69726721799353
H           14.99135551232592       -7.78301058852808       -1.46335662959318
H           15.38404360143755       -9.54109032771284       -0.05042093013578
H           16.27459114305100       -7.39473794049228        2.60433604601535
H           16.25883704805082       -4.92652670006211        2.37248332229512
H           18.22047527086266       -4.51122346600208        0.55000894594130
H           20.10082070271514       -2.58935898326430        0.36126600492095
H           20.05325982897151        2.55619571943765       -0.46284597460455
H           18.14887635708764        4.46335318286245       -0.46134761539224
H           16.68219390155638        5.04795840255679        1.69461339691833
H           16.66198020785522        7.52626932963350        1.67966116235372
H           15.03751683226432        9.38086577621389       -0.84424201150086
H           14.37039486083555        7.48415702388733       -1.93849977539289
H           14.39759345712929        5.01296169236910       -1.92982929013492
H           12.90803071202211        4.40911113526957        0.12091462634943
H           11.04769554901484        2.46529521511219       -0.05663970859901
Fe          28.99482974112320        0.04175029718820       -0.11505520943792
C           32.37733550814102        0.05075721891307       -0.29360918653465
C           31.72079068978846        1.25177916718363       -0.46550946851782
C           32.39554591760891        2.49291021383638       -0.69768697263324
C           31.44745545058844        3.45900130851595       -0.67527699284587
C           30.19116810150331        2.80323993454735       -0.45291928183321
N           30.37180372197941        1.45228942861526       -0.33105656390060
C           28.97834021479558        3.47143316530738       -0.31650639942977
C           28.97002840213267        4.95243737217653       -0.39432895992466
C           29.33372852876336        5.60425898270171       -1.57269009838346
C           29.32264441638041        6.98857383265385       -1.64766706901276
C           28.95212027871923        7.73820726987172       -0.53361475395822
O           28.93149565623769        9.09555769652841       -0.56217965803865
C           28.58863418922052        7.09850681897630        0.65013251004954
C           28.59449365336345        5.71632829885085        0.71301278856312
C           27.77110530064430        2.81138074196240       -0.13592502435974
C           26.50231228857703        3.47556028045263       -0.08992005925453
C           25.55525760238222        2.50783811928170       -0.05055573307546
N           27.59643006635525        1.44776915701836       -0.09859498361601
C           26.24732712595876        1.25742391365043       -0.06551269816758
C           25.58936785186106        0.02079509911679       -0.07145057395733
C           26.26675370762344       -1.20425245230398       -0.02569432635344
C           25.59604606471602       -2.46592375878962       -0.00944919141792
C           26.55453983530916       -3.41258611495582        0.13590004538780
C           27.80857743079011       -2.72389578387935        0.20695225556738
N           27.61576700353367       -1.36905787731180        0.08219780478078
C           29.03155344353317       -3.35905641230584        0.37821507656961
C           29.04481179457377       -4.82622786240988        0.58189613653188
C           28.39891370326825       -5.39604157244477        1.68209738277901
C           28.41172979947610       -6.76511554431123        1.88020876416901
C           29.06785607868273       -7.58971012815636        0.96784949212851
O           29.05861177050169       -8.92877639801221        1.19063195285954
C           29.70955870042782       -7.03645519282574       -0.13798975696234
C           29.69872385993958       -5.66295870868986       -0.32353735654798
C           30.24480513843420       -2.67933379711398        0.33551689601185
C           31.52298800439635       -3.30902545191715        0.50191559979669
C           32.46016270514987       -2.35725853378522        0.28053036327955
C           31.75365857558272       -1.14295922626620        0.00626590942188
N           30.40018096433096       -1.34402180933421        0.07629580489157
H           33.45909264685964        0.05089407747718       -0.36812562851800
H           33.46015203580647        2.59368743873192       -0.83775042068482
H           31.57762185396884        4.52307581164634       -0.78750876727465
H           29.60969689996898        5.02152410022818       -2.44443945675143
H           29.59912068234792        7.49056756110376       -2.56867661232871
H           29.20312594464800        9.43431425915527       -1.42575426736554
H           28.30565223382239        7.69408119885028        1.50920985477840
H           28.32115498851356        5.21826485515338        1.63646740745006
H           26.36361838034986        4.54418181867598       -0.10991723677242
H           24.48298428351183        2.61526477870257       -0.01893082768715
H           24.52931859012094       -2.59536053204612       -0.09662964928987
H           26.43363586130761       -4.48272910666471        0.17727029125715
H           27.89857448553082       -4.75358727111334        2.39796150422671
H           27.91909416661039       -7.20878998876337        2.73654345454727
H           29.54424258932868       -9.40397798160705        0.50302147821676
H           30.21311393438623       -7.68248935355203       -0.84915775182165
H           30.18613777808696       -5.23513036752080       -1.19254420308640
H           31.67251409415244       -4.34507036863448        0.75897419737948
H           33.53455256316538       -2.44778452879003        0.30632920988355
C           21.61828714686026       -0.01452747262464       -0.10371217990101
C           20.39430124200288       -0.02031971705314       -0.09068772642385
C           22.96458441066991       -0.00239270022526       -0.10404961918576
C           24.18867739399636        0.00863663212620       -0.09496846735064

          :  Hamiltonian                  GFN1-xTB          :
         :: total energy            -214.486965587015 Eh    ::
         :: gradient norm              0.000510442539 Eh/a0 ::
         :: HOMO-LUMO gap              0.089273634452 eV    ::
         :: SCC energy              -217.756487926531 Eh    ::
         :: repulsion energy           3.376732943782 Eh    ::

    * Orbital Energies and Occupations

         #    Occupation            Energy/Eh            Energy/eV
      -------------------------------------------------------------
         1        2.0000           -0.8065084             -21.9462
       ...           ...                  ...                  ...
       183        2.0000           -0.4207126             -11.4482
       184        2.0000           -0.4201286             -11.4323
       185        2.0000           -0.4197509             -11.4220
       186        2.0000           -0.3957475             -10.7688
       187        2.0000           -0.3956981             -10.7675
       188        2.0000           -0.3952521             -10.7554
       189        1.9932           -0.3869438             -10.5293
       190        1.9906           -0.3866365             -10.5209
       191        1.9544           -0.3851198             -10.4796
       192        1.9535           -0.3850994             -10.4791
       193        1.9489           -0.3850077             -10.4766
       194        1.9487           -0.3850039             -10.4765
       195        1.6989           -0.3831923             -10.4272 (HOMO)
       196        0.3030           -0.3799116             -10.3379 (LUMO)
       197        0.2089           -0.3795070             -10.3269
       198                         -0.3381385              -9.2012
       199                         -0.3261804              -8.8758
       200                         -0.3261222              -8.8742
       201                         -0.3234703              -8.8021
       202                         -0.2995763              -8.1519
       203                         -0.2995423              -8.1510
       204                         -0.2971053              -8.0846
       205                         -0.2891862              -7.8692
       206                         -0.2684029              -7.3036
       ...                                ...                  ...
       414                          1.5108842              41.1133
      -------------------------------------------------------------
                  HL-Gap            0.0032807 Eh            0.0893 eV

Wiberg/Mayer (AO) data.
largest (>0.10) Wiberg bond orders for each atom

     #   Z sym  total        # sym  WBO       # sym  WBO       # sym  WBO
 ---------------------------------------------------------------------------
     1  26 Fe   3.160 --    39 N    0.669     7 N    0.665    19 N    0.662
                            26 N    0.659
     2   6 C    3.923 --     3 C    1.363    38 C    1.361    40 H    0.970
     3   6 C    3.926 --     2 C    1.363     7 N    1.209     4 C    1.173
     4   6 C    3.959 --     5 C    1.648     3 C    1.173    41 H    0.975
     5   6 C    3.962 --     4 C    1.648     6 C    1.176    42 H    0.972
     6   6 C    3.920 --     8 C    1.311     7 N    1.227     5 C    1.176
     7   7 N    3.378 --     6 C    1.227     3 C    1.209     1 Fe   0.665
     8   6 C    3.926 --    16 C    1.336     6 C    1.311     9 C    1.025
     9   6 C    3.988 --    10 C    1.394    15 C    1.384     8 C    1.025
    10   6 C    3.987 --    11 C    1.452     9 C    1.394    43 H    0.973
                            14 C    0.105
    11   6 C    3.988 --    10 C    1.452    12 C    1.372    44 H    0.970
                            15 C    0.102
    12   6 C    3.901 --    11 C    1.372    14 C    1.364    13 O    1.041
    13   8 O    2.044 --    12 C    1.041    45 H    0.865
    14   6 C    3.990 --    15 C    1.466    12 C    1.364    46 H    0.971
                            10 C    0.105
    15   6 C    3.987 --    14 C    1.466     9 C    1.384    47 H    0.973
                            11 C    0.102
    16   6 C    3.917 --     8 C    1.336    19 N    1.199    17 C    1.180
    17   6 C    3.957 --    18 C    1.638    16 C    1.180    48 H    0.973
    18   6 C    3.961 --    17 C    1.638    20 C    1.189    49 H    0.973
    19   7 N    3.380 --    20 C    1.248    16 C    1.199     1 Fe   0.662
    20   6 C    3.905 --    21 C    1.248    19 N    1.248    18 C    1.189
    21   6 C    3.922 --    22 C    1.249    20 C    1.248   118 C    1.205
    22   6 C    3.906 --    21 C    1.249    26 N    1.245    23 C    1.190
    23   6 C    3.960 --    24 C    1.635    22 C    1.190    50 H    0.973
    24   6 C    3.958 --    23 C    1.635    25 C    1.181    51 H    0.973
    25   6 C    3.917 --    27 C    1.329    26 N    1.203    24 C    1.181
    26   7 N    3.379 --    22 C    1.245    25 C    1.203     1 Fe   0.659
    27   6 C    3.926 --    25 C    1.329    35 C    1.312    28 C    1.032
    28   6 C    3.987 --    34 C    1.391    29 C    1.381    27 C    1.032
    29   6 C    3.987 --    30 C    1.468    28 C    1.381    52 H    0.973
                            33 C    0.102
    30   6 C    3.990 --    29 C    1.468    31 C    1.363    53 H    0.971
                            34 C    0.104
    31   6 C    3.900 --    33 C    1.370    30 C    1.363    32 O    1.042
    32   8 O    2.044 --    31 C    1.042    54 H    0.865
    33   6 C    3.988 --    34 C    1.454    31 C    1.370    55 H    0.970
                            29 C    0.102
    34   6 C    3.986 --    33 C    1.454    28 C    1.391    56 H    0.972
                            30 C    0.104
    35   6 C    3.921 --    27 C    1.312    39 N    1.225    36 C    1.176
    36   6 C    3.962 --    37 C    1.647    35 C    1.176    57 H    0.973
    37   6 C    3.959 --    36 C    1.647    38 C    1.175    58 H    0.975
    38   6 C    3.925 --     2 C    1.361    39 N    1.211    37 C    1.175
    39   7 N    3.380 --    35 C    1.225    38 C    1.211     1 Fe   0.669
    40   1 H    1.001 --     2 C    0.970
    41   1 H    0.998 --     4 C    0.975
    42   1 H    1.005 --     5 C    0.972
    43   1 H    1.004 --    10 C    0.973
    44   1 H    0.999 --    11 C    0.970
    45   1 H    0.887 --    13 O    0.865
    46   1 H    0.999 --    14 C    0.971
    47   1 H    1.004 --    15 C    0.973
    48   1 H    1.005 --    17 C    0.973
    49   1 H    1.002 --    18 C    0.973
    50   1 H    1.002 --    23 C    0.973
    51   1 H    1.005 --    24 C    0.973
    52   1 H    1.005 --    29 C    0.973
    53   1 H    0.999 --    30 C    0.971
    54   1 H    0.886 --    32 O    0.865
    55   1 H    0.999 --    33 C    0.970
    56   1 H    1.005 --    34 C    0.972
    57   1 H    1.005 --    36 C    0.973
    58   1 H    0.998 --    37 C    0.975
    59  26 Fe   3.155 --    97 N    0.669    65 N    0.664    77 N    0.662
                            84 N    0.658
    60   6 C    3.923 --    61 C    1.363    96 C    1.361    98 H    0.970
    61   6 C    3.926 --    60 C    1.363    65 N    1.209    62 C    1.173
    62   6 C    3.959 --    63 C    1.648    61 C    1.173    99 H    0.975
    63   6 C    3.962 --    62 C    1.648    64 C    1.176   100 H    0.972
    64   6 C    3.920 --    66 C    1.311    65 N    1.227    63 C    1.176
    65   7 N    3.378 --    64 C    1.227    61 C    1.209    59 Fe   0.664
    66   6 C    3.925 --    74 C    1.336    64 C    1.311    67 C    1.025
    67   6 C    3.988 --    68 C    1.394    73 C    1.384    66 C    1.025
    68   6 C    3.987 --    69 C    1.452    67 C    1.394   101 H    0.973
                            72 C    0.105
    69   6 C    3.988 --    68 C    1.452    70 C    1.372   102 H    0.970
                            73 C    0.102
    70   6 C    3.901 --    69 C    1.372    72 C    1.364    71 O    1.041
    71   8 O    2.044 --    70 C    1.041   103 H    0.865
    72   6 C    3.990 --    73 C    1.466    70 C    1.364   104 H    0.971
                            68 C    0.105
    73   6 C    3.987 --    72 C    1.466    67 C    1.384   105 H    0.973
                            69 C    0.102
    74   6 C    3.917 --    66 C    1.336    77 N    1.199    75 C    1.180
    75   6 C    3.957 --    76 C    1.638    74 C    1.180   106 H    0.973
    76   6 C    3.960 --    75 C    1.638    78 C    1.189   107 H    0.973
    77   7 N    3.380 --    78 C    1.248    74 C    1.199    59 Fe   0.662
    78   6 C    3.905 --    79 C    1.248    77 N    1.248    76 C    1.189
    79   6 C    3.921 --    80 C    1.249    78 C    1.248   120 C    1.205
    80   6 C    3.906 --    79 C    1.249    84 N    1.245    81 C    1.190
    81   6 C    3.960 --    82 C    1.635    80 C    1.190   108 H    0.973
    82   6 C    3.958 --    81 C    1.635    83 C    1.181   109 H    0.973
    83   6 C    3.917 --    85 C    1.330    84 N    1.203    82 C    1.181
    84   7 N    3.378 --    80 C    1.245    83 C    1.203    59 Fe   0.658
    85   6 C    3.925 --    83 C    1.330    93 C    1.312    86 C    1.032
    86   6 C    3.987 --    92 C    1.391    87 C    1.381    85 C    1.032
    87   6 C    3.987 --    88 C    1.468    86 C    1.381   110 H    0.973
                            91 C    0.102
    88   6 C    3.990 --    87 C    1.468    89 C    1.363   111 H    0.971
                            92 C    0.104
    89   6 C    3.900 --    91 C    1.371    88 C    1.363    90 O    1.042
    90   8 O    2.044 --    89 C    1.042   112 H    0.865
    91   6 C    3.988 --    92 C    1.453    89 C    1.371   113 H    0.970
                            87 C    0.102
    92   6 C    3.986 --    91 C    1.453    86 C    1.391   114 H    0.972
                            88 C    0.104
    93   6 C    3.920 --    85 C    1.312    97 N    1.225    94 C    1.176
    94   6 C    3.962 --    95 C    1.647    93 C    1.176   115 H    0.973
    95   6 C    3.959 --    94 C    1.647    96 C    1.175   116 H    0.975
    96   6 C    3.925 --    60 C    1.361    97 N    1.211    95 C    1.175
    97   7 N    3.380 --    93 C    1.225    96 C    1.211    59 Fe   0.669
    98   1 H    1.001 --    60 C    0.970
    99   1 H    0.998 --    62 C    0.975
   100   1 H    1.005 --    63 C    0.972
   101   1 H    1.004 --    68 C    0.973
   102   1 H    0.999 --    69 C    0.970
   103   1 H    0.887 --    71 O    0.865
   104   1 H    0.999 --    72 C    0.971
   105   1 H    1.004 --    73 C    0.973
   106   1 H    1.005 --    75 C    0.973
   107   1 H    1.002 --    76 C    0.973
   108   1 H    1.002 --    81 C    0.973
   109   1 H    1.005 --    82 C    0.973
   110   1 H    1.005 --    87 C    0.973
   111   1 H    0.999 --    88 C    0.971
   112   1 H    0.886 --    90 O    0.865
   113   1 H    0.999 --    91 C    0.970
   114   1 H    1.005 --    92 C    0.972
   115   1 H    1.005 --    94 C    0.973
   116   1 H    0.998 --    95 C    0.975
   117   6 C    3.922 --   118 C    2.447   119 C    1.327
   118   6 C    3.916 --   117 C    2.447    21 C    1.205   120 C    0.196
   119   6 C    3.922 --   120 C    2.447   117 C    1.327
   120   6 C    3.915 --   119 C    2.447    79 C    1.205   118 C    0.196
 ---------------------------------------------------------------------------

           -------------------------------------------------
          | TOTAL ENERGY             -214.486965587015 Eh   |
          | GRADIENT NORM               0.000510442539 Eh/α |
          | HOMO-LUMO GAP               0.089273634452 eV   |
           -------------------------------------------------

 * finished run on 2022/07/29 at 20:09:55.623
