   * xtb version 6.5.1 (b24c23e) compiled by 'conda@728c89f4b128' on 2022-07-12
          program call               : xtb Ni_PhOH_C2_2.xyz --gfn 1 --opt -T 48

   ID    Z sym.   atoms
    1   28 Ni     1, 59
    2    6 C      2-6, 8-12, 14-18, 20-25, 27-31, 33-38, 60-64, 66-70, 72-76,
                  78-83, 85-89, 91-96, 117, 118
    3    7 N      7, 19, 26, 39, 65, 77, 84, 97
    4    8 O      13, 32, 71, 90
    5    1 H      40-58, 98-116
########################################################################
[WARNING] Please study the warnings concerning your input carefully
-1- prog_main_parseArguments: Unknown option '-T' provided
########################################################################

          :  Hamiltonian                  GFN1-xTB          :
 * total energy  :  -212.2451591 Eh     change       -0.1206871E-08 Eh
 * total energy  :  -212.4688960 Eh     change       -0.2237370E+00 Eh
 * total energy  :  -212.5458111 Eh     change       -0.7691510E-01 Eh
 * total energy  :  -212.5747116 Eh     change       -0.2890050E-01 Eh
 * total energy  :  -212.5860156 Eh     change       -0.1130402E-01 Eh
 * total energy  :  -212.5926890 Eh     change       -0.6673348E-02 Eh
 * total energy  :  -212.5964923 Eh     change       -0.3803276E-02 Eh
 * total energy  :  -212.5987261 Eh     change       -0.2233818E-02 Eh
 * total energy  :  -212.6003493 Eh     change       -0.1623276E-02 Eh
 * total energy  :  -212.6014165 Eh     change       -0.1067172E-02 Eh
 * total energy  :  -212.6035430 Eh     change       -0.1218985E-04 Eh
 * total energy  :  -212.6035660 Eh     change       -0.2304710E-04 Eh
 * total energy  :  -212.6035798 Eh     change       -0.1378995E-04 Eh
 * total energy  :  -212.6035928 Eh     change       -0.1295346E-04 Eh
 * total energy  :  -212.6036007 Eh     change       -0.7880146E-05 Eh
 * total energy  :  -212.6036069 Eh     change       -0.6202115E-05 Eh
 * total energy  :  -212.6036126 Eh     change       -0.5752075E-05 Eh
 * total energy  :  -212.6036178 Eh     change       -0.5143829E-05 Eh
 * total energy  :  -212.6036223 Eh     change       -0.4514508E-05 Eh
   *** GEOMETRY OPTIMIZATION CONVERGED AFTER 32 ITERATIONS ***

 final structure:
================
118
 xtb: 6.5.1 (b24c23e)
Ni          16.86598029361522       -0.05864739011212       -0.05764618890046
C           13.48070025172886       -0.10440258951668       -0.22051770012972
C           14.14894238673808       -1.31024552383518       -0.27082049202682
C           13.48901510534322       -2.57612386930530       -0.36996652549773
C           14.44517216927822       -3.52426528387835       -0.23185494201771
C           15.69221659892098       -2.83706078260463       -0.06415659945800
N           15.50217525750174       -1.47837487962231       -0.11318864772008
C           16.89607373161758       -3.46993807588573        0.21792934681709
C           16.91099410282275       -4.94798903309575        0.35299619555133
C           16.63093652889239       -5.76087992459476       -0.74497266161686
C           16.64841596022183       -7.14218346666923       -0.62539972107020
C           16.94314142961022       -7.72541115934228        0.60457999587543
O           16.96848363759123       -9.07367346279817        0.76674112349532
C           17.22232335678489       -6.92360272965907        1.70974525762720
C           17.20825486694914       -5.54601321140142        1.57932177883622
C           18.09032337250357       -2.77644189384324        0.36445099777858
C           19.35001079393254       -3.40839024264760        0.61447531709883
C           20.29551900450896       -2.44175671478654        0.53432967481597
N           18.26401640795807       -1.42583283222833        0.15909379652568
C           19.61575586749364       -1.22366916677307        0.22975815623717
C           20.27618128141653       -0.02160627839901       -0.03910938155810
C           19.59075016109881        1.17214801932970       -0.27966380642070
C           20.24167642240207        2.41031685541742       -0.56535775933494
C           19.27847161652610        3.36317996746479       -0.58469770926295
C           18.03820658319400        2.70208032986092       -0.31591840325893
N           18.23697249608075        1.34752333751511       -0.17675121760711
C           16.82379784991988        3.36344060557728       -0.17823711328927
C           16.81933501259057        4.84525716020162       -0.19582705860187
C           17.53424337342600        5.56191292715941        0.76749437166717
C           17.53279319294295        6.94517745771440        0.76807952709258
C           16.81760687332870        7.63564998291235       -0.20886777889982
O           16.83952644121268        8.99311411379688       -0.18094956431540
C           16.10661972801772        6.93492659963497       -1.18030723281211
C           16.10733983600361        5.54851258210311       -1.16778922513382
C           15.61906518344485        2.68661854738257       -0.03668333851382
C           14.34618570964861        3.33096624162756        0.10471429565502
C           13.40654616791713        2.35701869440032        0.06314488102479
C           14.10641265162215        1.11705851381517       -0.07754980317807
N           15.46271915763185        1.32400106448197       -0.10017135708470
H           12.39824088856945       -0.11938969205031       -0.27224885034064
H           12.42686810663740       -2.70250374400048       -0.50732414776992
H           14.32711192280967       -4.59567620315526       -0.22701571241042
H           16.41347667920067       -5.30762846564299       -1.70574061420051
H           16.43581106275839       -7.77031009702869       -1.48387569598608
H           16.76203495214119       -9.53137400508793       -0.05925690842667
H           17.44692157673975       -7.39135385171141        2.66034417644434
H           17.41546812499057       -4.92175149293390        2.44125967371939
H           19.48631702642406       -4.45986082796695        0.80737149262487
H           21.36138390700865       -2.53371727825697        0.66303913475648
H           21.30067852991868        2.52304808239923       -0.72935593049233
H           19.38699684231711        4.41838456427962       -0.77545521462974
H           18.08203390899909        5.02422383792369        1.53331311436230
H           18.07916733170218        7.50308514497950        1.51845169704538
H           16.31129417549125        9.36891439340006       -0.89796354091092
H           15.55718312112237        7.47671981897753       -1.94276148448204
H           15.56465484460528        5.00500479941337       -1.93325125126246
H           14.20243695270197        4.39308421422454        0.21955163146821
H           12.33399825417460        2.44957615089389        0.12757865355972
Ni          27.72176251754959        0.04977136686010       -0.06539035000606
C           31.10703659418767        0.07166355919491       -0.23325294995578
C           30.43876438482420        1.25780381341111       -0.45602699562495
C           31.09869355366460        2.49635908813773       -0.73575743492237
C           30.14254014506882        3.45451204399320       -0.73509343718153
C           28.89550005948175        2.79848455697425       -0.47050431483695
N           29.08552719379048        1.44681128506711       -0.32414658943446
C           27.69164994391249        3.46530625138479       -0.28215742530416
C           27.67673974598604        4.94744335650558       -0.36055209297881
C           27.95679975613480        5.59439856205199       -1.56378745172207
C           27.93933096866057        6.97856865558498       -1.64362385362036
C           27.64460406132227        7.73222604804633       -0.51004381661660
O           27.61924778245814        9.08980442416225       -0.54299611018067
C           27.36541650696234        7.09726864327823        0.69872148941413
C           27.37948116876449        5.71521889167165        0.76728851522899
C           26.49738479066502        2.80002330904458       -0.03769950719135
C           25.23770288572121        3.46130716151102        0.11906542774172
C           24.29218708894990        2.49317931208374        0.17842994991269
N           26.32368619287515        1.43392311490195       -0.04715997308960
C           24.97194706397500        1.24399759437592        0.05180289146800
C           24.31154419581971        0.01577811255977       -0.04177301476179
C           24.99701403282375       -1.20011672463923       -0.10859722059514
C           24.34609440542384       -2.46646729642353       -0.21374794972077
C           25.30929532729170       -3.41224419026604       -0.09616606507385
C           26.54956029788073       -2.71941928789901        0.07499682880060
N           26.35080125821869       -1.35890402430124        0.01838007659999
C           27.76394886393763       -3.35421702482131        0.30616520093517
C           27.76838819919335       -4.82322478035705        0.50136181389349
C           27.05348624268586       -5.39423447142551        1.55755268941669
C           27.05494397087352       -6.76309939929961        1.75662369102692
C           27.77013109363961       -7.58661040301310        0.88886364442450
O           27.74822398080660       -8.92601917314318        1.11128674418462
C           28.48110670394442       -7.03253261651729       -0.17307908531551
C           28.48037953405707       -5.65867043259913       -0.35963396564397
C           28.96869777369557       -2.66411386017447        0.34914595533245
C           30.24157370351806       -3.28150844277174        0.58151924453503
C           31.18121539902208       -2.32360083957282        0.40063236487914
C           30.48135074655342       -1.11665971907230        0.08348764279328
N           29.12504525781941       -1.32471122990636        0.09079503770669
H           32.18949339735144        0.07910330848953       -0.28663208685434
H           32.16084258715058        2.60170942904209       -0.88983186899609
H           30.26059507698963        4.51553583585204       -0.88400881350232
H           28.17426893379159        5.00799554513332       -2.44958607645079
H           28.15193561215755        7.47703217462676       -2.58333552675042
H           27.82569040610138        9.42426624839631       -1.42611577967045
H           27.14081488347659        7.69656192352991        1.57237751067594
H           27.17227753893250        5.22107717243428        1.70987371504479
H           25.10140115751258        4.52957319208507        0.15915038066677
H           23.22632835156504        2.60266697671447        0.29266587184493
H           23.28709036020409       -2.60155523299356       -0.35985869410963
H           25.20077535848434       -4.48389870386955       -0.13355027194159
H           26.50569716492885       -4.75222143006136        2.23829413928102
H           26.50857625930344       -7.20756042452373        2.57929038173577
H           28.27645812585620       -9.40081751139779        0.45561957991336
H           29.03054109803912       -7.67812516985741       -0.84990203612090
H           29.02306017420508       -5.23062652789941       -1.19516765831926
H           30.38532753061573       -4.31615645950764        0.84756859046222
H           32.25376235192017       -2.40595806533060        0.47768637102194
C           21.68570952966741       -0.00901608296835       -0.04789172507777
C           22.90201763884550        0.00204272945649       -0.04868631883955

          :  Hamiltonian                  GFN1-xTB          :
         :: total energy            -212.603622269195 Eh    ::
         :: gradient norm              0.000478923326 Eh/a0 ::
         :: HOMO-LUMO gap              1.190345087498 eV    ::
         :: SCC energy              -215.729161071842 Eh    ::
         :: repulsion energy           3.233346504205 Eh    ::

    * Orbital Energies and Occupations

         #    Occupation            Energy/Eh            Energy/eV
      -------------------------------------------------------------
         1        2.0000           -0.8053189             -21.9138
       ...           ...                  ...                  ...
       181        2.0000           -0.4190237             -11.4022
       182        2.0000           -0.3961225             -10.7790
       183        2.0000           -0.3959343             -10.7739
       184        2.0000           -0.3956607             -10.7665
       185        2.0000           -0.3956140             -10.7652
       186        2.0000           -0.3946724             -10.7396
       187        2.0000           -0.3946681             -10.7395
       188        2.0000           -0.3943925             -10.7320
       189        2.0000           -0.3935692             -10.7096
       190        2.0000           -0.3935666             -10.7095
       191        2.0000           -0.3935313             -10.7085
       192        2.0000           -0.3935304             -10.7085
       193        2.0000           -0.3811832             -10.3725 (HOMO)
       194                         -0.3374388              -9.1822 (LUMO)
       195                         -0.3268705              -8.8946
       196                         -0.3268555              -8.8942
       197                         -0.3246889              -8.8352
       198                         -0.3246664              -8.8346
       199                         -0.3209739              -8.7341
       200                         -0.2948116              -8.0222
       201                         -0.2858620              -7.7787
       202                         -0.2672392              -7.2719
       203                         -0.2672361              -7.2719
       204                         -0.2670266              -7.2662
       ...                                ...                  ...
       406                          1.3440312              36.5730
      -------------------------------------------------------------
                  HL-Gap            0.0437444 Eh            1.1903 eV

Wiberg/Mayer (AO) data.
largest (>0.10) Wiberg bond orders for each atom

     #   Z sym  total        # sym  WBO       # sym  WBO       # sym  WBO
 ---------------------------------------------------------------------------
     1  28 Ni   3.023 --     7 N    0.665    39 N    0.664    19 N    0.664
                            26 N    0.663
     2   6 C    3.934 --     3 C    1.364    38 C    1.362    40 H    0.970
     3   6 C    3.924 --     2 C    1.364     7 N    1.213     4 C    1.175
     4   6 C    3.960 --     5 C    1.649     3 C    1.175    41 H    0.975
     5   6 C    3.963 --     4 C    1.649     6 C    1.178    42 H    0.973
     6   6 C    3.919 --     8 C    1.324     7 N    1.220     5 C    1.178
     7   7 N    3.402 --     6 C    1.220     3 C    1.213     1 Ni   0.665
     8   6 C    3.939 --    16 C    1.330     6 C    1.324     9 C    1.021
     9   6 C    3.989 --    10 C    1.396    15 C    1.386     8 C    1.021
    10   6 C    3.989 --    11 C    1.451     9 C    1.396    43 H    0.973
                            14 C    0.106
    11   6 C    3.988 --    10 C    1.451    12 C    1.373    44 H    0.970
                            15 C    0.103
    12   6 C    3.902 --    11 C    1.373    14 C    1.365    13 O    1.040
    13   8 O    2.043 --    12 C    1.040    45 H    0.865
    14   6 C    3.990 --    15 C    1.465    12 C    1.365    46 H    0.971
                            10 C    0.106
    15   6 C    3.989 --    14 C    1.465     9 C    1.386    47 H    0.973
                            11 C    0.103
    16   6 C    3.915 --     8 C    1.330    19 N    1.205    17 C    1.184
    17   6 C    3.959 --    18 C    1.635    16 C    1.184    48 H    0.973
    18   6 C    3.962 --    17 C    1.635    20 C    1.192    49 H    0.969
    19   7 N    3.407 --    20 C    1.237    16 C    1.205     1 Ni   0.664
    20   6 C    3.909 --    21 C    1.268    19 N    1.237    18 C    1.192
    21   6 C    3.944 --    22 C    1.268    20 C    1.268   117 C    1.171
    22   6 C    3.909 --    21 C    1.268    26 N    1.234    23 C    1.193
    23   6 C    3.962 --    24 C    1.633    22 C    1.193    50 H    0.969
    24   6 C    3.960 --    23 C    1.633    25 C    1.186    51 H    0.973
    25   6 C    3.915 --    27 C    1.324    26 N    1.208    24 C    1.186
    26   7 N    3.406 --    22 C    1.234    25 C    1.208     1 Ni   0.663
    27   6 C    3.939 --    35 C    1.324    25 C    1.324    28 C    1.029
    28   6 C    3.989 --    34 C    1.393    29 C    1.382    27 C    1.029
    29   6 C    3.988 --    30 C    1.468    28 C    1.382    52 H    0.973
                            33 C    0.102
    30   6 C    3.990 --    29 C    1.468    31 C    1.363    53 H    0.971
                            34 C    0.105
    31   6 C    3.901 --    33 C    1.372    30 C    1.363    32 O    1.040
    32   8 O    2.044 --    31 C    1.040    54 H    0.865
    33   6 C    3.988 --    34 C    1.452    31 C    1.372    55 H    0.970
                            29 C    0.102
    34   6 C    3.988 --    33 C    1.452    28 C    1.393    56 H    0.972
                            30 C    0.105
    35   6 C    3.920 --    27 C    1.324    39 N    1.219    36 C    1.178
    36   6 C    3.963 --    37 C    1.647    35 C    1.178    57 H    0.973
    37   6 C    3.959 --    36 C    1.647    38 C    1.176    58 H    0.975
    38   6 C    3.924 --     2 C    1.362    39 N    1.214    37 C    1.176
    39   7 N    3.401 --    35 C    1.219    38 C    1.214     1 Ni   0.664
    40   1 H    1.000 --     2 C    0.970
    41   1 H    0.998 --     4 C    0.975
    42   1 H    1.005 --     5 C    0.973
    43   1 H    1.004 --    10 C    0.973
    44   1 H    0.999 --    11 C    0.970
    45   1 H    0.887 --    13 O    0.865
    46   1 H    0.999 --    14 C    0.971
    47   1 H    1.004 --    15 C    0.973
    48   1 H    1.005 --    17 C    0.973
    49   1 H    1.006 --    18 C    0.969
    50   1 H    1.006 --    23 C    0.969
    51   1 H    1.004 --    24 C    0.973
    52   1 H    1.005 --    29 C    0.973
    53   1 H    0.999 --    30 C    0.971
    54   1 H    0.887 --    32 O    0.865
    55   1 H    0.999 --    33 C    0.970
    56   1 H    1.005 --    34 C    0.972
    57   1 H    1.005 --    36 C    0.973
    58   1 H    0.998 --    37 C    0.975
    59  28 Ni   3.023 --    65 N    0.665    97 N    0.664    77 N    0.664
                            84 N    0.663
    60   6 C    3.934 --    61 C    1.364    96 C    1.362    98 H    0.970
    61   6 C    3.924 --    60 C    1.364    65 N    1.213    62 C    1.175
    62   6 C    3.960 --    63 C    1.649    61 C    1.175    99 H    0.975
    63   6 C    3.963 --    62 C    1.649    64 C    1.178   100 H    0.973
    64   6 C    3.919 --    66 C    1.324    65 N    1.220    63 C    1.178
    65   7 N    3.402 --    64 C    1.220    61 C    1.213    59 Ni   0.665
    66   6 C    3.939 --    74 C    1.330    64 C    1.324    67 C    1.021
    67   6 C    3.989 --    68 C    1.396    73 C    1.386    66 C    1.021
    68   6 C    3.989 --    69 C    1.451    67 C    1.396   101 H    0.973
                            72 C    0.106
    69   6 C    3.988 --    68 C    1.451    70 C    1.373   102 H    0.970
                            73 C    0.103
    70   6 C    3.902 --    69 C    1.373    72 C    1.365    71 O    1.040
    71   8 O    2.043 --    70 C    1.040   103 H    0.865
    72   6 C    3.990 --    73 C    1.465    70 C    1.365   104 H    0.971
                            68 C    0.106
    73   6 C    3.989 --    72 C    1.465    67 C    1.386   105 H    0.973
                            69 C    0.103
    74   6 C    3.915 --    66 C    1.330    77 N    1.205    75 C    1.184
    75   6 C    3.959 --    76 C    1.635    74 C    1.184   106 H    0.973
    76   6 C    3.962 --    75 C    1.635    78 C    1.192   107 H    0.969
    77   7 N    3.407 --    78 C    1.237    74 C    1.205    59 Ni   0.664
    78   6 C    3.909 --    79 C    1.268    77 N    1.237    76 C    1.192
    79   6 C    3.944 --    80 C    1.268    78 C    1.268   118 C    1.171
    80   6 C    3.909 --    79 C    1.268    84 N    1.234    81 C    1.193
    81   6 C    3.962 --    82 C    1.633    80 C    1.193   108 H    0.969
    82   6 C    3.960 --    81 C    1.633    83 C    1.186   109 H    0.973
    83   6 C    3.915 --    85 C    1.324    84 N    1.208    82 C    1.186
    84   7 N    3.406 --    80 C    1.234    83 C    1.208    59 Ni   0.663
    85   6 C    3.939 --    93 C    1.324    83 C    1.324    86 C    1.029
    86   6 C    3.989 --    92 C    1.393    87 C    1.382    85 C    1.029
    87   6 C    3.988 --    88 C    1.468    86 C    1.382   110 H    0.973
                            91 C    0.102
    88   6 C    3.990 --    87 C    1.468    89 C    1.363   111 H    0.971
                            92 C    0.105
    89   6 C    3.901 --    91 C    1.372    88 C    1.363    90 O    1.040
    90   8 O    2.044 --    89 C    1.040   112 H    0.865
    91   6 C    3.988 --    92 C    1.452    89 C    1.372   113 H    0.970
                            87 C    0.102
    92   6 C    3.988 --    91 C    1.452    86 C    1.393   114 H    0.972
                            88 C    0.105
    93   6 C    3.920 --    85 C    1.324    97 N    1.219    94 C    1.178
    94   6 C    3.963 --    95 C    1.647    93 C    1.178   115 H    0.973
    95   6 C    3.959 --    94 C    1.647    96 C    1.176   116 H    0.975
    96   6 C    3.924 --    60 C    1.362    97 N    1.214    95 C    1.176
    97   7 N    3.401 --    93 C    1.219    96 C    1.214    59 Ni   0.664
    98   1 H    1.000 --    60 C    0.970
    99   1 H    0.998 --    62 C    0.975
   100   1 H    1.005 --    63 C    0.973
   101   1 H    1.004 --    68 C    0.973
   102   1 H    0.999 --    69 C    0.970
   103   1 H    0.887 --    71 O    0.865
   104   1 H    0.999 --    72 C    0.971
   105   1 H    1.004 --    73 C    0.973
   106   1 H    1.005 --    75 C    0.973
   107   1 H    1.006 --    76 C    0.969
   108   1 H    1.006 --    81 C    0.969
   109   1 H    1.004 --    82 C    0.973
   110   1 H    1.005 --    87 C    0.973
   111   1 H    0.999 --    88 C    0.971
   112   1 H    0.887 --    90 O    0.865
   113   1 H    0.999 --    91 C    0.970
   114   1 H    1.005 --    92 C    0.972
   115   1 H    1.005 --    94 C    0.973
   116   1 H    0.998 --    95 C    0.975
   117   6 C    3.937 --   118 C    2.587    21 C    1.171
   118   6 C    3.937 --   117 C    2.587    79 C    1.171
 ---------------------------------------------------------------------------

           -------------------------------------------------
          | TOTAL ENERGY             -212.603622269195 Eh   |
          | GRADIENT NORM               0.000478923326 Eh/α |
          | HOMO-LUMO GAP               1.190345087498 eV   |
           -------------------------------------------------

 * finished run on 2022/07/30 at 05:51:21.709
