   * xtb version 6.5.1 (b24c23e) compiled by 'conda@728c89f4b128' on 2022-07-12
          program call               : xtb Zn_BSA_C6_2.xyz --gfn 1 --opt -T 48

   ID    Z sym.   atoms
    1   30 Zn     1, 65
    2    6 C      2-6, 8-12, 17-21, 23-28, 30-34, 39-44, 66-70, 72-76, 81-85,
                  87-92, 94-98, 103-108, 129-134
    3    7 N      7, 22, 29, 45, 71, 86, 93, 109
    4   16 S      13, 35, 77, 99
    5    8 O      14-16, 36-38, 78-80, 100-102
    6    1 H      46-64, 110-128
########################################################################
[WARNING] Please study the warnings concerning your input carefully
-1- prog_main_parseArguments: Unknown option '-T' provided
########################################################################

          :  Hamiltonian                  GFN1-xTB          :
 * total energy  :  -265.1229727 Eh     change       -0.1933643E-08 Eh
 * total energy  :  -265.9451314 Eh     change       -0.8221587E+00 Eh
 * total energy  :  -266.0844740 Eh     change       -0.1393427E+00 Eh
 * total energy  :  -266.1560956 Eh     change       -0.7162159E-01 Eh
 * total energy  :  -266.1830230 Eh     change       -0.2692734E-01 Eh
 * total energy  :  -266.1970071 Eh     change       -0.1398414E-01 Eh
 * total energy  :  -266.2057396 Eh     change       -0.8732489E-02 Eh
 * total energy  :  -266.2123726 Eh     change       -0.6633047E-02 Eh
 * total energy  :  -266.2178282 Eh     change       -0.5455526E-02 Eh
 * total energy  :  -266.2221791 Eh     change       -0.4350881E-02 Eh
 * total energy  :  -266.2377322 Eh     change       -0.1248463E-04 Eh
 * total energy  :  -266.2377588 Eh     change       -0.2660454E-04 Eh
 * total energy  :  -266.2377745 Eh     change       -0.1571613E-04 Eh
 * total energy  :  -266.2377973 Eh     change       -0.2278476E-04 Eh
 * total energy  :  -266.2378193 Eh     change       -0.2200784E-04 Eh
 * total energy  :  -266.2378335 Eh     change       -0.1420348E-04 Eh
 * total energy  :  -266.2378420 Eh     change       -0.8494168E-05 Eh
 * total energy  :  -266.2378474 Eh     change       -0.5415113E-05 Eh
 * total energy  :  -266.2378511 Eh     change       -0.3630332E-05 Eh
   *** GEOMETRY OPTIMIZATION CONVERGED AFTER 56 ITERATIONS ***

 final structure:
================
134
 xtb: 6.5.1 (b24c23e)
Zn          15.71553770266629        0.01737514379339        0.04493522569508
C           12.30858048006402        0.13613254051338        0.09199561404456
C           12.93293852032246       -0.18017310934106        1.29235177547492
C           12.25345607704075       -0.48244059277518        2.52127573363063
C           13.20793501545308       -0.73151144753514        3.45191848208052
C           14.48387544913352       -0.57358812348573        2.80440635095493
N           14.28153420050353       -0.24967745177431        1.49522636669510
C           15.73339545667787       -0.75001197906171        3.41138708689336
C           15.74293113413044       -1.08529088108847        4.85643680929385
C           15.20814884310597       -0.19650425382483        5.79260021249286
C           15.21972444457825       -0.50478046786565        7.14300131440971
C           15.76631823992611       -1.71284472278543        7.54468769681999
S           15.79143952300834       -2.10738002770339        9.25220679305962
O           15.71245215904561       -0.91840773023289       10.04822196502400
O           14.36376061905481       -2.87902878953266        9.33829363799883
O           16.82331125602578       -3.05917272920864        9.54479022187220
C           16.30519625313163       -2.61454201125938        6.64113311184664
C           16.29214779141487       -2.29356136843797        5.29401739562830
C           16.97547400908532       -0.63965932443787        2.77572310458884
C           18.25342761690112       -0.76440122261526        3.42131456612633
C           19.20216123586412       -0.57984098952917        2.46842298905007
N           17.17223931945486       -0.36713293725768        1.44886973480851
C           18.51496635995591       -0.33252215451531        1.23491707171121
C           19.14960161937841       -0.09597622354193       -0.00104154942374
C           18.49957438122589        0.17819551613884       -1.22113516733320
C           19.16840004057444        0.38201189428320       -2.47249443486652
C           18.20863243993789        0.63011759087998       -3.39972575533209
C           16.94314534492511        0.58976214259598       -2.71983857436421
N           17.15687800620932        0.30083300104454       -1.39908276716875
C           15.69481567125293        0.79012606841955       -3.32003528283231
C           15.68644543764860        1.13212274141257       -4.76369751010849
C           15.06033828128727        0.28996211612927       -5.68617908409819
C           15.04716828294917        0.60798404810357       -7.03425939431485
C           15.66442041169179        1.77728850453469       -7.44798700746764
S           15.63690506185088        2.19308994991150       -9.15150022680865
O           15.80586393993559        3.60481368647200       -9.34230968803468
O           17.02179700536483        1.47800380665482       -9.61000355618512
O           14.54368408740827        1.53595877677576       -9.80229300278600
C           16.29034901119135        2.63462505970127       -6.55748722309953
C           16.30015307984466        2.30465276408206       -5.21238305116550
C           14.45339801242438        0.70130759926996       -2.67827045861392
C           13.17458162076264        0.95440742759089       -3.28889122655430
C           12.23085655666528        0.76804831773121       -2.33305342577725
C           12.92075735298252        0.41094865488548       -1.12481060663424
N           14.26469757999446        0.38493379413907       -1.36509439658929
H           11.22380291623419        0.17434118172041        0.10666024948582
H           11.18190299593050       -0.50573358797305        2.64268732060882
H           13.06491576805248       -1.00901006589207        4.48398542496562
H           14.79750669111637        0.74943537929295        5.45919822218781
H           14.81821782906357        0.18202556107898        7.87748866137760
H           14.25757461568868       -3.28798391764683       10.20569280201434
H           16.72945347675729       -3.54751974676026        6.99029289103674
H           16.69897499076813       -2.98963902977024        4.56974451462522
H           18.40482514962781       -0.95397822446425        4.47172067978911
H           20.27398671793950       -0.60111750046726        2.58436632734911
H           20.23580945902625        0.33215725289853       -2.61713457457509
H           18.34350929175433        0.81139992942567       -4.45386713992630
H           14.59311125104108       -0.62599765539195       -5.34374505006734
H           14.56367957950150       -0.03714623913611       -7.75697578364058
H           17.36856806239883        1.90716310775128      -10.40188456015303
H           16.75278115882249        3.54687772424997       -6.91299754566237
H           16.77231736346969        2.96866975232142       -4.49767629520967
H           13.02337560797529        1.24907682765916       -4.31497575168054
H           11.16083749745056        0.86911186630072       -2.42412637050519
Zn          31.75773562040407        0.03296089519814       -0.03522266462702
C           35.16452949587062        0.16168889467117       -0.03526729230608
C           34.54000187288405        0.31112634531810       -1.26750863044647
C           35.21942718754069        0.48462552523466       -2.52112299083669
C           34.26492113248445        0.59573413831563       -3.47807313923336
C           32.98899025744593        0.50249326873028       -2.81810558107562
N           33.19142613248951        0.32036041468718       -1.48179748903359
C           31.73942869244689        0.56192497953649       -3.44738387153738
C           31.72984141516901        0.78381400748244       -4.91414429198012
C           32.26489484872734        1.95550904091897       -5.45568339470866
C           32.25326030165903        2.16814863876836       -6.82438032504260
C           31.70622586221645        1.19427812940934       -7.64406083317185
S           31.68116741864648        1.45906955186006       -9.37647394106256
O           31.76001483913196        2.85816478321844       -9.67632320799730
O           33.10906021759198        0.77426703027281       -9.74158434583269
O           30.64952473597512        0.68279305537735      -10.00049040342371
C           31.16716344581840        0.02261028812245       -7.13765933755094
C           31.18034757703013       -0.17704942270239       -5.76726543960184
C           30.49737208721526        0.42998549104649       -2.81577420297717
C           29.21934951311542        0.55231577556304       -3.46164450095729
C           28.27068565261808        0.37272511371853       -2.50771298174234
N           30.30071528729658        0.19405845589545       -1.48186268759523
C           28.95800193341621        0.14775522299468       -1.27003936422020
C           28.32373970430786       -0.08829653055740       -0.03385086786368
C           28.97407784535297       -0.28378837524854        1.20119186406389
C           28.30524196802236       -0.55639422116553        2.43940165930729
C           29.26502237020749       -0.66892451219031        3.39259457497495
C           30.53055731494892       -0.45585302628052        2.74573592691030
N           30.31680789721162       -0.23626241296803        1.41173265878216
C           31.77894991909909       -0.49241742084285        3.37735867885090
C           31.78733353655359       -0.70806721910596        4.84516722809475
C           32.41404404383720       -1.83097365978415        5.39156346930128
C           32.42726167628216       -2.03315572818423        6.76182729210851
C           31.80936034814558       -1.09963285551017        7.57801582810168
S           31.83708465799052       -1.34166795830419        9.31472235400734
O           31.66877558413343       -0.09972111031207       10.01268932323225
O           30.45184552818612       -2.17496574328037        9.47705445637225
O           32.92994327098473       -2.19295996152719        9.67737558147285
C           31.18266424106908        0.02547229869474        7.06693825399453
C           31.17289034823606        0.21549710545415        5.69507444701207
C           33.02031173821168       -0.33830647295282        2.74793007584055
C           34.29927733086728       -0.32915775463385        3.40859553725925
C           35.24280050927504       -0.14860161153396        2.45145355778962
C           34.55264823276016       -0.03341154656389        1.19695407245959
N           33.20874348615204       -0.14661335325313        1.41082580809497
H           36.24928385882345        0.20330482328951       -0.03489528893903
H           36.29097225047961        0.50891683826413       -2.64242529860783
H           34.40802517779287        0.71886246684860       -4.53966606473775
H           32.67582584105287        2.71113949265462       -4.79633938213227
H           32.65499053104719        3.07765568876740       -7.25308727882210
H           33.21564319775630        0.71573404738105      -10.69873033600090
H           30.74259793249521       -0.71516353125698       -7.80683545542535
H           30.77337391778917       -1.09150413560277       -5.35160878063268
H           29.06785367994629        0.76334792858763       -4.50794407329393
H           27.19885590370813        0.39624112853727       -2.62319007588356
H           27.23777112095232       -0.65534373759411        2.55546369288228
H           29.13006032663665       -0.88999398724423        4.43909763532543
H           32.88167424943305       -2.55555472163517        4.73517185418493
H           32.91129572690631       -2.89923286270374        7.19530384637811
H           30.10789251936693       -2.07220821631467       10.37288571480022
H           30.71966525273158        0.74163850837293        7.73415038177727
H           30.70023710128389        1.09620274428747        5.27602543213907
H           34.45072065688689       -0.43499130446379        4.47085944694091
H           36.31284206013489       -0.08840283896008        2.57326385972545
C           24.35079645574570       -0.15438413911715       -0.02755420944877
C           23.12252871898313       -0.15657948580453       -0.02719058734931
C           21.77826219249824       -0.14717201494471       -0.02087977564949
C           20.55453985062289       -0.12837001991669       -0.01544160459916
C           25.69506062571688       -0.14283330604814       -0.03109970621458
C           26.91883641743005       -0.12482814146734       -0.03119470226952

          :  Hamiltonian                  GFN1-xTB          :
         :: total energy            -266.237851063037 Eh    ::
         :: gradient norm              0.000669882938 Eh/a0 ::
         :: HOMO-LUMO gap              1.128121013837 eV    ::
         :: SCC energy              -269.845588251190 Eh    ::
         :: repulsion energy           3.728526072730 Eh    ::

    * Orbital Energies and Occupations

         #    Occupation            Energy/Eh            Energy/eV
      -------------------------------------------------------------
         1        2.0000           -1.0346226             -28.1535
       ...           ...                  ...                  ...
       217        2.0000           -0.4377975             -11.9131
       218        2.0000           -0.4377941             -11.9130
       219        2.0000           -0.4374782             -11.9044
       220        2.0000           -0.4374093             -11.9025
       221        2.0000           -0.4370647             -11.8931
       222        2.0000           -0.4370556             -11.8929
       223        2.0000           -0.4368549             -11.8874
       224        2.0000           -0.4311346             -11.7318
       225        2.0000           -0.4246426             -11.5551
       226        2.0000           -0.4097112             -11.1488
       227        2.0000           -0.4097096             -11.1488
       228        2.0000           -0.4042766             -11.0009
       229        2.0000           -0.3934969             -10.7076 (HOMO)
       230                         -0.3520392              -9.5795 (LUMO)
       231                         -0.3447240              -9.3804
       232                         -0.3447130              -9.3801
       233                         -0.3402976              -9.2600
       234                         -0.3179541              -8.6520
       235                         -0.3146759              -8.5628
       236                         -0.3065805              -8.3425
       237                         -0.3065651              -8.3421
       238                         -0.3030297              -8.2459
       239                         -0.2984959              -8.1225
       240                         -0.2957913              -8.0489
       ...                                ...                  ...
       480                          1.5687688              42.6884
      -------------------------------------------------------------
                  HL-Gap            0.0414577 Eh            1.1281 eV

Wiberg/Mayer (AO) data.
largest (>0.10) Wiberg bond orders for each atom

     #   Z sym  total        # sym  WBO       # sym  WBO       # sym  WBO
 ---------------------------------------------------------------------------
     1  30 Zn   1.992 --    45 N    0.459     7 N    0.459    22 N    0.455
                            29 N    0.454
     2   6 C    3.929 --     3 C    1.358    44 C    1.358    46 H    0.971
     3   6 C    3.920 --     2 C    1.358     7 N    1.232     4 C    1.169
     4   6 C    3.960 --     5 C    1.661     3 C    1.169    47 H    0.975
     5   6 C    3.963 --     4 C    1.661     6 C    1.170    48 H    0.973
     6   6 C    3.919 --     8 C    1.313     7 N    1.246     5 C    1.170
     7   7 N    3.293 --     6 C    1.246     3 C    1.232     1 Zn   0.459
     8   6 C    3.931 --    19 C    1.321     6 C    1.313     9 C    1.031
     9   6 C    3.985 --    10 C    1.390    18 C    1.389     8 C    1.031
    10   6 C    3.986 --    11 C    1.450     9 C    1.390    49 H    0.971
                            17 C    0.105
    11   6 C    3.989 --    10 C    1.450    12 C    1.407    50 H    0.967
                            18 C    0.105
    12   6 C    3.928 --    11 C    1.407    17 C    1.406    13 S    0.754
    13  16 S    5.263 --    14 O    1.722    16 O    1.716    15 O    1.012
                            12 C    0.754
    14   8 O    2.080 --    13 S    1.722    16 O    0.139
    15   8 O    2.086 --    13 S    1.012    51 H    0.828
    16   8 O    2.074 --    13 S    1.716    14 O    0.139
    17   6 C    3.989 --    18 C    1.451    12 C    1.406    52 H    0.967
                            10 C    0.105
    18   6 C    3.986 --    17 C    1.451     9 C    1.389    53 H    0.971
                            11 C    0.105
    19   6 C    3.913 --     8 C    1.321    22 N    1.228    20 C    1.177
    20   6 C    3.959 --    21 C    1.647    19 C    1.177    54 H    0.973
    21   6 C    3.962 --    20 C    1.647    23 C    1.185    55 H    0.974
    22   7 N    3.296 --    23 C    1.262    19 C    1.228     1 Zn   0.455
    23   6 C    3.900 --    22 N    1.262    24 C    1.255    21 C    1.185
    24   6 C    3.940 --    23 C    1.255    25 C    1.254   132 C    1.192
    25   6 C    3.900 --    29 N    1.262    24 C    1.254    26 C    1.185
    26   6 C    3.962 --    27 C    1.647    25 C    1.185    56 H    0.974
    27   6 C    3.959 --    26 C    1.647    28 C    1.178    57 H    0.973
    28   6 C    3.913 --    30 C    1.321    29 N    1.228    27 C    1.178
    29   7 N    3.296 --    25 C    1.262    28 C    1.228     1 Zn   0.454
    30   6 C    3.931 --    28 C    1.321    41 C    1.313    31 C    1.030
    31   6 C    3.985 --    32 C    1.390    40 C    1.389    30 C    1.030
    32   6 C    3.986 --    33 C    1.450    31 C    1.390    58 H    0.971
                            39 C    0.106
    33   6 C    3.989 --    32 C    1.450    34 C    1.407    59 H    0.967
                            40 C    0.105
    34   6 C    3.929 --    33 C    1.407    39 C    1.406    35 S    0.753
    35  16 S    5.267 --    38 O    1.730    36 O    1.711    37 O    1.015
                            34 C    0.753
    36   8 O    2.070 --    35 S    1.711    38 O    0.138
    37   8 O    2.089 --    35 S    1.015    60 H    0.828
    38   8 O    2.087 --    35 S    1.730    36 O    0.138
    39   6 C    3.989 --    40 C    1.451    34 C    1.406    61 H    0.967
                            32 C    0.106
    40   6 C    3.986 --    39 C    1.451    31 C    1.389    62 H    0.971
                            33 C    0.105
    41   6 C    3.919 --    30 C    1.313    45 N    1.246    42 C    1.170
    42   6 C    3.963 --    43 C    1.661    41 C    1.170    63 H    0.973
    43   6 C    3.960 --    42 C    1.661    44 C    1.169    64 H    0.975
    44   6 C    3.920 --     2 C    1.358    45 N    1.232    43 C    1.169
    45   7 N    3.294 --    41 C    1.246    44 C    1.232     1 Zn   0.459
    46   1 H    1.001 --     2 C    0.971
    47   1 H    0.997 --     4 C    0.975
    48   1 H    1.004 --     5 C    0.973
    49   1 H    1.003 --    10 C    0.971
    50   1 H    1.000 --    11 C    0.967
    51   1 H    0.855 --    15 O    0.828
    52   1 H    1.000 --    17 C    0.967
    53   1 H    1.003 --    18 C    0.971
    54   1 H    1.004 --    20 C    0.973
    55   1 H    1.002 --    21 C    0.974
    56   1 H    1.002 --    26 C    0.974
    57   1 H    1.004 --    27 C    0.973
    58   1 H    1.003 --    32 C    0.971
    59   1 H    1.000 --    33 C    0.967
    60   1 H    0.855 --    37 O    0.828
    61   1 H    1.000 --    39 C    0.967
    62   1 H    1.003 --    40 C    0.971
    63   1 H    1.004 --    42 C    0.973
    64   1 H    0.997 --    43 C    0.975
    65  30 Zn   1.992 --   109 N    0.459    71 N    0.459    86 N    0.455
                            93 N    0.454
    66   6 C    3.929 --   108 C    1.358    67 C    1.358   110 H    0.971
    67   6 C    3.920 --    66 C    1.358    71 N    1.232    68 C    1.169
    68   6 C    3.960 --    69 C    1.661    67 C    1.169   111 H    0.975
    69   6 C    3.963 --    68 C    1.661    70 C    1.170   112 H    0.973
    70   6 C    3.919 --    72 C    1.313    71 N    1.246    69 C    1.170
    71   7 N    3.293 --    70 C    1.246    67 C    1.232    65 Zn   0.459
    72   6 C    3.931 --    83 C    1.321    70 C    1.313    73 C    1.031
    73   6 C    3.985 --    74 C    1.390    82 C    1.389    72 C    1.031
    74   6 C    3.986 --    75 C    1.450    73 C    1.390   113 H    0.971
                            81 C    0.105
    75   6 C    3.989 --    74 C    1.450    76 C    1.407   114 H    0.967
                            82 C    0.105
    76   6 C    3.928 --    75 C    1.407    81 C    1.406    77 S    0.754
    77  16 S    5.263 --    78 O    1.722    80 O    1.716    79 O    1.012
                            76 C    0.754
    78   8 O    2.080 --    77 S    1.722    80 O    0.139
    79   8 O    2.086 --    77 S    1.012   115 H    0.828
    80   8 O    2.074 --    77 S    1.716    78 O    0.139
    81   6 C    3.989 --    82 C    1.451    76 C    1.406   116 H    0.967
                            74 C    0.105
    82   6 C    3.986 --    81 C    1.451    73 C    1.389   117 H    0.971
                            75 C    0.105
    83   6 C    3.913 --    72 C    1.321    86 N    1.228    84 C    1.177
    84   6 C    3.959 --    85 C    1.647    83 C    1.177   118 H    0.973
    85   6 C    3.962 --    84 C    1.647    87 C    1.185   119 H    0.974
    86   7 N    3.296 --    87 C    1.262    83 C    1.228    65 Zn   0.455
    87   6 C    3.900 --    86 N    1.262    88 C    1.255    85 C    1.185
    88   6 C    3.940 --    87 C    1.255    89 C    1.254   134 C    1.192
    89   6 C    3.900 --    93 N    1.262    88 C    1.254    90 C    1.185
    90   6 C    3.962 --    91 C    1.647    89 C    1.185   120 H    0.974
    91   6 C    3.959 --    90 C    1.647    92 C    1.178   121 H    0.973
    92   6 C    3.913 --    94 C    1.321    93 N    1.228    91 C    1.178
    93   7 N    3.296 --    89 C    1.262    92 C    1.228    65 Zn   0.454
    94   6 C    3.931 --    92 C    1.321   105 C    1.313    95 C    1.030
    95   6 C    3.985 --    96 C    1.390   104 C    1.389    94 C    1.030
    96   6 C    3.986 --    97 C    1.450    95 C    1.390   122 H    0.971
                           103 C    0.106
    97   6 C    3.989 --    96 C    1.450    98 C    1.407   123 H    0.967
                           104 C    0.105
    98   6 C    3.929 --    97 C    1.407   103 C    1.406    99 S    0.753
    99  16 S    5.267 --   102 O    1.730   100 O    1.711   101 O    1.015
                            98 C    0.753
   100   8 O    2.070 --    99 S    1.711   102 O    0.138
   101   8 O    2.089 --    99 S    1.015   124 H    0.828
   102   8 O    2.087 --    99 S    1.730   100 O    0.138
   103   6 C    3.989 --   104 C    1.451    98 C    1.406   125 H    0.967
                            96 C    0.106
   104   6 C    3.986 --   103 C    1.451    95 C    1.389   126 H    0.971
                            97 C    0.105
   105   6 C    3.919 --    94 C    1.313   109 N    1.246   106 C    1.170
   106   6 C    3.963 --   107 C    1.661   105 C    1.170   127 H    0.973
   107   6 C    3.960 --   106 C    1.661   108 C    1.169   128 H    0.975
   108   6 C    3.920 --    66 C    1.358   109 N    1.232   107 C    1.169
   109   7 N    3.294 --   105 C    1.246   108 C    1.232    65 Zn   0.459
   110   1 H    1.001 --    66 C    0.971
   111   1 H    0.997 --    68 C    0.975
   112   1 H    1.004 --    69 C    0.973
   113   1 H    1.003 --    74 C    0.971
   114   1 H    1.000 --    75 C    0.967
   115   1 H    0.855 --    79 O    0.828
   116   1 H    1.000 --    81 C    0.967
   117   1 H    1.003 --    82 C    0.971
   118   1 H    1.004 --    84 C    0.973
   119   1 H    1.002 --    85 C    0.974
   120   1 H    1.002 --    90 C    0.974
   121   1 H    1.004 --    91 C    0.973
   122   1 H    1.003 --    96 C    0.971
   123   1 H    1.000 --    97 C    0.967
   124   1 H    0.855 --   101 O    0.828
   125   1 H    1.000 --   103 C    0.967
   126   1 H    1.003 --   104 C    0.971
   127   1 H    1.004 --   106 C    0.973
   128   1 H    0.997 --   107 C    0.975
   129   6 C    3.926 --   130 C    2.369   133 C    1.335   132 C    0.190
   130   6 C    3.926 --   129 C    2.369   131 C    1.335   134 C    0.190
   131   6 C    3.934 --   132 C    2.449   130 C    1.335
   132   6 C    3.891 --   131 C    2.449    24 C    1.192   129 C    0.190
   133   6 C    3.934 --   134 C    2.449   129 C    1.335
   134   6 C    3.891 --   133 C    2.449    88 C    1.192   130 C    0.190
 ---------------------------------------------------------------------------

           -------------------------------------------------
          | TOTAL ENERGY             -266.237851063037 Eh   |
          | GRADIENT NORM               0.000669882938 Eh/α |
          | HOMO-LUMO GAP               1.128121013837 eV   |
           -------------------------------------------------

 * finished run on 2022/07/30 at 16:01:49.285
