   * xtb version 6.5.1 (b24c23e) compiled by 'conda@728c89f4b128' on 2022-07-12
          program call               : xtb Co_Ph2Me_C8_3.xyz --gfn 1 --opt -T 48

   ID    Z sym.   atoms
    1   27 Co     1, 69, 153
    2    6 C      2-6, 8-11, 13-31, 34-41, 70-74, 76-79, 81-99, 102-109,
                  137-152, 154-158, 160-163, 165-183, 186-193
    3    7 N      7, 12, 32, 33, 75, 80, 100, 101, 159, 164, 184, 185
    4    1 H      42-68, 110-136, 194-219

          :  Hamiltonian                  GFN1-xTB          :
 * total energy  :  -352.7598544 Eh     change       -0.1945750E-08 Eh
 * total energy  :  -353.2172853 Eh     change       -0.4574309E+00 Eh
 * total energy  :  -353.3646890 Eh     change       -0.1474037E+00 Eh
 * total energy  :  -353.4435769 Eh     change       -0.7888787E-01 Eh
 * total energy  :  -353.5115447 Eh     change       -0.6796781E-01 Eh
 * total energy  :  -353.5821716 Eh     change       -0.7062686E-01 Eh
 * total energy  :  -353.6422174 Eh     change       -0.6004579E-01 Eh
 * total energy  :  -353.6762803 Eh     change       -0.3406296E-01 Eh
 * total energy  :  -353.7029540 Eh     change       -0.2667365E-01 Eh
 * total energy  :  -353.7212823 Eh     change       -0.1832830E-01 Eh
 * total energy  :  -353.8115099 Eh     change        0.6577731E-05 Eh
 * total energy  :  -353.8115230 Eh     change       -0.1313144E-04 Eh
 * total energy  :  -353.8114850 Eh     change        0.3805765E-04 Eh
 * total energy  :  -353.8115279 Eh     change       -0.4298478E-04 Eh
 * total energy  :  -353.8114846 Eh     change        0.4333742E-04 Eh
 * total energy  :  -353.8115300 Eh     change       -0.4543660E-04 Eh
 * total energy  :  -353.8115230 Eh     change        0.7027232E-05 Eh
 * total energy  :  -353.8115417 Eh     change       -0.1869093E-04 Eh
 * total energy  :  -353.8115465 Eh     change       -0.4784834E-05 Eh
   *** GEOMETRY OPTIMIZATION CONVERGED AFTER 102 ITERATIONS ***

 final structure:
================
219
 xtb: 6.5.1 (b24c23e)
Co          25.91803709994754        0.12035428454026       -0.35726165161323
C           22.63337077778590        0.34185468037516       -1.05450397089387
C           23.21974975129019        1.37766821922818       -0.35738433823537
C           22.50282059005797        2.50786916008724        0.14873057273077
C           23.41603355136532        3.31485341854157        0.73886983523501
C           24.69716068774380        2.69976262685623        0.54757950792644
N           24.55547471844874        1.48011062635796       -0.06592672324147
C           25.90916551726551        3.32823399990611        0.79907759019604
C           27.12052584839048        2.72594631262577        0.49001657108876
C           28.38259141470066        3.40043007170842        0.52573953480626
C           29.32491573750991        2.48625287844940        0.19005216560178
N           27.28866564973055        1.41431344902400        0.11437307044070
C           28.63872513003017        1.25135978688680       -0.02263929105404
C           29.29386461701355        0.02442713916277       -0.16286488008790
C           28.59005951796421       -1.18325828263929       -0.22380494755833
C           29.21807085661921       -2.46527666204561       -0.17280536829853
C           28.23377646405141       -3.38578294186117       -0.31098541878453
C           27.01010443559753       -2.66036580707769       -0.47959452907087
C           25.82933491743573       -3.24001228828031       -0.91462700018455
C           25.78467612888357       -4.71023383977724       -1.10837399920155
C           25.67537138441929       -5.24919124010722       -2.38801038111423
C           25.64043539157245       -6.62835015488815       -2.57198985969283
C           25.50742661024844       -7.20204374668107       -3.95683039057636
C           25.71062735292634       -7.46504324613396       -1.46361643383151
C           25.82209152683128       -6.93999642671334       -0.17819726662419
C           25.90747961795412       -7.86495767741054        1.00570705183316
C           25.86263529394589       -5.56146899043193       -0.00675022768417
C           24.71402051434674       -2.47755906177884       -1.23930942622096
C           23.51573066332024       -3.00476603228186       -1.82293253285290
C           22.64123449491092       -1.97605166790563       -1.92182593429495
C           23.29023041049140       -0.83096553478308       -1.35879164702252
N           24.57373368599977       -1.13903151985746       -0.98132159680001
N           27.23942874681963       -1.30603711979681       -0.37388332291268
C           25.92020254563986        4.70966515163995        1.33418158936553
C           25.31426059387228        5.74736801908700        0.62677799877845
C           25.33409799636008        7.04600881363065        1.12318666867932
C           24.70229109955543        8.16800981118243        0.34436796105269
C           25.96455567637375        7.30243220557848        2.33726397716669
C           26.57690787489771        6.27810997833682        3.05328594361888
C           27.23909716528953        6.56547889583190        4.37362597702486
C           26.55431099432660        4.98375195471718        2.54520405438482
H           21.58439077691199        0.42546297205453       -1.31362205306741
H           21.43566389249522        2.64090591389247        0.06754391543592
H           23.25175990030016        4.25038660021653        1.24843868331001
H           28.51630035432087        4.44331633128637        0.76297310459161
H           30.39248957411544        2.61482514658451        0.11203968886436
H           30.27676210052578       -2.62329827189911       -0.04395643063335
H           28.31974152767105       -4.45992065270851       -0.33469290941419
H           25.63723817856015       -4.58677334820195       -3.24581604982664
H           25.91903295030718       -8.21037221548973       -4.00212194733434
H           24.45297199739400       -7.25127578672925       -4.23813103827205
H           26.02280344248924       -6.57661517391822       -4.68620768180891
H           25.68172942556707       -8.54120396086326       -1.60042846402112
H           25.87097963636361       -7.30737078966216        1.94131703845854
H           25.08325908192928       -8.57979965801660        0.99106502480407
H           26.84193062596167       -8.42886777675308        0.97465572362087
H           25.94228119856169       -5.13792196806019        0.98838434223059
H           23.37209636488041       -4.03346957181949       -2.11097830469124
H           21.63288263629467       -1.98029644832892       -2.30423784346038
H           24.84310355780904        5.53896577077651       -0.32751754950192
H           24.25058120046885        8.89883619923943        1.01574721682178
H           23.93645643825154        7.78920912239222       -0.33252760997738
H           25.46147470489774        8.67974398038669       -0.25152647758415
H           25.98149519925084        8.31442184525675        2.72872209896319
H           26.50038357810722        6.51922779547502        5.17706213256084
H           27.68043157047715        7.56246341243836        4.37687511433565
H           28.01822216369804        5.83318939605011        4.58562605054923
H           27.01982104525635        4.17484801395612        3.09758690583018
Co          62.91228063855413        0.26575536864201       -0.19299264388136
C           66.20406381762437        0.83807544759828       -0.59909214415105
C           65.60731477685682       -0.11415611363199       -1.39844872373457
C           66.31422145064322       -0.92031254263679       -2.34618444520384
C           65.39043400718828       -1.69128961016562       -2.96685881185866
C           64.11323442793429       -1.32044178867805       -2.43061966097268
N           64.26701182469094       -0.40302153738555       -1.42041750091144
C           62.89707155681857       -1.71255238123941       -2.97084939813110
C           61.69187234886347       -1.23927956360142       -2.47110656703378
C           60.42573104137848       -1.44257168271913       -3.10690808438044
C           59.48952183292879       -0.88017141741528       -2.30476963203089
N           61.53344882169787       -0.53397687260732       -1.30218809148992
C           60.18332482081913       -0.35677254348634       -1.17076226241552
C           59.53850024447622        0.09195112788679       -0.01620499873266
C           60.25062072831238        0.47632210441664        1.12285316555091
C           59.63375580219790        0.77654864480063        2.37574775653935
C           60.62210057771878        1.18245008055756        3.20846463846085
C           61.83779611268609        1.15624989596302        2.45142946709821
C           63.01683023560688        1.74972784793176        2.87330675692357
C           63.06748483440270        2.35746402455146        4.22607246385413
C           63.16610834735693        3.73884606935866        4.37386387289918
C           63.20818513583249        4.31154755653955        5.64166814584488
C           63.33004827352802        5.80391849039996        5.79242050520117
C           63.15575550897877        3.48972039475550        6.76210554192720
C           63.05532867092894        2.10675765532781        6.62931378372691
C           62.98893390209255        1.23765269845894        7.85605618042510
C           63.00783737574365        1.54619175881231        5.35848806622671
C           64.12617527495144        1.84589471245670        2.04389408504238
C           65.32690791379109        2.55417649834263        2.37733696248698
C           66.20204319518444        2.34243129277938        1.36654172796510
C           65.55012832495305        1.47280058668191        0.43474824849743
N           64.26442962313948        1.20905113825885        0.83747278408887
N           61.60150565722250        0.66976784002141        1.18483106353352
C           62.87389077136379       -2.60018823151285       -4.15702333137010
C           63.48439752584632       -2.20766056629726       -5.34756947740214
C           63.45331398532284       -3.03648881576387       -6.46353403762331
C           64.08974555372926       -2.59838048219866       -7.75495304390242
C           62.80730769617055       -4.26665506474048       -6.38179523318850
C           62.19062340833469       -4.67117607742808       -5.20161682741225
C           61.51181437237672       -6.01175161439033       -5.12014421046197
C           62.22447032289511       -3.83219615057720       -4.09301083550433
H           67.25580997987809        1.05106020828950       -0.75021713256424
H           67.38234564325182       -0.89487806188494       -2.49325416243816
H           65.54465392291087       -2.43669617859420       -3.73010105567928
H           60.28542303605638       -1.94072035903093       -4.05242140834771
H           58.42128901818229       -0.83481911522994       -2.44319939252742
H           58.57827669439596        0.68379161404485        2.57534914087382
H           60.54348547038977        1.50661449541218        4.23340489101528
H           63.19116033015438        4.37040458532540        3.49260349153102
H           62.92066357082695        6.13384394906045        6.74729949834702
H           64.38202874651455        6.09592663550010        5.75342698423800
H           62.80641355277589        6.31863344197304        4.98641663234297
H           63.19034950107928        3.93016976377063        7.75332265691028
H           63.04495258811104        0.18202505044585        7.59120733182732
H           63.80986912438294        1.47305004211085        8.53514977047518
H           62.05177572784401        1.41171226450551        8.38867532619337
H           62.93691938100540        0.47061059889648        5.23950278462917
H           65.47165053564946        3.13078731476840        3.27648673103140
H           67.21222816795427        2.70469345782104        1.25992472366813
H           63.96851184906057       -1.23892394358862       -5.40503411778941
H           64.53662822162205       -3.44702731767533       -8.27365609690276
H           64.86028093301337       -1.84872990614487       -7.57475962294315
H           63.33427625352011       -2.16035312014176       -8.41124961445906
H           62.78166300101415       -4.91691403022084       -7.25023271064745
H           62.23985029301266       -6.78060883854388       -4.85143611152899
H           61.07232975525984       -6.28277674936305       -6.08043501421595
H           60.72860792119419       -6.00564489419074       -4.36197166086056
H           61.75547678873637       -4.13934651595409       -3.16463509661214
C           30.69440044074777       -0.00317753368864       -0.16596587956328
C           31.92000472171358       -0.02546667729818       -0.16963053602460
C           33.26021890274077       -0.04799065291203       -0.16051092219586
C           34.49200882926981       -0.06140125798460       -0.14356648862368
C           35.82729553491713       -0.07379517470814       -0.11987126385236
C           37.05940841228571       -0.08100206074412       -0.09503171403942
C           38.39935569961148       -0.08398718184513       -0.06916109399213
C           39.62500266528046       -0.08490973121995       -0.04484156533433
C           49.20320805223700       -0.01714965795777        0.10603677039077
C           50.42783320012480        0.00303435478544        0.11541884125653
C           51.76994587470949        0.02445308849363        0.11856556824677
C           53.00063406300940        0.04735971792620        0.11195139673897
C           54.33820009702455        0.06888135187992        0.09627361923841
C           55.56873571007672        0.08717721903817        0.07592145245007
C           56.91132214734637        0.09393086814118        0.05266775760825
C           58.13541439671778        0.09191065496897        0.02416640908170
Co          44.41302777393458       -0.05361563064594        0.03809892270452
C           41.02455813614393       -0.07839851260489       -0.02609663965063
C           41.69881353180924        1.13665422554561        0.13964471954286
C           41.04522721598174        2.39016244161939        0.34143382697171
C           41.99654635418127        3.34855908713448        0.21571745509630
C           43.22586729763606        2.67446335245268       -0.07215602177670
N           43.04025648970246        1.31185189874410       -0.04649603764897
C           44.39711418659834        3.30545247713040       -0.46904910177738
C           45.57673341218293        2.59954945706074       -0.66661718666175
C           46.80448964635595        3.18108446734641       -1.11759895079638
C           47.76631389991894        2.23955969870409       -0.95327617737418
N           45.77256809012555        1.28481665161236       -0.31359167499520
C           47.12015526586190        1.08383969814595       -0.41829713412375
C           47.80147139616206       -0.03123133395181        0.07945926282684
C           47.11835794749420       -1.16091727566570        0.53994079498211
C           47.75947049701867       -2.31526818671503        1.08350856648292
C           46.80939800908533       -3.27863214557857        1.17781897698549
C           45.59332681926675       -2.70879851337665        0.68309127206273
C           44.43295791919996       -3.42856323228852        0.42543102192746
C           44.44946575781643       -4.89942711335038        0.58944655549692
C           43.55754542714899       -5.52397317144827        1.46067128204662
C           43.56875852258408       -6.90638261920787        1.61135743013873
C           42.61942462320872       -7.57338127290549        2.56961767495766
C           44.47865794039997       -7.66482527746494        0.88077488158447
C           45.37402031902374       -7.05668862782224        0.00565371172538
C           46.36292194806123       -7.88604706193053       -0.76798646848573
C           45.35758555299386       -5.67337189175294       -0.13281776051985
C           43.26198691907189       -2.80530565585500        0.01754831655972
C           42.04555541459403       -3.48988526753902       -0.30069632148197
C           41.08240586279175       -2.54246175050697       -0.41556959912751
C           41.71691406838408       -1.28407941563912       -0.18434952035581
N           43.05911862769703       -1.44400211015237        0.00910108582529
N           45.78232458559087       -1.38637384210577        0.36022677601664
C           44.38844286992502        4.76959826675063       -0.68497941069336
C           45.25790753195393        5.59270547358088        0.02854949896619
C           45.25000258623800        6.97003678774142       -0.16981408981380
C           46.20161713106678        7.84572237959170        0.59961558777448
C           44.36877649375610        7.52017816899754       -1.09434985597471
C           43.49437703267952        6.71110928569455       -1.81595613050393
C           42.55978446625706        7.31971264138132       -2.82606598711268
C           43.50712759852815        5.33756442625533       -1.60568936275197
H           39.99230186824299        2.50675969272890        0.54179946343200
H           41.88569382859527        4.41691590055971        0.30574657246427
H           46.90795113242203        4.18242183899823       -1.50265983692730
H           48.82169904688195        2.30951930529416       -1.16210375135619
H           48.80451271605665       -2.37005455885352        1.34296371715221
H           46.91290213448989       -4.28658651170077        1.54540477580372
H           42.86256664183147       -4.92146303670447        2.03521564406362
H           42.34573164821587       -8.56749139191130        2.21539424075856
H           43.09385012955601       -7.68047722164586        3.54777014494416
H           41.71317037142980       -6.98063516857440        2.69484964376845
H           44.48782444199696       -8.74424280468018        0.99204809218789
H           46.66360052131015       -7.37835203180215       -1.68452423760573
H           45.93843783681532       -8.85700239493724       -1.02432570907220
H           47.25705130802595       -8.05581764028006       -0.16376850743408
H           46.03884421930800       -5.18914424531771       -0.82385630970309
H           41.94978012712765       -4.55753108015497       -0.41305434999758
H           40.03320018305715       -2.66907059468332       -0.62895924246938
H           45.92920859931778        5.15482377363682        0.75914726785604
H           45.87539218404401        8.88552437557550        0.58382448342172
H           47.19779388397576        7.79215014364791        0.15480560126994
H           46.27748490159618        7.51503612634406        1.63602675613702
H           44.35900970532558        8.59346457361857       -1.25414488950898
H           42.16252605362823        8.26784575915643       -2.46223997737571
H           41.72883176210382        6.64836646297369       -3.04239204076306
H           43.09503109639136        7.51315593949133       -3.75838060315813
H           42.84111781840014        4.69531479554238       -2.17140112136246

          :  Hamiltonian                  GFN1-xTB          :
         :: total energy            -353.811546493234 Eh    ::
         :: gradient norm              0.000902937641 Eh/a0 ::
         :: HOMO-LUMO gap              0.004124462088 eV    ::
         :: SCC energy              -359.830096492157 Eh    ::
         :: repulsion energy           6.203807600167 Eh    ::

    * Orbital Energies and Occupations

         #    Occupation            Energy/Eh            Energy/eV
      -------------------------------------------------------------
         1        2.0000           -0.7713273             -20.9889
       ...           ...                  ...                  ...
       320        2.0000           -0.3933381             -10.7033
       321        2.0000           -0.3929901             -10.6938
       322        1.9999           -0.3899596             -10.6113
       323        1.9998           -0.3898022             -10.6071
       324        1.9998           -0.3897310             -10.6051
       325        1.9998           -0.3897226             -10.6049
       326        1.9998           -0.3894797             -10.5983
       327        1.9998           -0.3894719             -10.5981
       328        1.9998           -0.3893720             -10.5954
       329        1.9838           -0.3853862             -10.4869
       330        1.8190           -0.3829845             -10.4215
       331        1.1590           -0.3809808             -10.3670
       332        1.0560           -0.3807630             -10.3611 (HOMO)
       333        0.9836           -0.3806114             -10.3570 (LUMO)
       334                         -0.3415412              -9.2938
       335                         -0.3321043              -9.0370
       336                         -0.3306475              -8.9974
       337                         -0.3271353              -8.9018
       338                         -0.3258288              -8.8663
       339                         -0.3239894              -8.8162
       340                         -0.3104730              -8.4484
       341                         -0.3037360              -8.2651
       342                         -0.3002863              -8.1712
       343                         -0.2963000              -8.0627
       ...                                ...                  ...
       731                          1.6041419              43.6509
      -------------------------------------------------------------
                  HL-Gap            0.0001516 Eh            0.0041 eV

Wiberg/Mayer (AO) data.
largest (>0.10) Wiberg bond orders for each atom

     #   Z sym  total        # sym  WBO       # sym  WBO       # sym  WBO
 ---------------------------------------------------------------------------
     1  27 Co   3.035 --     7 N    0.636    32 N    0.635    33 N    0.633
                            12 N    0.631
     2   6 C    3.925 --    31 C    1.368     3 C    1.359    42 H    0.970
     3   6 C    3.925 --     2 C    1.359     7 N    1.207     4 C    1.176
     4   6 C    3.959 --     5 C    1.647     3 C    1.176    43 H    0.975
     5   6 C    3.963 --     4 C    1.647     6 C    1.176    44 H    0.973
     6   6 C    3.920 --     8 C    1.322     7 N    1.210     5 C    1.176
     7   7 N    3.344 --     6 C    1.210     3 C    1.207     1 Co   0.636
     8   6 C    3.930 --     9 C    1.326     6 C    1.322    34 C    1.028
     9   6 C    3.916 --     8 C    1.326    12 N    1.198    10 C    1.184
    10   6 C    3.959 --    11 C    1.635     9 C    1.184    45 H    0.973
    11   6 C    3.961 --    10 C    1.635    13 C    1.190    46 H    0.974
    12   7 N    3.348 --    13 C    1.230     9 C    1.198     1 Co   0.631
    13   6 C    3.903 --    14 C    1.257    12 N    1.230    11 C    1.190
    14   6 C    3.930 --    13 C    1.257    15 C    1.250   137 C    1.200
    15   6 C    3.903 --    14 C    1.250    33 N    1.239    16 C    1.190
    16   6 C    3.962 --    17 C    1.639    15 C    1.190    47 H    0.974
    17   6 C    3.958 --    16 C    1.639    18 C    1.179    48 H    0.973
    18   6 C    3.916 --    19 C    1.341    33 N    1.187    17 C    1.179
    19   6 C    3.930 --    18 C    1.341    28 C    1.313    20 C    1.020
    20   6 C    3.988 --    21 C    1.403    27 C    1.394    19 C    1.020
                            24 C    0.104
    21   6 C    3.987 --    22 C    1.411    20 C    1.403    49 H    0.972
                            25 C    0.104
    22   6 C    3.988 --    24 C    1.422    21 C    1.411    23 C    1.020
                            27 C    0.103
    23   6 C    3.995 --    22 C    1.020    50 H    0.983    52 H    0.982
                            51 H    0.971
    24   6 C    3.989 --    22 C    1.422    25 C    1.410    53 H    0.972
                            20 C    0.104
    25   6 C    3.988 --    27 C    1.422    24 C    1.410    26 C    1.020
                            21 C    0.104
    26   6 C    3.995 --    25 C    1.020    54 H    0.986    55 H    0.977
                            56 H    0.974
    27   6 C    3.987 --    25 C    1.422    20 C    1.394    57 H    0.972
                            22 C    0.103
    28   6 C    3.919 --    19 C    1.313    32 N    1.218    29 C    1.178
    29   6 C    3.963 --    30 C    1.648    28 C    1.178    58 H    0.972
    30   6 C    3.959 --    29 C    1.648    31 C    1.173    59 H    0.975
    31   6 C    3.925 --     2 C    1.368    32 N    1.199    30 C    1.173
    32   7 N    3.346 --    28 C    1.218    31 C    1.199     1 Co   0.635
    33   7 N    3.346 --    15 C    1.239    18 C    1.187     1 Co   0.633
    34   6 C    3.988 --    41 C    1.396    35 C    1.394     8 C    1.028
                            38 C    0.103
    35   6 C    3.986 --    36 C    1.418    34 C    1.394    60 H    0.971
                            39 C    0.103
    36   6 C    3.988 --    35 C    1.418    38 C    1.414    37 C    1.020
                            41 C    0.103
    37   6 C    3.995 --    36 C    1.020    62 H    0.984    61 H    0.981
                            63 H    0.971
    38   6 C    3.988 --    39 C    1.415    36 C    1.414    64 H    0.972
                            34 C    0.103
    39   6 C    3.988 --    41 C    1.417    38 C    1.415    40 C    1.020
                            35 C    0.103
    40   6 C    3.995 --    39 C    1.020    67 H    0.983    66 H    0.982
                            65 H    0.971
    41   6 C    3.985 --    39 C    1.417    34 C    1.396    68 H    0.972
                            36 C    0.103
    42   1 H    1.000 --     2 C    0.970
    43   1 H    0.998 --     4 C    0.975
    44   1 H    1.005 --     5 C    0.973
    45   1 H    1.004 --    10 C    0.973
    46   1 H    1.001 --    11 C    0.974
    47   1 H    1.001 --    16 C    0.974
    48   1 H    1.004 --    17 C    0.973
    49   1 H    1.002 --    21 C    0.972
    50   1 H    1.004 --    23 C    0.983
    51   1 H    1.006 --    23 C    0.971
    52   1 H    1.004 --    23 C    0.982
    53   1 H    1.000 --    24 C    0.972
    54   1 H    1.003 --    26 C    0.986
    55   1 H    1.005 --    26 C    0.977
    56   1 H    1.005 --    26 C    0.974
    57   1 H    1.002 --    27 C    0.972
    58   1 H    1.005 --    29 C    0.972
    59   1 H    0.998 --    30 C    0.975
    60   1 H    1.003 --    35 C    0.971
    61   1 H    1.004 --    37 C    0.981
    62   1 H    1.004 --    37 C    0.984
    63   1 H    1.006 --    37 C    0.971
    64   1 H    1.000 --    38 C    0.972
    65   1 H    1.006 --    40 C    0.971
    66   1 H    1.004 --    40 C    0.982
    67   1 H    1.004 --    40 C    0.983
    68   1 H    1.003 --    41 C    0.972
    69  27 Co   3.058 --    75 N    0.643   100 N    0.640   101 N    0.640
                            80 N    0.637
    70   6 C    3.932 --    99 C    1.368    71 C    1.361   110 H    0.970
    71   6 C    3.925 --    70 C    1.361    75 N    1.205    72 C    1.176
    72   6 C    3.959 --    73 C    1.648    71 C    1.176   111 H    0.975
    73   6 C    3.963 --    72 C    1.648    74 C    1.175   112 H    0.973
    74   6 C    3.921 --    76 C    1.326    75 N    1.206    73 C    1.175
    75   7 N    3.349 --    74 C    1.206    71 C    1.205    69 Co   0.643
    76   6 C    3.938 --    74 C    1.326    77 C    1.324   102 C    1.027
    77   6 C    3.916 --    76 C    1.324    80 N    1.199    78 C    1.184
    78   6 C    3.959 --    79 C    1.636    77 C    1.184   113 H    0.973
    79   6 C    3.961 --    78 C    1.636    81 C    1.190   114 H    0.974
    80   7 N    3.354 --    81 C    1.223    77 C    1.199    69 Co   0.637
    81   6 C    3.904 --    82 C    1.264    80 N    1.223    79 C    1.190
    82   6 C    3.940 --    81 C    1.264    83 C    1.259   152 C    1.187
    83   6 C    3.904 --    82 C    1.259   101 N    1.232    84 C    1.190
    84   6 C    3.962 --    85 C    1.639    83 C    1.190   115 H    0.974
    85   6 C    3.959 --    84 C    1.639    86 C    1.180   116 H    0.973
    86   6 C    3.916 --    87 C    1.338   101 N    1.189    85 C    1.180
    87   6 C    3.937 --    86 C    1.338    96 C    1.319    88 C    1.019
    88   6 C    3.988 --    89 C    1.403    95 C    1.394    87 C    1.019
                            92 C    0.104
    89   6 C    3.987 --    90 C    1.411    88 C    1.403   117 H    0.972
                            93 C    0.104
    90   6 C    3.988 --    92 C    1.422    89 C    1.411    91 C    1.020
                            95 C    0.103
    91   6 C    3.995 --    90 C    1.020   118 H    0.983   120 H    0.982
                           119 H    0.971
    92   6 C    3.990 --    90 C    1.422    93 C    1.410   121 H    0.972
                            88 C    0.104
    93   6 C    3.988 --    95 C    1.422    92 C    1.410    94 C    1.020
                            89 C    0.104
    94   6 C    3.995 --    93 C    1.020   122 H    0.986   123 H    0.977
                           124 H    0.973
    95   6 C    3.987 --    93 C    1.422    88 C    1.394   125 H    0.972
                            90 C    0.103
    96   6 C    3.920 --    87 C    1.319   100 N    1.214    97 C    1.178
    97   6 C    3.963 --    98 C    1.649    96 C    1.178   126 H    0.972
    98   6 C    3.960 --    97 C    1.649    99 C    1.173   127 H    0.975
    99   6 C    3.925 --    70 C    1.368   100 N    1.199    98 C    1.173
   100   7 N    3.351 --    96 C    1.214    99 C    1.199    69 Co   0.640
   101   7 N    3.352 --    83 C    1.232    86 C    1.189    69 Co   0.640
   102   6 C    3.988 --   109 C    1.396   103 C    1.395    76 C    1.027
                           106 C    0.103
   103   6 C    3.986 --   104 C    1.418   102 C    1.395   128 H    0.971
                           107 C    0.103
   104   6 C    3.988 --   103 C    1.418   106 C    1.414   105 C    1.020
                           109 C    0.103
   105   6 C    3.995 --   104 C    1.020   130 H    0.984   129 H    0.981
                           131 H    0.971
   106   6 C    3.988 --   107 C    1.416   104 C    1.414   132 H    0.972
                           102 C    0.103
   107   6 C    3.988 --   109 C    1.417   106 C    1.416   108 C    1.020
                           103 C    0.103
   108   6 C    3.995 --   107 C    1.020   135 H    0.983   134 H    0.982
                           133 H    0.971
   109   6 C    3.985 --   107 C    1.417   102 C    1.396   136 H    0.972
                           104 C    0.103
   110   1 H    1.000 --    70 C    0.970
   111   1 H    0.998 --    72 C    0.975
   112   1 H    1.005 --    73 C    0.973
   113   1 H    1.004 --    78 C    0.973
   114   1 H    1.001 --    79 C    0.974
   115   1 H    1.001 --    84 C    0.974
   116   1 H    1.004 --    85 C    0.973
   117   1 H    1.002 --    89 C    0.972
   118   1 H    1.004 --    91 C    0.983
   119   1 H    1.006 --    91 C    0.971
   120   1 H    1.004 --    91 C    0.982
   121   1 H    1.000 --    92 C    0.972
   122   1 H    1.004 --    94 C    0.986
   123   1 H    1.005 --    94 C    0.977
   124   1 H    1.005 --    94 C    0.973
   125   1 H    1.002 --    95 C    0.972
   126   1 H    1.005 --    97 C    0.972
   127   1 H    0.998 --    98 C    0.975
   128   1 H    1.003 --   103 C    0.971
   129   1 H    1.004 --   105 C    0.981
   130   1 H    1.004 --   105 C    0.984
   131   1 H    1.006 --   105 C    0.971
   132   1 H    1.000 --   106 C    0.972
   133   1 H    1.006 --   108 C    0.971
   134   1 H    1.004 --   108 C    0.982
   135   1 H    1.004 --   108 C    0.983
   136   1 H    1.003 --   109 C    0.972
   137   6 C    3.869 --   138 C    2.422    14 C    1.200   140 C    0.184
   138   6 C    3.929 --   137 C    2.422   139 C    1.356
   139   6 C    3.884 --   140 C    2.316   138 C    1.356   142 C    0.179
   140   6 C    3.919 --   139 C    2.316   141 C    1.382   137 C    0.184
   141   6 C    3.917 --   142 C    2.315   140 C    1.382   144 C    0.184
   142   6 C    3.885 --   141 C    2.315   143 C    1.358   139 C    0.179
   143   6 C    3.926 --   144 C    2.419   142 C    1.358
   144   6 C    3.869 --   143 C    2.419   154 C    1.204   141 C    0.184
   145   6 C    3.873 --   146 C    2.434   166 C    1.193   148 C    0.185
   146   6 C    3.928 --   145 C    2.434   147 C    1.346
   147   6 C    3.889 --   148 C    2.332   146 C    1.346   150 C    0.181
   148   6 C    3.920 --   147 C    2.332   149 C    1.369   145 C    0.185
   149   6 C    3.923 --   150 C    2.334   148 C    1.369   152 C    0.186
   150   6 C    3.887 --   149 C    2.334   151 C    1.343   147 C    0.181
   151   6 C    3.934 --   152 C    2.440   150 C    1.343
   152   6 C    3.872 --   151 C    2.440    82 C    1.187   149 C    0.186
   153  27 Co   3.044 --   164 N    0.633   184 N    0.632   185 N    0.629
                           159 N    0.628
   154   6 C    3.920 --   183 C    1.251   155 C    1.250   144 C    1.204
   155   6 C    3.903 --   154 C    1.250   159 N    1.233   156 C    1.194
   156   6 C    3.958 --   157 C    1.631   155 C    1.194   194 H    0.974
   157   6 C    3.959 --   156 C    1.631   158 C    1.185   195 H    0.973
   158   6 C    3.914 --   160 C    1.323   159 N    1.194   157 C    1.185
   159   7 N    3.340 --   155 C    1.233   158 C    1.194   153 Co   0.628
   160   6 C    3.926 --   158 C    1.323   161 C    1.321   186 C    1.032
   161   6 C    3.914 --   160 C    1.321   164 N    1.196   162 C    1.185
   162   6 C    3.960 --   163 C    1.633   161 C    1.185   196 H    0.973
   163   6 C    3.959 --   162 C    1.633   165 C    1.193   197 H    0.974
   164   7 N    3.340 --   165 C    1.230   161 C    1.196   153 Co   0.633
   165   6 C    3.905 --   166 C    1.256   164 N    1.230   163 C    1.193
   166   6 C    3.922 --   167 C    1.257   165 C    1.256   145 C    1.193
   167   6 C    3.905 --   166 C    1.257   185 N    1.228   168 C    1.194
   168   6 C    3.958 --   169 C    1.631   167 C    1.194   198 H    0.974
   169   6 C    3.960 --   168 C    1.631   170 C    1.186   199 H    0.973
   170   6 C    3.914 --   171 C    1.317   185 N    1.199   169 C    1.186
   171   6 C    3.926 --   180 C    1.328   170 C    1.317   172 C    1.032
   172   6 C    3.988 --   173 C    1.394   179 C    1.393   171 C    1.032
                           176 C    0.102
   173   6 C    3.984 --   174 C    1.417   172 C    1.394   200 H    0.971
                           177 C    0.103
   174   6 C    3.988 --   173 C    1.417   176 C    1.415   175 C    1.020
                           179 C    0.103
   175   6 C    3.995 --   174 C    1.020   203 H    0.983   201 H    0.982
                           202 H    0.971
   176   6 C    3.987 --   174 C    1.415   177 C    1.414   204 H    0.972
                           172 C    0.102
   177   6 C    3.988 --   179 C    1.419   176 C    1.414   178 C    1.020
                           173 C    0.103
   178   6 C    3.995 --   177 C    1.020   205 H    0.983   206 H    0.982
                           207 H    0.971
   179   6 C    3.984 --   177 C    1.419   172 C    1.393   208 H    0.971
                           174 C    0.103
   180   6 C    3.915 --   171 C    1.328   184 N    1.192   181 C    1.184
   181   6 C    3.959 --   182 C    1.633   180 C    1.184   209 H    0.973
   182   6 C    3.959 --   181 C    1.633   183 C    1.193   210 H    0.974
   183   6 C    3.904 --   154 C    1.251   184 N    1.235   182 C    1.193
   184   7 N    3.338 --   183 C    1.235   180 C    1.192   153 Co   0.632
   185   7 N    3.341 --   167 C    1.228   170 C    1.199   153 Co   0.629
   186   6 C    3.988 --   187 C    1.398   193 C    1.389   160 C    1.032
                           190 C    0.101
   187   6 C    3.984 --   188 C    1.413   186 C    1.398   211 H    0.972
                           191 C    0.103
   188   6 C    3.988 --   190 C    1.420   187 C    1.413   189 C    1.020
                           193 C    0.103
   189   6 C    3.995 --   188 C    1.020   212 H    0.985   214 H    0.980
                           213 H    0.971
   190   6 C    3.987 --   188 C    1.420   191 C    1.409   215 H    0.972
                           186 C    0.101
   191   6 C    3.988 --   193 C    1.423   190 C    1.409   192 C    1.020
                           187 C    0.103
   192   6 C    3.995 --   191 C    1.020   217 H    0.984   216 H    0.981
                           218 H    0.971
   193   6 C    3.984 --   191 C    1.423   186 C    1.389   219 H    0.971
                           188 C    0.103
   194   1 H    1.001 --   156 C    0.974
   195   1 H    1.004 --   157 C    0.973
   196   1 H    1.004 --   162 C    0.973
   197   1 H    1.001 --   163 C    0.974
   198   1 H    1.001 --   168 C    0.974
   199   1 H    1.004 --   169 C    0.973
   200   1 H    1.003 --   173 C    0.971
   201   1 H    1.004 --   175 C    0.982
   202   1 H    1.006 --   175 C    0.971
   203   1 H    1.004 --   175 C    0.983
   204   1 H    1.000 --   176 C    0.972
   205   1 H    1.004 --   178 C    0.983
   206   1 H    1.004 --   178 C    0.982
   207   1 H    1.006 --   178 C    0.971
   208   1 H    1.003 --   179 C    0.971
   209   1 H    1.004 --   181 C    0.973
   210   1 H    1.001 --   182 C    0.974
   211   1 H    1.003 --   187 C    0.972
   212   1 H    1.004 --   189 C    0.985
   213   1 H    1.006 --   189 C    0.971
   214   1 H    1.004 --   189 C    0.980
   215   1 H    1.000 --   190 C    0.972
   216   1 H    1.004 --   192 C    0.981
   217   1 H    1.004 --   192 C    0.984
   218   1 H    1.006 --   192 C    0.971
   219   1 H    1.003 --   193 C    0.971
 ---------------------------------------------------------------------------

           -------------------------------------------------
          | TOTAL ENERGY             -353.811546493234 Eh   |
          | GRADIENT NORM               0.000902937641 Eh/α |
          | HOMO-LUMO GAP               0.004124462088 eV   |
           -------------------------------------------------

 * finished run on 2022/07/30 at 01:20:46.253
