   * xtb version 6.5.1 (b24c23e) compiled by 'conda@728c89f4b128' on 2022-07-12
          program call               : xtb DHP_C4_3.xyz --gfn 1 --opt -T 48

   ID    Z sym.   atoms
    1    6 C      1-5, 7-10, 12-16, 18-23, 25-28, 30-35, 60-64, 66-69, 71-75,
                  77-82, 84-87, 89-94, 119-131, 133-136, 138-142, 144-149,
                  151-154, 156-161
    2    7 N      6, 11, 17, 24, 29, 36, 65, 70, 76, 83, 88, 95, 132, 137,
                  143, 150, 155, 162
    3    1 H      37-59, 96-118, 163-184

          :  Hamiltonian                  GFN1-xTB          :
 * total energy  :  -299.5624419 Eh     change        0.1318676E-07 Eh
 * total energy  :  -300.2728435 Eh     change       -0.7104016E+00 Eh
 * total energy  :  -300.4645149 Eh     change       -0.1916714E+00 Eh
 * total energy  :  -300.5673454 Eh     change       -0.1028305E+00 Eh
 * total energy  :  -300.6313559 Eh     change       -0.6401056E-01 Eh
 * total energy  :  -300.6843680 Eh     change       -0.5301207E-01 Eh
 * total energy  :  -300.7157132 Eh     change       -0.3134518E-01 Eh
 * total energy  :  -300.7390492 Eh     change       -0.2333606E-01 Eh
 * total energy  :  -300.7568765 Eh     change       -0.1782724E-01 Eh
 * total energy  :  -300.7733707 Eh     change       -0.1649421E-01 Eh
 * total energy  :  -300.8524829 Eh     change       -0.1173121E-04 Eh
 * total energy  :  -300.8525016 Eh     change       -0.1866377E-04 Eh
 * total energy  :  -300.8525175 Eh     change       -0.1595340E-04 Eh
 * total energy  :  -300.8525273 Eh     change       -0.9798783E-05 Eh
 * total energy  :  -300.8525440 Eh     change       -0.1665322E-04 Eh
 * total energy  :  -300.8525528 Eh     change       -0.8770744E-05 Eh
 * total energy  :  -300.8525525 Eh     change        0.2271257E-06 Eh
 * total energy  :  -300.8525608 Eh     change       -0.8244642E-05 Eh
 * total energy  :  -300.8525658 Eh     change       -0.4999904E-05 Eh
   *** GEOMETRY OPTIMIZATION CONVERGED AFTER 66 ITERATIONS ***

 final structure:
================
184
 xtb: 6.5.1 (b24c23e)
C           25.45700508513869        0.05396848235746        0.07513965017346
C           26.06874490317219        1.23206630653925        0.48300258429267
C           25.41848580646785        2.42109952202904        0.91824357068357
C           26.38168321923107        3.34267238038096        1.21839369018839
C           27.65243990197819        2.75000278781686        0.96841060023041
N           27.41209199958578        1.47579792458045        0.53621755605818
C           28.91556353978550        3.32413675617999        1.14523354836724
C           28.95452219700460        4.73783488028101        1.59317865646459
C           28.41742611739131        5.72307162008267        0.85801140099472
C           28.43462325567184        7.16390610142287        1.29812645450465
N           29.40490129520931        7.37801267983626        2.37499329918938
C           29.77331348236440        6.34536598871546        3.19766323880622
C           29.60988150275812        5.05568304812675        2.85370654565788
C           30.12874829868887        2.66481629124371        0.92810362058387
C           31.42929744142332        3.29212725810290        1.08026524146195
C           32.34640088468099        2.35032082512598        0.77799116589133
N           30.27712909284230        1.37366780458287        0.52596252344840
C           31.60524880424750        1.15256441295313        0.43167482407145
C           32.23551989101822       -0.04715221208922        0.05191161411914
C           31.59940543010157       -1.23702683240641       -0.34428247284866
C           32.24278984973301       -2.44720448482169       -0.71748854929596
C           31.27493645961782       -3.35738355497718       -1.04013448874501
C           30.00919968710205       -2.72859725397540       -0.87941481437116
N           30.25728079665828       -1.45065535361156       -0.45292578707050
C           28.74697156408029       -3.29799095488345       -1.08074375627722
C           28.72002389609474       -4.70091571490632       -1.55985513284644
C           28.14837215173655       -5.68096559353042       -0.84426685453612
C           28.10032932813580       -7.10867479862200       -1.32273090447464
N           29.06614594016524       -7.33898240654141       -2.40076633547488
C           29.46877591625253       -6.30345034156816       -3.20449058469841
C           29.35653751417140       -5.01653284183460       -2.83146137535925
C           27.53273736313757       -2.63865909750693       -0.86375785433486
C           26.22536370107318       -3.22051310930622       -1.12389375400687
C           25.31562988323669       -2.28205556989081       -0.79197892385473
C           26.06596657409544       -1.12270371767850       -0.34298684725951
N           27.39660093003596       -1.37081288928434       -0.40585491600217
H           24.37158412465022        0.06441080736545        0.08176384891496
H           24.34925940217956        2.54078138556645        0.99266677744878
H           26.23217964005647        4.34356463361412        1.58967636232485
H           28.13718314202329        0.80908452838542        0.29327816329113
H           27.93223542687766        5.52787520481345       -0.09130715390251
H           27.42588124550015        7.47485263696075        1.62859133422600
H           28.71364325455944        7.81239381998156        0.45687588262367
H           29.34475516743212        8.29044934993240        2.80350562340010
H           30.28270153569813        6.64870799701039        4.10703378474730
H           29.95241508883969        4.25420499380594        3.49249863122551
H           31.59538620360861        4.31680979666475        1.37100246638504
H           33.42142340227029        2.43442962081885        0.77346167271374
H           33.31091060379662       -2.59336368309174       -0.73030158317610
H           31.42056983530945       -4.37743695393784       -1.35645204748922
H           29.53556723563690       -0.76970914890055       -0.24062668295378
H           27.67721981430440       -5.48915384851730        0.11263630043662
H           27.07988617092941       -7.36238359575283       -1.66650424977897
H           28.34412245807594       -7.79213700248995       -0.49827358724008
H           28.96632383790306       -8.23765565646961       -2.85083531793251
H           29.96185657301881       -6.60582179231002       -4.12314311162079
H           29.72392928715568       -4.21495843852531       -3.45648902133908
H           26.05205644769184       -4.20855902943857       -1.51906798560718
H           24.23933802954723       -2.33586304944532       -0.84532116778216
C           59.09263676829393       -0.08414266066636        0.03011955811137
C           58.48039873237787       -1.29688946396547       -0.25778595110723
C           59.12927530090480       -2.54060979420693       -0.49903116930905
C           58.16621593123515       -3.47684657535256       -0.75017266936282
C           56.89715100020345       -2.83400670120936       -0.68035891502724
N           57.13798028875932       -1.52454422899978       -0.37128552065043
C           55.63460948996345       -3.40689805334366       -0.86501817467331
C           55.59513383648029       -4.84534085708649       -1.22556388684316
C           56.16030328184673       -5.30460990581740       -2.35219108244538
C           56.14370578753947       -6.76280566988780       -2.73100161342472
N           55.14929178639325       -7.50290988072002       -1.94962664828695
C           54.74890935617004       -7.04932813381047       -0.71982444939072
C           54.90890261089894       -5.77063324927240       -0.33545173668492
C           54.42202002639785       -2.72394194068248       -0.73462919799018
C           53.12352936538239       -3.32787394902328       -0.97412408008167
C           52.20620272496154       -2.36413002348762       -0.75223642704099
N           54.27277755504963       -1.41573894110313       -0.39266977402303
C           52.94542044738531       -1.17090621758142       -0.38677668056097
C           52.31460524878378        0.04687729682658       -0.07097902556435
C           52.95071583148954        1.25944587808470        0.24902939240543
C           52.30709747597201        2.48325370614238        0.57438535200877
C           53.27523105205329        3.42054348729932        0.80559920329236
C           54.54144588533280        2.79872416148717        0.62305993552177
N           54.29326594197873        1.49261164960047        0.29294494783700
C           55.80365524278101        3.38258348606617        0.77725363310686
C           55.83074104247361        4.82413669437179        1.12318222286497
C           56.38573215093496        5.26719550703223        2.26116594843257
C           56.43408883829207        6.72917519850184        2.62150348462388
N           55.48701933471980        7.50526568718874        1.81602765954283
C           55.10191461314712        7.06116052151528        0.57725833602508
C           55.21324402450040        5.77334613541738        0.20700133483360
C           57.01779790851336        2.70468074855497        0.62762688777258
C           58.32592961797936        3.33065055590275        0.73886068613533
C           59.23536901590118        2.35590426548120        0.53570284748943
C           58.48432088181868        1.13823706923487        0.28691618732589
N           57.15352166611489        1.38718727992539        0.34239068136788
H           60.17775646905644       -0.10188392861831        0.05175289820369
H           60.19740829969209       -2.68757085438792       -0.47447271614660
H           58.31466380363187       -4.52421832693860       -0.95743211775117
H           56.41372245675313       -0.82587507048903       -0.24248525366028
H           56.66922541638698       -4.64532408737467       -3.04575380894759
H           57.14657991190873       -7.20662795990751       -2.58711048933806
H           55.89038367395568       -6.87379160586679       -3.79386720651195
H           55.20638672121868       -8.50516848338792       -2.05942559392473
H           54.21815723327378       -7.77987627463526       -0.11702079354401
H           54.54131859538159       -5.41847273263064        0.61778758691885
H           52.95922853842505       -4.34893300641974       -1.27837990074580
H           51.13239160770095       -2.42620601429637       -0.82885949028133
H           51.23857856713013        2.61770021278255        0.62536638331532
H           53.12948502659257        4.45157004513459        1.08401414248641
H           55.01501291168349        0.80101420968210        0.11862031184518
H           56.84249947978645        4.59136538400210        2.97466624960691
H           57.45917111143011        7.12237824989861        2.48578006207792
H           56.17133162428549        6.86687803507885        3.67904607272560
H           55.59033417034569        8.50475344565941        1.91760981450697
H           54.62331971566293        7.81009786818814       -0.04592065018664
H           54.85954419007456        5.43145888331593       -0.75538088028826
H           58.50002624137841        4.37679748765152        0.93304698546603
H           60.31205741258225        2.42562445901146        0.53730750519104
C           34.86653313876464       -0.08598960133011        0.06641827164946
C           33.64584009781841       -0.06901131315552        0.05819028324197
C           36.21920555865736       -0.09269351874308        0.06895240350819
C           37.44011725160416       -0.09113897096855        0.06559928462311
C           48.33074917348757        0.08083975608970       -0.04267995546611
C           47.11007110727757        0.07522030514451       -0.02291642379686
C           49.68344669079973        0.07703439236796       -0.05616020614706
C           50.90417375113565        0.06628691896011       -0.06963364395890
C           38.84971447519376       -0.08437918731615        0.05363165119848
C           39.48663586763244       -0.27490352858889        1.29279292031569
C           38.84918451637462       -0.45636046412923        2.54828999640181
C           39.82292658660487       -0.58841688913884        3.49960743470317
C           41.08537397233016       -0.49904005267332        2.85126447301638
N           40.83061136501890       -0.30564804466302        1.51957389802507
C           42.34968873413727       -0.56418717352432        3.44632233581699
C           42.38538599769105       -0.80330328329227        4.91089370512092
C           41.90927126504146       -1.93515074612367        5.45100423241029
C           41.98507651876018       -2.21937558652610        6.92819460052425
N           42.24344671237390       -0.99485983276203        7.69027708676209
C           42.87389079260908        0.07256787753709        7.10582255832089
C           42.94797173659378        0.22642948590842        5.77197438253822
C           43.56702190218639       -0.42423349409033        2.77679734641168
C           44.86108204463115       -0.55511346074972        3.42247671880476
C           45.78904113111546       -0.37902072659078        2.45928423034853
N           43.72965297038387       -0.18384661158461        1.44781509163380
C           45.06066995720281       -0.14702173198750        1.22716994741682
C           45.70042665319598        0.06825575519903       -0.00753226753462
C           45.06315472199962        0.26491169367910       -1.24563664346949
C           45.70050801046719        0.45284429101057       -2.50022527931792
C           44.72673612265506        0.58491043665156       -3.45147105175984
C           43.46442059914374        0.48898881589806       -2.80392751109219
N           43.71918449956767        0.29251924014097       -1.47272791039993
C           42.20034719477348        0.54939227272804       -3.39990853197610
C           42.16518898936598        0.79172466089235       -4.86392785231350
C           42.63605878151459        1.92774862439445       -5.39981210294473
C           42.56100901329750        2.21616270749855       -6.87617796121758
N           42.31018153382342        0.99264907329125       -7.64233557590153
C           41.68473548115708       -0.08000536743269       -7.06212363037639
C           41.60949753779727       -0.23844074621221       -5.72886420120750
C           40.98323575769889        0.40332991401743       -2.73157700144537
C           39.68920899200078        0.52705740292562       -3.37858798747349
C           38.76132015559264        0.35014098105424       -2.41553994857877
C           39.48974570769685        0.12499651353401       -1.18212959038012
N           40.82067288780669        0.16537533543022       -1.40208942992034
H           37.78130285908798       -0.47494663195682        2.69535415241906
H           39.68382093436333       -0.72619790600798        4.55946454044503
H           41.54530927816897       -0.19313053891266        0.80838637400999
H           41.51270894436477       -2.73679254514890        4.83873467460661
H           42.77308888254853       -2.96826145866494        7.13360839773851
H           41.03521158080041       -2.64434712485102        7.28022779083780
H           42.45059665169983       -1.15671469270545        8.66522240035217
H           43.23226388658789        0.82426812284214        7.80189816477932
H           43.38081957173745        1.11276661582432        5.33051973653986
H           45.01531669142999       -0.76684512158205        4.46835288159177
H           46.86360372934383       -0.40534096439746        2.54565915248896
H           46.76833330456900        0.47543227185780       -2.64701121557298
H           44.86582144881630        0.72653593637981       -4.51080891538184
H           43.00455375617943        0.17570451840129       -0.76215239217034
H           43.02744167064553        2.72948283404865       -4.78435059654281
H           41.76940303464801        2.96152955537775       -7.08044898504014
H           43.50916584236809        2.64718188459659       -7.22543369343683
H           42.10369504056051        1.15637219336596       -8.61709686327135
H           41.33150310364976       -0.83146139832342       -7.76107615535855
H           41.18096253658086       -1.12854388591060       -5.29080729982105
H           39.53479142818841        0.73479232069974       -4.42522688732265
H           37.68676799597849        0.37204995536677       -2.50305818797542

          :  Hamiltonian                  GFN1-xTB          :
         :: total energy            -300.852565773844 Eh    ::
         :: gradient norm              0.000747457655 Eh/a0 ::
         :: HOMO-LUMO gap              1.029523923344 eV    ::
         :: SCC energy              -305.708207155204 Eh    ::
         :: repulsion energy           5.008786176608 Eh    ::

    * Orbital Energies and Occupations

         #    Occupation            Energy/Eh            Energy/eV
      -------------------------------------------------------------
         1        2.0000           -0.7948985             -21.6303
       ...           ...                  ...                  ...
       263        2.0000           -0.4055935             -11.0368
       264        2.0000           -0.3896353             -10.6025
       265        2.0000           -0.3892759             -10.5927
       266        2.0000           -0.3892627             -10.5924
       267        2.0000           -0.3752901             -10.2122
       268        2.0000           -0.3750512             -10.2057
       269        2.0000           -0.3729482             -10.1484
       270        2.0000           -0.3693938             -10.0517
       271        2.0000           -0.3693530             -10.0506
       272        2.0000           -0.3690461             -10.0423
       273        2.0000           -0.3674167              -9.9979
       274        2.0000           -0.3673329              -9.9956
       275        2.0000           -0.3668062              -9.9813 (HOMO)
       276                         -0.3289719              -8.9518 (LUMO)
       277                         -0.3256564              -8.8616
       278                         -0.3252617              -8.8508
       279                         -0.3208815              -8.7316
       280                         -0.3208561              -8.7309
       281                         -0.3207832              -8.7290
       282                         -0.2927943              -7.9673
       283                         -0.2879938              -7.8367
       284                         -0.2878937              -7.8340
       285                         -0.2640512              -7.1852
       286                         -0.2640223              -7.1844
       ...                                ...                  ...
       600                          1.5248991              41.4946
      -------------------------------------------------------------
                  HL-Gap            0.0378343 Eh            1.0295 eV

Wiberg/Mayer (AO) data.
largest (>0.10) Wiberg bond orders for each atom

     #   Z sym  total        # sym  WBO       # sym  WBO       # sym  WBO
 ---------------------------------------------------------------------------
     1   6 C    3.927 --    35 C    1.363     2 C    1.348    37 H    0.971
     2   6 C    3.904 --     1 C    1.348     3 C    1.229     6 N    1.170
     3   6 C    3.954 --     4 C    1.595     2 C    1.229    38 H    0.977
     4   6 C    3.960 --     3 C    1.595     5 C    1.234    39 H    0.975
     5   6 C    3.898 --     7 C    1.306     4 C    1.234     6 N    1.175
     6   7 N    3.469 --     5 C    1.175     2 C    1.170    40 H    0.873
     7   6 C    3.941 --    14 C    1.331     5 C    1.306     8 C    1.026
     8   6 C    3.988 --     9 C    1.767    13 C    1.098     7 C    1.026
     9   6 C    3.969 --     8 C    1.767    10 C    1.013    41 H    0.972
    10   6 C    3.961 --     9 C    1.013    43 H    0.976    42 H    0.967
                            11 N    0.949
    11   7 N    3.248 --    12 C    1.161    10 C    0.949    44 H    0.928
                            13 C    0.127
    12   6 C    3.958 --    13 C    1.691    11 N    1.161    45 H    0.971
    13   6 C    3.967 --    12 C    1.691     8 C    1.098    46 H    0.974
                            11 N    0.127
    14   6 C    3.915 --     7 C    1.331    17 N    1.292    15 C    1.125
    15   6 C    3.967 --    16 C    1.711    14 C    1.125    47 H    0.973
    16   6 C    3.966 --    15 C    1.711    18 C    1.127    48 H    0.974
    17   7 N    3.024 --    18 C    1.336    14 C    1.292
    18   6 C    3.913 --    17 N    1.336    19 C    1.265    16 C    1.127
    19   6 C    3.938 --    18 C    1.265    20 C    1.259   120 C    1.171
    20   6 C    3.889 --    19 C    1.259    21 C    1.247    24 N    1.187
    21   6 C    3.959 --    22 C    1.584    20 C    1.247    49 H    0.975
    22   6 C    3.957 --    21 C    1.584    23 C    1.241    50 H    0.974
    23   6 C    3.897 --    25 C    1.308    22 C    1.241    24 N    1.166
    24   7 N    3.475 --    20 C    1.187    23 C    1.166    51 H    0.873
    25   6 C    3.930 --    32 C    1.323    23 C    1.308    26 C    1.028
    26   6 C    3.988 --    27 C    1.767    31 C    1.097    25 C    1.028
    27   6 C    3.970 --    26 C    1.767    28 C    1.013    52 H    0.972
    28   6 C    3.961 --    27 C    1.013    54 H    0.976    53 H    0.966
                            29 N    0.949
    29   7 N    3.246 --    30 C    1.160    28 C    0.949    55 H    0.928
                            31 C    0.127
    30   6 C    3.958 --    31 C    1.693    29 N    1.160    56 H    0.971
    31   6 C    3.968 --    30 C    1.693    26 C    1.097    57 H    0.974
                            29 N    0.127
    32   6 C    3.929 --    25 C    1.323    36 N    1.315    33 C    1.119
    33   6 C    3.967 --    34 C    1.720    32 C    1.119    58 H    0.974
    34   6 C    3.967 --    33 C    1.720    35 C    1.118    59 H    0.976
    35   6 C    3.932 --     1 C    1.363    36 N    1.303    34 C    1.118
    36   7 N    3.015 --    32 C    1.315    35 C    1.303
    37   1 H    1.002 --     1 C    0.971
    38   1 H    0.998 --     3 C    0.977
    39   1 H    1.007 --     4 C    0.975
    40   1 H    0.986 --     6 N    0.873
    41   1 H    1.003 --     9 C    0.972
    42   1 H    1.008 --    10 C    0.967
    43   1 H    1.019 --    10 C    0.976
    44   1 H    0.964 --    11 N    0.928
    45   1 H    1.001 --    12 C    0.971
    46   1 H    1.003 --    13 C    0.974
    47   1 H    1.006 --    15 C    0.973
    48   1 H    1.003 --    16 C    0.974
    49   1 H    1.002 --    21 C    0.975
    50   1 H    1.006 --    22 C    0.974
    51   1 H    0.988 --    24 N    0.873
    52   1 H    1.003 --    27 C    0.972
    53   1 H    1.007 --    28 C    0.966
    54   1 H    1.019 --    28 C    0.976
    55   1 H    0.964 --    29 N    0.928
    56   1 H    1.001 --    30 C    0.971
    57   1 H    1.003 --    31 C    0.974
    58   1 H    1.007 --    33 C    0.974
    59   1 H    0.999 --    34 C    0.976
    60   6 C    3.927 --    94 C    1.363    61 C    1.348    96 H    0.971
    61   6 C    3.904 --    60 C    1.348    62 C    1.229    65 N    1.170
    62   6 C    3.954 --    63 C    1.595    61 C    1.229    97 H    0.977
    63   6 C    3.960 --    62 C    1.595    64 C    1.234    98 H    0.975
    64   6 C    3.898 --    66 C    1.307    63 C    1.234    65 N    1.175
    65   7 N    3.469 --    64 C    1.175    61 C    1.170    99 H    0.873
    66   6 C    3.941 --    73 C    1.330    64 C    1.307    67 C    1.026
    67   6 C    3.988 --    68 C    1.766    72 C    1.098    66 C    1.026
    68   6 C    3.969 --    67 C    1.766    69 C    1.013   100 H    0.972
    69   6 C    3.961 --    68 C    1.013   102 H    0.976   101 H    0.967
                            70 N    0.949
    70   7 N    3.249 --    71 C    1.161    69 C    0.949   103 H    0.928
                            72 C    0.127
    71   6 C    3.957 --    72 C    1.691    70 N    1.161   104 H    0.971
    72   6 C    3.967 --    71 C    1.691    67 C    1.098   105 H    0.974
                            70 N    0.127
    73   6 C    3.915 --    66 C    1.330    76 N    1.292    74 C    1.125
    74   6 C    3.967 --    75 C    1.711    73 C    1.125   106 H    0.973
    75   6 C    3.966 --    74 C    1.711    77 C    1.127   107 H    0.974
    76   7 N    3.024 --    77 C    1.335    73 C    1.292
    77   6 C    3.913 --    76 N    1.335    78 C    1.266    75 C    1.127
    78   6 C    3.938 --    77 C    1.266    79 C    1.259   126 C    1.170
    79   6 C    3.889 --    78 C    1.259    80 C    1.247    83 N    1.187
    80   6 C    3.959 --    81 C    1.584    79 C    1.247   108 H    0.975
    81   6 C    3.957 --    80 C    1.584    82 C    1.241   109 H    0.974
    82   6 C    3.897 --    84 C    1.308    81 C    1.241    83 N    1.166
    83   7 N    3.475 --    79 C    1.187    82 C    1.166   110 H    0.873
    84   6 C    3.930 --    91 C    1.323    82 C    1.308    85 C    1.028
    85   6 C    3.988 --    86 C    1.767    90 C    1.097    84 C    1.028
    86   6 C    3.971 --    85 C    1.767    87 C    1.013   111 H    0.972
    87   6 C    3.961 --    86 C    1.013   113 H    0.976   112 H    0.966
                            88 N    0.949
    88   7 N    3.247 --    89 C    1.160    87 C    0.949   114 H    0.928
                            90 C    0.127
    89   6 C    3.958 --    90 C    1.693    88 N    1.160   115 H    0.971
    90   6 C    3.967 --    89 C    1.693    85 C    1.097   116 H    0.974
                            88 N    0.127
    91   6 C    3.929 --    84 C    1.323    95 N    1.315    92 C    1.119
    92   6 C    3.967 --    93 C    1.720    91 C    1.119   117 H    0.974
    93   6 C    3.967 --    92 C    1.720    94 C    1.118   118 H    0.976
    94   6 C    3.932 --    60 C    1.363    95 N    1.303    93 C    1.118
    95   7 N    3.015 --    91 C    1.315    94 C    1.303
    96   1 H    1.002 --    60 C    0.971
    97   1 H    0.998 --    62 C    0.977
    98   1 H    1.007 --    63 C    0.975
    99   1 H    0.986 --    65 N    0.873
   100   1 H    1.003 --    68 C    0.972
   101   1 H    1.008 --    69 C    0.967
   102   1 H    1.019 --    69 C    0.976
   103   1 H    0.964 --    70 N    0.928
   104   1 H    1.001 --    71 C    0.971
   105   1 H    1.003 --    72 C    0.974
   106   1 H    1.006 --    74 C    0.973
   107   1 H    1.003 --    75 C    0.974
   108   1 H    1.002 --    80 C    0.975
   109   1 H    1.006 --    81 C    0.974
   110   1 H    0.988 --    83 N    0.873
   111   1 H    1.003 --    86 C    0.972
   112   1 H    1.007 --    87 C    0.966
   113   1 H    1.019 --    87 C    0.976
   114   1 H    0.964 --    88 N    0.928
   115   1 H    1.001 --    89 C    0.971
   116   1 H    1.003 --    90 C    0.974
   117   1 H    1.007 --    92 C    0.974
   118   1 H    0.999 --    93 C    0.976
   119   6 C    3.931 --   120 C    2.491   121 C    1.292
   120   6 C    3.917 --   119 C    2.491    19 C    1.171   122 C    0.196
   121   6 C    3.928 --   122 C    2.490   119 C    1.292
   122   6 C    3.918 --   121 C    2.490   127 C    1.173   120 C    0.196
   123   6 C    3.928 --   124 C    2.491   125 C    1.291
   124   6 C    3.918 --   123 C    2.491   145 C    1.172   126 C    0.196
   125   6 C    3.931 --   126 C    2.492   123 C    1.291
   126   6 C    3.917 --   125 C    2.492    78 C    1.170   124 C    0.196
   127   6 C    3.928 --   161 C    1.264   128 C    1.256   122 C    1.173
   128   6 C    3.891 --   127 C    1.256   129 C    1.250   132 N    1.187
   129   6 C    3.957 --   130 C    1.581   128 C    1.250   163 H    0.975
   130   6 C    3.958 --   129 C    1.581   131 C    1.243   164 H    0.974
   131   6 C    3.895 --   133 C    1.305   130 C    1.243   132 N    1.165
   132   7 N    3.472 --   128 C    1.187   131 C    1.165   165 H    0.874
   133   6 C    3.931 --   140 C    1.334   131 C    1.305   134 C    1.023
   134   6 C    3.988 --   135 C    1.767   139 C    1.099   133 C    1.023
   135   6 C    3.970 --   134 C    1.767   136 C    1.013   166 H    0.972
   136   6 C    3.961 --   135 C    1.013   168 H    0.975   167 H    0.967
                           137 N    0.949
   137   7 N    3.249 --   138 C    1.162   136 C    0.949   169 H    0.928
                           139 C    0.127
   138   6 C    3.958 --   139 C    1.691   137 N    1.162   170 H    0.971
   139   6 C    3.967 --   138 C    1.691   134 C    1.099   171 H    0.973
                           137 N    0.127
   140   6 C    3.917 --   133 C    1.334   143 N    1.290   141 C    1.125
   141   6 C    3.967 --   142 C    1.711   140 C    1.125   172 H    0.973
   142   6 C    3.965 --   141 C    1.711   144 C    1.128   173 H    0.974
   143   7 N    3.014 --   144 C    1.336   140 C    1.290
   144   6 C    3.913 --   143 N    1.336   145 C    1.265   142 C    1.128
   145   6 C    3.928 --   144 C    1.265   146 C    1.256   124 C    1.172
   146   6 C    3.891 --   145 C    1.256   147 C    1.250   150 N    1.187
   147   6 C    3.957 --   148 C    1.581   146 C    1.250   174 H    0.975
   148   6 C    3.958 --   147 C    1.581   149 C    1.244   175 H    0.974
   149   6 C    3.895 --   151 C    1.304   148 C    1.244   150 N    1.165
   150   7 N    3.472 --   146 C    1.187   149 C    1.165   176 H    0.874
   151   6 C    3.931 --   158 C    1.334   149 C    1.304   152 C    1.023
   152   6 C    3.988 --   153 C    1.767   157 C    1.100   151 C    1.023
   153   6 C    3.970 --   152 C    1.767   154 C    1.013   177 H    0.972
   154   6 C    3.961 --   153 C    1.013   179 H    0.975   178 H    0.967
                           155 N    0.949
   155   7 N    3.250 --   156 C    1.162   154 C    0.949   180 H    0.928
                           157 C    0.127
   156   6 C    3.958 --   157 C    1.691   155 N    1.162   181 H    0.971
   157   6 C    3.967 --   156 C    1.691   152 C    1.100   182 H    0.973
                           155 N    0.127
   158   6 C    3.917 --   151 C    1.334   162 N    1.290   159 C    1.125
   159   6 C    3.967 --   160 C    1.711   158 C    1.125   183 H    0.973
   160   6 C    3.965 --   159 C    1.711   161 C    1.128   184 H    0.974
   161   6 C    3.913 --   162 N    1.337   127 C    1.264   160 C    1.128
   162   7 N    3.014 --   161 C    1.337   158 C    1.290
   163   1 H    1.002 --   129 C    0.975
   164   1 H    1.007 --   130 C    0.974
   165   1 H    0.988 --   132 N    0.874
   166   1 H    1.003 --   135 C    0.972
   167   1 H    1.009 --   136 C    0.967
   168   1 H    1.018 --   136 C    0.975
   169   1 H    0.963 --   137 N    0.928
   170   1 H    1.002 --   138 C    0.971
   171   1 H    1.003 --   139 C    0.973
   172   1 H    1.006 --   141 C    0.973
   173   1 H    1.003 --   142 C    0.974
   174   1 H    1.002 --   147 C    0.975
   175   1 H    1.007 --   148 C    0.974
   176   1 H    0.988 --   150 N    0.874
   177   1 H    1.003 --   153 C    0.972
   178   1 H    1.009 --   154 C    0.967
   179   1 H    1.018 --   154 C    0.975
   180   1 H    0.963 --   155 N    0.928
   181   1 H    1.002 --   156 C    0.971
   182   1 H    1.003 --   157 C    0.973
   183   1 H    1.006 --   159 C    0.973
   184   1 H    1.003 --   160 C    0.974
 ---------------------------------------------------------------------------

           -------------------------------------------------
          | TOTAL ENERGY             -300.852565773844 Eh   |
          | GRADIENT NORM               0.000747457655 Eh/α |
          | HOMO-LUMO GAP               1.029523923344 eV   |
           -------------------------------------------------

 * finished run on 2022/07/27 at 22:05:38.759
