   * xtb version 6.5.1 (b24c23e) compiled by 'conda@728c89f4b128' on 2022-07-12
          program call               : xtb Co_Ph2OMe_C6_3.xyz --gfn 1 --opt -T 48

   ID    Z sym.   atoms
    1   27 Co     1, 73, 157
    2    6 C      2-6, 8-11, 13-21, 23-27, 29-33, 36, 37, 39-43, 45, 74-78,
                  80-83, 85-93, 95-99, 101-105, 108, 109, 111-115, 117,
                  145-156, 158-162, 164-167, 169-177, 179-183, 185-189, 192,
                  193, 195-199, 201
    3    7 N      7, 12, 34, 35, 79, 84, 106, 107, 163, 168, 190, 191
    4    8 O      22, 28, 38, 44, 94, 100, 110, 116, 178, 184, 194, 200
    5    1 H      46-72, 118-144, 202-227

          :  Hamiltonian                  GFN1-xTB          :
 * total energy  :  -400.9452620 Eh     change        0.1258400E-08 Eh
 * total energy  :  -401.3224087 Eh     change       -0.3771467E+00 Eh
 * total energy  :  -401.4571356 Eh     change       -0.1347269E+00 Eh
 * total energy  :  -401.5594278 Eh     change       -0.1022922E+00 Eh
 * total energy  :  -401.6375386 Eh     change       -0.7811081E-01 Eh
 * total energy  :  -401.6894793 Eh     change       -0.5194068E-01 Eh
 * total energy  :  -401.7199405 Eh     change       -0.3046123E-01 Eh
 * total energy  :  -401.7406585 Eh     change       -0.2071797E-01 Eh
 * total energy  :  -401.7517820 Eh     change       -0.1112353E-01 Eh
 * total energy  :  -401.7607381 Eh     change       -0.8956101E-02 Eh
 * total energy  :  -401.8185824 Eh     change       -0.2210977E-04 Eh
 * total energy  :  -401.8186346 Eh     change       -0.5218456E-04 Eh
 * total energy  :  -401.8186519 Eh     change       -0.1726573E-04 Eh
 * total energy  :  -401.8186706 Eh     change       -0.1876237E-04 Eh
 * total energy  :  -401.8186648 Eh     change        0.5815230E-05 Eh
 * total energy  :  -401.8186754 Eh     change       -0.1062785E-04 Eh
 * total energy  :  -401.8186839 Eh     change       -0.8417794E-05 Eh
 * total energy  :  -401.8186902 Eh     change       -0.6363632E-05 Eh
 * total energy  :  -401.8186928 Eh     change       -0.2555003E-05 Eh
   *** GEOMETRY OPTIMIZATION CONVERGED AFTER 94 ITERATIONS ***

 final structure:
================
227
 xtb: 6.5.1 (b24c23e)
Co          28.65910396677910       -0.06528577186029        0.07981605122419
C           25.29683873557196       -0.23091102245166        0.30379487039041
C           25.98742967617200        0.45315699171502        1.28096296203815
C           25.35952047570529        1.10216414260877        2.39183604381563
C           26.31482616124730        1.84588177847118        2.99713098288737
C           27.52857213810771        1.64145522981241        2.26315097216231
N           27.32697650365001        0.74877399476303        1.24101996189587
C           28.69439872673381        2.36406660391221        2.46904684308929
C           29.85265782429635        2.10601287031476        1.75531091943144
C           31.09316651596453        2.78610314163695        1.97623666404571
C           32.04088246979408        2.10567663072933        1.28864161252682
N           30.03239329074438        1.05153734506961        0.88776773831298
C           31.37624190790055        1.01859318785611        0.64156761928445
C           32.04780947565517        0.00883506640813       -0.05075125715509
C           31.36407314283963       -0.99836161236466       -0.73320576061175
C           32.01769045602652       -2.03765028904738       -1.46503254856263
C           31.05165914315845       -2.69835170473449       -2.14674948014499
C           29.81018000644824       -2.06115591055444       -1.82785681235444
C           28.60272966819027       -2.36706697425217       -2.43437475389419
C           28.57886557847095       -3.38030798712839       -3.52341645668381
C           29.20111768149103       -3.11898120091489       -4.75177824254447
O           29.79369847431817       -1.90215007997851       -4.87111082991253
C           30.46601985346497       -1.54590528091314       -6.06194945362785
C           29.17884212940512       -4.07148366818266       -5.77022206782908
C           28.54035139470397       -5.28332361874382       -5.55493070928694
C           27.92147001495364       -5.56607273892423       -4.34670648710187
C           27.93895331519093       -4.61240200181554       -3.32960299954161
O           27.37083279139621       -4.80175989871770       -2.10964464144706
C           26.69104260700913       -6.00449155768200       -1.81310509264917
C           27.41310780568195       -1.77760370788291       -2.03466313347162
C           26.13796275131131       -2.06243298260371       -2.62395308518694
C           25.20363839328178       -1.47791191205144       -1.83839922946521
C           25.90986171618790       -0.82100717453035       -0.78032008193150
N           27.26528047565932       -0.95937213578829       -0.94285585322154
N           30.00991841344751       -1.05066477134326       -0.91554181409994
C           28.70826932878315        3.43751988173838        3.50023231106505
C           28.66774059287262        3.11370906330138        4.86241637135920
O           28.61893255698659        1.78717020347066        5.15561688817764
C           28.59371473690631        1.35128653587939        6.49965710699695
C           28.68689093044448        4.12062656219255        5.82695970496024
C           28.74251678941275        5.44649605325557        5.42461583837543
C           28.78170649242617        5.79072651438039        4.08192717768704
C           28.76729583576443        4.78372716140424        3.11734172412701
O           28.79969102089870        5.01844359730408        1.77901141181599
C           28.84884723371640        6.34153137714597        1.28492894541318
H           24.21767624517506       -0.29215288992805        0.38244583436995
H           24.31561780650874        1.00463217145238        2.64532125384136
H           26.21914058529294        2.48772086747974        3.85770799962726
H           31.21308741576668        3.65852621982885        2.59755632631404
H           33.09910594568441        2.30171329444512        1.22241874976423
H           33.08135389647529       -2.21454553785710       -1.45733220797223
H           31.15661614115861       -3.53756748004179       -2.81507630783802
H           29.78283061631268       -1.52847660763592       -6.91979887233504
H           30.86157807554778       -0.54177199658545       -5.89841851402739
H           31.29669884536718       -2.22996708859093       -6.27410580246512
H           29.65211951403948       -3.87747823798544       -6.72343054070314
H           28.52516914208896       -6.02455134384040       -6.34643517475389
H           27.43377190918876       -6.52121669564788       -4.20496097978831
H           26.32173008165009       -5.90008991692958       -0.79116792360939
H           25.84132440831399       -6.16283212981294       -2.48832631087404
H           27.36272845633207       -6.86987516533451       -1.86655495717396
H           25.99289746029555       -2.65221406191285       -3.51462893745254
H           24.13016420728948       -1.48357463946865       -1.94410001707557
H           28.56211124479239        0.26072247613876        6.46465087800922
H           27.70467375606879        1.72029045966466        7.02550959140883
H           29.49295347784186        1.66829651708938        7.04165549317005
H           28.65910380422835        3.88133176713479        6.88156096799725
H           28.75598576123241        6.22954026321653        6.17480913735078
H           28.82409737803791        6.83343780547662        3.79702047323857
H           29.75524446983454        6.86160270034885        1.61797497773402
H           28.86262397377295        6.25886344069921        0.19660009908352
H           27.96728296084632        6.91767134791970        1.59114014949680
Co          60.58062618154849       -0.10938832400131        0.04397281457571
C           63.94092142539091       -0.35744627960336        0.16752360730775
C           63.24936368002697       -1.21228427906148       -0.66402906046176
C           63.87605847882521       -2.20380342932679       -1.48467991961998
C           62.92014545435609       -2.67802407128193       -2.31768052416321
C           61.70740905270087       -1.98525863724728       -1.99654941665060
N           61.91029535932402       -1.12228019000109       -0.95037644692787
C           60.54080306176154       -2.06649151089089       -2.74474152356747
C           59.38478768239806       -1.39943213137309       -2.37526279321738
C           58.14400723648716       -1.49827531340406       -3.08314813791161
C           57.19837740258662       -0.92970749904453       -2.29764388087694
N           59.20636897507176       -0.71968262846338       -1.19032649777586
C           57.86475376210568       -0.47792030027279       -1.11711922705648
C           57.19324635984147        0.02463276355672        0.00182542469190
C           57.88024685243514        0.52230984397856        1.11235893384661
C           57.22930614496856        1.06644433880121        2.26255084769708
C           58.19526179522970        1.64216598558791        3.01798789649004
C           59.43353375714444        1.44392775110164        2.32783241353244
C           60.63914640375473        2.00479209997473        2.71681008740759
C           60.66131993429718        2.92670754497072        3.88373718370875
C           60.02424845957252        4.17344286927581        3.81424952676810
O           59.42126232353100        4.46773324794490        2.63305623893759
C           58.73609333263533        5.69211761672231        2.46297349251430
C           60.04416074646872        5.03724629883570        4.90888437562594
C           60.69459893452096        4.64924235919428        6.07031677102298
C           61.32779709245859        3.41919251944186        6.16408555141567
C           61.31306944741100        2.55683769328965        5.06845331859430
O           61.89444457900976        1.32853838979892        5.06870085721663
C           62.58529217805149        0.86170025878924        6.20965015862710
C           61.82820415557460        1.70837990072245        2.06619013270700
C           63.10317964307063        2.24888820878858        2.43578388750523
C           64.03708266974697        1.56418953208794        1.73482058690559
C           63.32998392567588        0.62065216085276        0.92274101607193
N           61.97505514268862        0.75765390976566        1.08827590067707
N           59.23205271787644        0.70579873825653        1.18404116005755
C           60.52483835067396       -2.90972315219419       -3.97076837850846
C           60.58384566418011       -4.30608243588219       -3.87250926121633
O           60.65087487586823       -4.81008574578517       -2.61187682620248
C           60.70987750067138       -6.20629673264769       -2.40066018338166
C           60.56186118074005       -5.09505826163072       -5.02205446957900
C           60.48525912720469       -4.48442057272270       -6.26464365399975
C           60.42742687840332       -3.10433347020642       -6.38639955619267
C           60.44410898604861       -2.31518007548879       -5.23686577125826
O           60.39522115265945       -0.95699758461459       -5.25219466771114
C           60.31081818586325       -0.25703339138444       -6.47702122975672
H           65.02012776790043       -0.44572662041961        0.21425044044780
H           64.91950851376397       -2.47150029454621       -1.42967918530038
H           63.01581278419614       -3.42211138403681       -3.09143679085191
H           58.02154794699158       -1.96459800639673       -4.04695039859955
H           56.14061680089752       -0.82753825725917       -2.48017935923336
H           56.16738680623314        1.01949223198191        2.44367477721548
H           58.09204778135136        2.16365411550236        3.95572709311940
H           59.41177526089307        6.54930972008990        2.57057761355812
H           58.33520726439942        5.67692637897101        1.44782045227699
H           57.90832481442043        5.79126711968559        3.17560203662461
H           59.55975854628400        6.00341532991648        4.86348408069071
H           60.70787932802536        5.32040202458034        6.92205200989635
H           61.82454716899262        3.14093598857024        7.08387780991349
H           62.96286667968601       -0.12936043209835        5.95111548453282
H           63.43002784386423        1.51392476423988        6.46260376846129
H           61.91915799362541        0.77833528882687        7.07691682872395
H           63.24891460996850        3.03734188085574        3.15634995809074
H           65.11045655508522        1.66895734177778        1.75485146602987
H           60.75995553410366       -6.34784583676381       -1.31946802338273
H           61.60250701537983       -6.64522054601502       -2.86279258424197
H           59.81605177521557       -6.70949233323857       -2.78879317950249
H           60.60307934217451       -6.17404490912129       -4.95681254994388
H           60.46971371580278       -5.09818271789636       -7.15858052756269
H           60.36911647489990       -2.65498709755813       -7.36866852843062
H           59.39888750931362       -0.51885176062363       -7.02726764757359
H           60.28192664932850        0.80325655992447       -6.21929051174258
H           61.18465653152420       -0.44984582272669       -7.11104486081626
C           37.24943058453886        0.04893337999788       -0.07617917454010
C           36.02134049030023        0.03788713649393       -0.07946371687185
C           34.67603810217289        0.02878685919358       -0.07719323277132
C           33.45266326410736        0.01764731110692       -0.07047729344569
C           38.59445912021398        0.05733588470793       -0.07289163111872
C           39.81826506812042        0.06156668807529       -0.06573706429507
C           53.22449432968538        0.05915875022714       -0.01851044771003
C           51.99498282389762        0.05880438109998       -0.03005486402477
C           50.65255373625808        0.05733275407130       -0.04019023872823
C           49.42756977846081        0.05241626830105       -0.04736914657455
C           54.56708508673905        0.05359391532781       -0.01003015798386
C           55.79185884801532        0.04492946134809       -0.00113838244185
Co          44.62431235475614        0.00934791759828       -0.05457677128860
C           41.22207467913528        0.06089893828705       -0.06019131853947
C           41.89706003023659       -0.17753858207594        1.13985813181830
C           41.23555571405413       -0.44528142683123        2.37798308724119
C           42.19280823495207       -0.44174343250633        3.33724896725313
C           43.43328396181479       -0.16918958780299        2.67873043373968
N           43.24523828118652       -0.05454705779458        1.32149094096181
C           44.62061135264774        0.08660387801191        3.34381662227979
C           45.80665711540318        0.33508369914995        2.67604682782705
C           47.04445106687605        0.62853178237133        3.33101639801636
C           48.00249300832603        0.62324663953560        2.37288499022151
N           45.99655307225862        0.20636074183243        1.31913070151665
C           47.34459180798098        0.32581832919774        1.13941175168864
C           48.02678984697727        0.04953627825325       -0.04965410701276
C           47.34746827248279       -0.23724271756305       -1.23783837772173
C           48.00628439756895       -0.56870931622128       -2.46148868487633
C           47.05060230013407       -0.59068528310692       -3.42186831195048
C           45.81399180661558       -0.26367378526241       -2.78057523201735
C           44.63062845863070       -0.01328388793025       -3.45721258493673
C           44.63400463033459       -0.03800258661691       -4.94434995426428
C           43.93590202006176       -1.03520712630714       -5.63933784681035
O           43.28829771255536       -1.95089120788196       -4.87299031893462
C           42.54336817555065       -2.99125648533232       -5.47341864237347
C           43.94417965201558       -1.05915148245895       -7.03358960469863
C           44.64429329069662       -0.08342405425641       -7.72677217217970
C           45.33898059347933        0.91485466318784       -7.06078940800098
C           45.33669442750858        0.93655342850316       -5.66651468761874
O           45.97748746553967        1.87753820595063       -4.92564779038799
C           46.72154477233889        2.90196471021538       -5.55381613996460
C           43.44453424603323        0.25978019143192       -2.79318318603282
C           42.20958278836113        0.55816032853450       -3.45173329271221
C           41.25065770059104        0.57263375600191       -2.49497395336213
C           41.90564260154574        0.29276834790852       -1.25610569153954
N           43.25444911551241        0.16205405530627       -1.43443835378073
N           46.00176195857586       -0.10348224944889       -1.42713832589748
C           44.62194186230738        0.09420840519445        4.83440978619028
C           45.00152017804325       -1.05182238419813        5.54267372963551
O           45.34779949489184       -2.12601467608955        4.78686213313139
C           45.72889259752674       -3.34031124310570        5.40189570430264
C           45.00372482403129       -1.04539979074106        6.93742789638388
C           44.62981797037600        0.10738771745356        7.61157114618582
C           44.25185287985943        1.25365732086088        6.92856883721740
C           44.24611473049067        1.24674830123461        5.53381830145566
O           43.89675575201603        2.31401347824226        4.76960897326120
C           43.51308197100984        3.53217630954906        5.37508758915034
H           40.17376917450860       -0.60086305623570        2.48280245521755
H           42.08318225444154       -0.59495588921678        4.39880918323374
H           47.15195880715180        0.79943890285432        4.39007578230063
H           49.06316354934389        0.78717006342456        2.47623517728970
H           49.06519668706570       -0.74807983838389       -2.55711489940052
H           47.16136588103252       -0.79542289991051       -4.47431450314400
H           41.73285467357945       -2.59609774021123       -6.09764923040322
H           42.11456838537573       -3.56955593862660       -4.65296842468382
H           43.18235864260472       -3.64476928947107       -6.07952882912031
H           43.41313997954705       -1.82742378127785       -7.57939454714779
H           44.64862026274235       -0.10142315818003       -8.81108629620489
H           45.87436117846233        1.66482488301376       -7.62741169230781
H           47.13782553257236        3.51103796331945       -4.74933283683492
H           46.08459760918986        3.52986731281325       -6.18848334508525
H           47.54117808517684        2.49137507414817       -6.15578434373290
H           42.10193494783957        0.71788874298405       -4.51222368213250
H           40.19158040518416        0.74450750884967       -2.60161053669445
H           44.91986590513148       -3.74816960714707        6.01996097003676
H           45.94589248928721       -4.03686014010796        4.59001683963374
H           46.62734986947163       -3.21399504783454        6.01802126183748
H           45.29316779263217       -1.92436421062894        7.49764954077659
H           44.63274602667425        0.11250500490761        8.69608621077463
H           43.96587692047321        2.13800326637419        7.48207380580850
H           44.32268420461609        3.94908220808505        5.98637982757542
H           42.61752394655042        3.40762341042109        5.99578581341987
H           43.29007133997057        4.22043719421345        4.55778971111783

          :  Hamiltonian                  GFN1-xTB          :
         :: total energy            -401.818692779512 Eh    ::
         :: gradient norm              0.000396326648 Eh/a0 ::
         :: HOMO-LUMO gap              0.005529326322 eV    ::
         :: SCC energy              -407.596148215728 Eh    ::
         :: repulsion energy           5.976076472066 Eh    ::

    * Orbital Energies and Occupations

         #    Occupation            Energy/Eh            Energy/eV
      -------------------------------------------------------------
         1        2.0000           -0.8073239             -21.9684
       ...           ...                  ...                  ...
       348        2.0000           -0.3807913             -10.3619
       349        2.0000           -0.3799970             -10.3402
       350        2.0000           -0.3798303             -10.3357
       351        1.9999           -0.3777347             -10.2787
       352        1.9998           -0.3773805             -10.2690
       353        1.9998           -0.3772263             -10.2648
       354        1.9998           -0.3772011             -10.2642
       355        1.9997           -0.3768807             -10.2554
       356        1.9997           -0.3768493             -10.2546
       357        1.9927           -0.3739566             -10.1759
       358        1.8222           -0.3708127             -10.0903
       359        1.1333           -0.3687337             -10.0338
       360        1.0752           -0.3686109             -10.0304 (HOMO)
       361        0.9782           -0.3684077             -10.0249 (LUMO)
       362                         -0.3283370              -8.9345
       363                         -0.3182882              -8.6611
       364                         -0.3151591              -8.5759
       365                         -0.3135118              -8.5311
       366                         -0.3124393              -8.5019
       367                         -0.3104428              -8.4476
       368                         -0.2928498              -7.9688
       369                         -0.2826366              -7.6909
       370                         -0.2811816              -7.6513
       371                         -0.2803836              -7.6296
       ...                                ...                  ...
       763                          1.5887842              43.2330
      -------------------------------------------------------------
                  HL-Gap            0.0002032 Eh            0.0055 eV

Wiberg/Mayer (AO) data.
largest (>0.10) Wiberg bond orders for each atom

     #   Z sym  total        # sym  WBO       # sym  WBO       # sym  WBO
 ---------------------------------------------------------------------------
     1  27 Co   3.052 --    34 N    0.644     7 N    0.642    12 N    0.641
                            35 N    0.638
     2   6 C    3.934 --     3 C    1.366    33 C    1.366    46 H    0.970
     3   6 C    3.925 --     2 C    1.366     7 N    1.201     4 C    1.174
     4   6 C    3.960 --     5 C    1.650     3 C    1.174    47 H    0.976
     5   6 C    3.963 --     4 C    1.650     6 C    1.177    48 H    0.974
     6   6 C    3.918 --     8 C    1.325     7 N    1.209     5 C    1.177
     7   7 N    3.353 --     6 C    1.209     3 C    1.201     1 Co   0.642
     8   6 C    3.938 --     9 C    1.341     6 C    1.325    36 C    1.013
     9   6 C    3.915 --     8 C    1.341    12 N    1.188    10 C    1.180
    10   6 C    3.959 --    11 C    1.641     9 C    1.180    49 H    0.974
    11   6 C    3.962 --    10 C    1.641    13 C    1.188    50 H    0.974
    12   7 N    3.354 --    13 C    1.230     9 C    1.188     1 Co   0.641
    13   6 C    3.906 --    14 C    1.262    12 N    1.230    11 C    1.188
    14   6 C    3.941 --    15 C    1.266    13 C    1.262   148 C    1.182
    15   6 C    3.906 --    14 C    1.266    35 N    1.226    16 C    1.187
    16   6 C    3.961 --    17 C    1.640    15 C    1.187    51 H    0.974
    17   6 C    3.960 --    16 C    1.640    18 C    1.182    52 H    0.974
    18   6 C    3.916 --    19 C    1.335    35 N    1.193    17 C    1.182
    19   6 C    3.938 --    18 C    1.335    30 C    1.327    20 C    1.017
    20   6 C    3.977 --    21 C    1.342    27 C    1.341    19 C    1.017
                            25 C    0.100
    21   6 C    3.903 --    24 C    1.362    20 C    1.342    22 O    1.033
    22   8 O    2.146 --    21 C    1.033    23 C    0.935
    23   6 C    3.907 --    54 H    0.983    55 H    0.980    53 H    0.980
                            22 O    0.935
    24   6 C    3.983 --    25 C    1.442    21 C    1.362    56 H    0.969
    25   6 C    3.992 --    24 C    1.442    26 C    1.442    57 H    0.974
                            20 C    0.100
    26   6 C    3.983 --    25 C    1.442    27 C    1.362    58 H    0.969
    27   6 C    3.903 --    26 C    1.362    20 C    1.341    28 O    1.032
    28   8 O    2.146 --    27 C    1.032    29 C    0.935
    29   6 C    3.908 --    59 H    0.983    60 H    0.980    61 H    0.980
                            28 O    0.935
    30   6 C    3.919 --    19 C    1.327    34 N    1.207    31 C    1.176
    31   6 C    3.963 --    32 C    1.651    30 C    1.176    62 H    0.974
    32   6 C    3.960 --    31 C    1.651    33 C    1.173    63 H    0.976
    33   6 C    3.925 --     2 C    1.366    34 N    1.202    32 C    1.173
    34   7 N    3.351 --    30 C    1.207    33 C    1.202     1 Co   0.644
    35   7 N    3.354 --    15 C    1.226    18 C    1.193     1 Co   0.638
    36   6 C    3.977 --    37 C    1.344    43 C    1.343     8 C    1.013
                            41 C    0.101
    37   6 C    3.903 --    40 C    1.362    36 C    1.344    38 O    1.031
    38   8 O    2.145 --    37 C    1.031    39 C    0.935
    39   6 C    3.908 --    64 H    0.983    65 H    0.980    66 H    0.980
                            38 O    0.935
    40   6 C    3.983 --    41 C    1.442    37 C    1.362    67 H    0.969
    41   6 C    3.993 --    42 C    1.442    40 C    1.442    68 H    0.974
                            36 C    0.101
    42   6 C    3.983 --    41 C    1.442    43 C    1.362    69 H    0.969
    43   6 C    3.903 --    42 C    1.362    36 C    1.343    44 O    1.031
    44   8 O    2.145 --    43 C    1.031    45 C    0.935
    45   6 C    3.907 --    71 H    0.983    70 H    0.980    72 H    0.980
                            44 O    0.935
    46   1 H    1.001 --     2 C    0.970
    47   1 H    0.998 --     4 C    0.976
    48   1 H    1.002 --     5 C    0.974
    49   1 H    1.002 --    10 C    0.974
    50   1 H    1.002 --    11 C    0.974
    51   1 H    1.002 --    16 C    0.974
    52   1 H    1.002 --    17 C    0.974
    53   1 H    1.009 --    23 C    0.980
    54   1 H    1.015 --    23 C    0.983
    55   1 H    1.009 --    23 C    0.980
    56   1 H    1.000 --    24 C    0.969
    57   1 H    1.003 --    25 C    0.974
    58   1 H    1.000 --    26 C    0.969
    59   1 H    1.016 --    29 C    0.983
    60   1 H    1.009 --    29 C    0.980
    61   1 H    1.009 --    29 C    0.980
    62   1 H    1.002 --    31 C    0.974
    63   1 H    0.998 --    32 C    0.976
    64   1 H    1.015 --    39 C    0.983
    65   1 H    1.009 --    39 C    0.980
    66   1 H    1.009 --    39 C    0.980
    67   1 H    1.000 --    40 C    0.969
    68   1 H    1.003 --    41 C    0.974
    69   1 H    1.000 --    42 C    0.969
    70   1 H    1.009 --    45 C    0.980
    71   1 H    1.015 --    45 C    0.983
    72   1 H    1.009 --    45 C    0.980
    73  27 Co   3.039 --   106 N    0.639    79 N    0.637    84 N    0.635
                           107 N    0.633
    74   6 C    3.926 --    75 C    1.365   105 C    1.364   118 H    0.970
    75   6 C    3.926 --    74 C    1.365    79 N    1.201    76 C    1.174
    76   6 C    3.959 --    77 C    1.649    75 C    1.174   119 H    0.976
    77   6 C    3.963 --    76 C    1.649    78 C    1.178   120 H    0.974
    78   6 C    3.918 --    80 C    1.319    79 N    1.213    77 C    1.178
    79   7 N    3.347 --    78 C    1.213    75 C    1.201    73 Co   0.637
    80   6 C    3.930 --    81 C    1.342    78 C    1.319   108 C    1.015
    81   6 C    3.916 --    80 C    1.342    84 N    1.187    82 C    1.180
    82   6 C    3.958 --    83 C    1.640    81 C    1.180   121 H    0.974
    83   6 C    3.962 --    82 C    1.640    85 C    1.189   122 H    0.974
    84   7 N    3.347 --    85 C    1.237    81 C    1.187    73 Co   0.635
    85   6 C    3.904 --    86 C    1.253    84 N    1.237    83 C    1.189
    86   6 C    3.931 --    87 C    1.257    85 C    1.253   156 C    1.197
    87   6 C    3.904 --    86 C    1.257   107 N    1.233    88 C    1.188
    88   6 C    3.961 --    89 C    1.639    87 C    1.188   123 H    0.974
    89   6 C    3.959 --    88 C    1.639    90 C    1.182   124 H    0.974
    90   6 C    3.916 --    91 C    1.336   107 N    1.192    89 C    1.182
    91   6 C    3.930 --    90 C    1.336   102 C    1.323    92 C    1.018
    92   6 C    3.976 --    99 C    1.341    93 C    1.341    91 C    1.018
                            97 C    0.100
    93   6 C    3.903 --    96 C    1.362    92 C    1.341    94 O    1.033
    94   8 O    2.146 --    93 C    1.033    95 C    0.935
    95   6 C    3.907 --   126 H    0.983   127 H    0.980   125 H    0.980
                            94 O    0.935
    96   6 C    3.983 --    97 C    1.442    93 C    1.362   128 H    0.969
    97   6 C    3.992 --    96 C    1.442    98 C    1.442   129 H    0.974
                            92 C    0.100
    98   6 C    3.983 --    97 C    1.442    99 C    1.362   130 H    0.969
    99   6 C    3.903 --    98 C    1.362    92 C    1.341   100 O    1.032
   100   8 O    2.146 --    99 C    1.032   101 C    0.935
   101   6 C    3.907 --   131 H    0.983   132 H    0.980   133 H    0.980
                           100 O    0.935
   102   6 C    3.919 --    91 C    1.323   106 N    1.210   103 C    1.176
   103   6 C    3.963 --   104 C    1.650   102 C    1.176   134 H    0.974
   104   6 C    3.960 --   103 C    1.650   105 C    1.174   135 H    0.976
   105   6 C    3.926 --    74 C    1.364   106 N    1.203   104 C    1.174
   106   7 N    3.345 --   102 C    1.210   105 C    1.203    73 Co   0.639
   107   7 N    3.347 --    87 C    1.233    90 C    1.192    73 Co   0.633
   108   6 C    3.976 --   109 C    1.343   115 C    1.343    80 C    1.015
                           113 C    0.101
   109   6 C    3.903 --   112 C    1.362   108 C    1.343   110 O    1.031
   110   8 O    2.146 --   109 C    1.031   111 C    0.935
   111   6 C    3.907 --   136 H    0.983   137 H    0.980   138 H    0.980
                           110 O    0.935
   112   6 C    3.983 --   113 C    1.442   109 C    1.362   139 H    0.969
   113   6 C    3.992 --   114 C    1.442   112 C    1.442   140 H    0.974
                           108 C    0.101
   114   6 C    3.983 --   113 C    1.442   115 C    1.362   141 H    0.969
   115   6 C    3.903 --   114 C    1.362   108 C    1.343   116 O    1.031
   116   8 O    2.145 --   115 C    1.031   117 C    0.935
   117   6 C    3.907 --   143 H    0.983   142 H    0.980   144 H    0.980
                           116 O    0.935
   118   1 H    1.001 --    74 C    0.970
   119   1 H    0.998 --    76 C    0.976
   120   1 H    1.002 --    77 C    0.974
   121   1 H    1.002 --    82 C    0.974
   122   1 H    1.002 --    83 C    0.974
   123   1 H    1.002 --    88 C    0.974
   124   1 H    1.002 --    89 C    0.974
   125   1 H    1.009 --    95 C    0.980
   126   1 H    1.015 --    95 C    0.983
   127   1 H    1.009 --    95 C    0.980
   128   1 H    1.000 --    96 C    0.969
   129   1 H    1.003 --    97 C    0.974
   130   1 H    1.000 --    98 C    0.969
   131   1 H    1.015 --   101 C    0.983
   132   1 H    1.009 --   101 C    0.980
   133   1 H    1.009 --   101 C    0.980
   134   1 H    1.002 --   103 C    0.974
   135   1 H    0.998 --   104 C    0.976
   136   1 H    1.015 --   111 C    0.983
   137   1 H    1.009 --   111 C    0.980
   138   1 H    1.009 --   111 C    0.980
   139   1 H    1.000 --   112 C    0.969
   140   1 H    1.003 --   113 C    0.974
   141   1 H    1.000 --   114 C    0.969
   142   1 H    1.009 --   117 C    0.980
   143   1 H    1.015 --   117 C    0.983
   144   1 H    1.009 --   117 C    0.980
   145   6 C    3.923 --   146 C    2.371   149 C    1.332   148 C    0.189
   146   6 C    3.919 --   145 C    2.371   147 C    1.330   150 C    0.189
   147   6 C    3.935 --   148 C    2.454   146 C    1.330
   148   6 C    3.884 --   147 C    2.454    14 C    1.182   145 C    0.189
   149   6 C    3.928 --   150 C    2.450   145 C    1.332
   150   6 C    3.886 --   149 C    2.450   158 C    1.188   146 C    0.189
   151   6 C    3.918 --   152 C    2.352   155 C    1.345   154 C    0.188
   152   6 C    3.920 --   151 C    2.352   153 C    1.346   156 C    0.188
   153   6 C    3.926 --   154 C    2.432   152 C    1.346
   154   6 C    3.884 --   153 C    2.432   170 C    1.200   151 C    0.188
   155   6 C    3.930 --   156 C    2.435   151 C    1.345
   156   6 C    3.882 --   155 C    2.435    86 C    1.197   152 C    0.188
   157  27 Co   3.037 --   190 N    0.633   168 N    0.631   191 N    0.629
                           163 N    0.628
   158   6 C    3.923 --   189 C    1.261   159 C    1.258   150 C    1.188
   159   6 C    3.907 --   158 C    1.258   163 N    1.234   160 C    1.190
   160   6 C    3.960 --   161 C    1.636   159 C    1.190   202 H    0.974
   161   6 C    3.960 --   160 C    1.636   162 C    1.184   203 H    0.975
   162   6 C    3.913 --   164 C    1.331   163 N    1.195   161 C    1.184
   163   7 N    3.343 --   159 C    1.234   162 C    1.195   157 Co   0.628
   164   6 C    3.926 --   165 C    1.338   162 C    1.331   192 C    1.003
   165   6 C    3.914 --   164 C    1.338   168 N    1.191   166 C    1.183
   166   6 C    3.960 --   167 C    1.637   165 C    1.183   204 H    0.975
   167   6 C    3.960 --   166 C    1.637   169 C    1.190   205 H    0.974
   168   7 N    3.340 --   169 C    1.238   165 C    1.191   157 Co   0.631
   169   6 C    3.905 --   170 C    1.252   168 N    1.238   167 C    1.190
   170   6 C    3.922 --   171 C    1.253   169 C    1.252   154 C    1.200
   171   6 C    3.905 --   170 C    1.253   191 N    1.236   172 C    1.191
   172   6 C    3.960 --   173 C    1.636   171 C    1.191   206 H    0.974
   173   6 C    3.960 --   172 C    1.636   174 C    1.184   207 H    0.974
   174   6 C    3.913 --   175 C    1.330   191 N    1.193   173 C    1.184
   175   6 C    3.927 --   174 C    1.330   186 C    1.328   176 C    1.018
   176   6 C    3.976 --   177 C    1.340   183 C    1.340   175 C    1.018
   177   6 C    3.903 --   180 C    1.362   176 C    1.340   178 O    1.033
   178   8 O    2.146 --   177 C    1.033   179 C    0.934
   179   6 C    3.907 --   209 H    0.983   208 H    0.980   210 H    0.980
                           178 O    0.934
   180   6 C    3.983 --   181 C    1.442   177 C    1.362   211 H    0.969
   181   6 C    3.992 --   180 C    1.442   182 C    1.442   212 H    0.973
   182   6 C    3.983 --   181 C    1.442   183 C    1.362   213 H    0.969
   183   6 C    3.903 --   182 C    1.362   176 C    1.340   184 O    1.034
   184   8 O    2.146 --   183 C    1.034   185 C    0.934
   185   6 C    3.907 --   214 H    0.983   216 H    0.980   215 H    0.980
                           184 O    0.934
   186   6 C    3.913 --   175 C    1.328   190 N    1.196   187 C    1.183
   187   6 C    3.961 --   188 C    1.637   186 C    1.183   217 H    0.974
   188   6 C    3.960 --   187 C    1.637   189 C    1.189   218 H    0.974
   189   6 C    3.907 --   158 C    1.261   190 N    1.232   188 C    1.189
   190   7 N    3.342 --   189 C    1.232   186 C    1.196   157 Co   0.633
   191   7 N    3.342 --   171 C    1.236   174 C    1.193   157 Co   0.629
   192   6 C    3.977 --   199 C    1.346   193 C    1.346   164 C    1.003
                           197 C    0.102
   193   6 C    3.905 --   196 C    1.360   192 C    1.346   194 O    1.034
   194   8 O    2.145 --   193 C    1.034   195 C    0.935
   195   6 C    3.907 --   220 H    0.983   219 H    0.980   221 H    0.980
                           194 O    0.935
   196   6 C    3.983 --   197 C    1.443   193 C    1.360   222 H    0.969
   197   6 C    3.995 --   196 C    1.443   198 C    1.443   223 H    0.973
                           192 C    0.102
   198   6 C    3.983 --   197 C    1.443   199 C    1.360   224 H    0.969
   199   6 C    3.905 --   198 C    1.360   192 C    1.346   200 O    1.033
   200   8 O    2.145 --   199 C    1.033   201 C    0.935
   201   6 C    3.907 --   227 H    0.983   225 H    0.980   226 H    0.980
                           200 O    0.935
   202   1 H    1.002 --   160 C    0.974
   203   1 H    1.001 --   161 C    0.975
   204   1 H    1.002 --   166 C    0.975
   205   1 H    1.002 --   167 C    0.974
   206   1 H    1.002 --   172 C    0.974
   207   1 H    1.002 --   173 C    0.974
   208   1 H    1.009 --   179 C    0.980
   209   1 H    1.015 --   179 C    0.983
   210   1 H    1.009 --   179 C    0.980
   211   1 H    1.000 --   180 C    0.969
   212   1 H    1.003 --   181 C    0.973
   213   1 H    1.000 --   182 C    0.969
   214   1 H    1.015 --   185 C    0.983
   215   1 H    1.009 --   185 C    0.980
   216   1 H    1.009 --   185 C    0.980
   217   1 H    1.002 --   187 C    0.974
   218   1 H    1.002 --   188 C    0.974
   219   1 H    1.009 --   195 C    0.980
   220   1 H    1.015 --   195 C    0.983
   221   1 H    1.009 --   195 C    0.980
   222   1 H    0.999 --   196 C    0.969
   223   1 H    1.003 --   197 C    0.973
   224   1 H    0.999 --   198 C    0.969
   225   1 H    1.009 --   201 C    0.980
   226   1 H    1.009 --   201 C    0.980
   227   1 H    1.015 --   201 C    0.983
 ---------------------------------------------------------------------------

           -------------------------------------------------
          | TOTAL ENERGY             -401.818692779512 Eh   |
          | GRADIENT NORM               0.000396326648 Eh/α |
          | HOMO-LUMO GAP               0.005529326322 eV   |
           -------------------------------------------------

 * finished run on 2022/07/30 at 04:20:48.635
