   * xtb version 6.5.1 (b24c23e) compiled by 'conda@728c89f4b128' on 2022-07-12
          program call               : xtb C2Py_C4_3.xyz --gfn 1 --opt -T 48

   ID    Z sym.   atoms
    1    6 C      1-5, 7-12, 14-18, 20-25, 27-32, 34-39, 60-64, 66-71, 73-77,
                  79-84, 86-91, 93-98, 119-131, 133-138, 140-144, 146-151,
                  153-158, 160-165
    2    7 N      6, 13, 19, 26, 33, 40, 65, 72, 78, 85, 92, 99, 132, 139,
                  145, 152, 159, 166
    3    1 H      41-59, 100-118, 167-184

          :  Hamiltonian                  GFN1-xTB          :
 * total energy  :  -318.5128630 Eh     change        0.9401276E-08 Eh
 * total energy  :  -318.9349382 Eh     change       -0.4220752E+00 Eh
 * total energy  :  -319.0948255 Eh     change       -0.1598873E+00 Eh
 * total energy  :  -319.1777036 Eh     change       -0.8287814E-01 Eh
 * total energy  :  -319.2375763 Eh     change       -0.5987265E-01 Eh
 * total energy  :  -319.2797151 Eh     change       -0.4213881E-01 Eh
 * total energy  :  -319.3060859 Eh     change       -0.2637083E-01 Eh
 * total energy  :  -319.3272699 Eh     change       -0.2118396E-01 Eh
 * total energy  :  -319.3457961 Eh     change       -0.1852626E-01 Eh
 * total energy  :  -319.3608908 Eh     change       -0.1509464E-01 Eh
 * total energy  :  -319.4456540 Eh     change       -0.1625874E-04 Eh
 * total energy  :  -319.4456711 Eh     change       -0.1709949E-04 Eh
 * total energy  :  -319.4456875 Eh     change       -0.1648376E-04 Eh
 * total energy  :  -319.4456984 Eh     change       -0.1083283E-04 Eh
 * total energy  :  -319.4457057 Eh     change       -0.7337631E-05 Eh
 * total energy  :  -319.4457147 Eh     change       -0.8993147E-05 Eh
 * total energy  :  -319.4457115 Eh     change        0.3218803E-05 Eh
 * total energy  :  -319.4457216 Eh     change       -0.1007443E-04 Eh
 * total energy  :  -319.4457235 Eh     change       -0.1947639E-05 Eh
   *** GEOMETRY OPTIMIZATION CONVERGED AFTER 97 ITERATIONS ***

 final structure:
================
184
 xtb: 6.5.1 (b24c23e)
C           30.55581685128560       -0.01859366336415       -0.17030065214883
C           31.16366905966152        0.98119785101765       -0.92087318593544
C           30.51919354147239        1.97945471515739       -1.70239011945096
C           31.48911337549222        2.75416845873717       -2.27715349899859
C           32.75177973436706        2.25053969190745       -1.86351794564218
N           32.50988421483608        1.18636493722376       -1.04870475554553
C           34.02077993232410        2.73905753906922       -2.22192841150729
C           34.04577469384423        3.85806545892789       -3.08352000100638
C           34.05686708724301        4.82236393324575       -3.82016839465968
C           34.07762547771762        5.94790674776385       -4.67503242109502
C           32.89126439603301        6.54660562989417       -5.11570629171815
C           32.96587397953437        7.64778802955788       -5.94984367752353
N           34.11769708110877        8.17290709431649       -6.36021222401145
C           35.24986197333481        7.60921886371089       -5.94619511402227
C           35.28484099732044        6.50641801947567       -5.11162839465234
C           35.24797287108035        2.20701918067477       -1.79287905796016
C           36.53280358532726        2.74131604464423       -2.20012971118373
C           37.46928085714502        1.98544770714204       -1.58931869039137
N           35.41540609383600        1.15352274134045       -0.95786849261961
C           36.75079449011267        0.99480176013329       -0.81087539457298
C           37.39452872060336        0.03102601970591       -0.01438688929661
C           36.76170726068138       -0.95500100326277        0.76560403534149
C           37.39939841637113       -1.93564385132429        1.56955578163372
C           36.42540747840794       -2.70900873029650        2.14136204084902
C           35.16777847190961       -2.22019963632132        1.70133850838907
N           35.41731305934623       -1.16106181806701        0.87634668656676
C           33.90043528739514       -2.72618856907964        2.03949637010688
C           33.87347744649951       -3.84310281822168        2.90234943893906
C           33.85632181272099       -4.80705945659938        3.63973320407917
C           33.82555103709766       -5.93005241327262        4.49718881957765
C           35.00551994714211       -6.50909410622415        4.97920565341178
C           34.91996742776420       -7.60811823202499        5.81506339744048
N           33.76341451786128       -8.14948331066845        6.18923918380648
C           32.63721317074867       -7.60479250015876        5.73554890236387
C           32.61319326892796       -6.50572656222907        4.89579289941589
C           32.67300087339541       -2.20924719598283        1.58735261571418
C           31.38248578463273       -2.76055831858337        1.96236625508821
C           30.45247780793622       -2.00310067725619        1.34581659839467
C           31.17814486196416       -0.99260247656839        0.59584817731178
N           32.51768131895963       -1.15166400889505        0.76637384022903
H           29.47083330005310       -0.02999483834765       -0.19274425496174
H           29.45057589465595        2.08148181622494       -1.80402035374901
H           31.35285506322283        3.60047129361814       -2.93123608714770
H           33.22765308239350        0.62599044046849       -0.60151535318607
H           31.93131622412521        6.15137571190277       -4.80553988358263
H           32.06124203831657        8.13238962440088       -6.30619458065961
H           36.17130763592795        8.06289847389656       -6.29996545360836
H           36.22981515834837        6.07909843009543       -4.79846289845334
H           36.66984137459279        3.58016442684723       -2.86370777353264
H           38.54302729161267        2.06885394850085       -1.64147357215543
H           38.46668677742005       -2.03050469772959        1.68827382514589
H           36.55818472344973       -3.54539592099530        2.80857020524567
H           34.70278394629437       -0.61142324623119        0.41063311760152
H           35.96903821562918       -6.10029628507542        4.69958747020403
H           35.81940595375003       -8.07735314796128        6.20333970410380
H           31.71162276515539       -8.07133559128969        6.06038578047791
H           31.67283331190771       -6.09401960851564        4.54973848624662
H           31.24075735514318       -3.61081450350116        2.61052874836832
H           29.37796255151794       -2.09319988360794        1.37504025617683
C           64.36060748905611       -0.14771450137484        0.00955832344205
C           63.75907910787680       -0.97282336511650        0.95289574606202
C           64.40989152656397       -1.82255929733582        1.88932022148838
C           63.44482089879379       -2.45270198141271        2.62619218592394
C           62.17905699980585       -2.00495559894873        2.16115208857312
N           62.41413711887297       -1.11745924521010        1.15520034036489
C           60.91333456399565       -2.38991898204692        2.63801843689646
C           60.89501686009415       -3.33062559083788        3.69155027811769
C           60.88537888379933       -4.14311692168959        4.59288326461258
C           60.86575096572191       -5.09128985457096        5.64103572236987
C           62.05211939450972       -5.60198828032276        6.18106734872216
C           61.97768108673341       -6.52958796098425        7.20482156453572
N           60.82605568744305       -6.96656893811815        7.70832220970424
C           59.69384029919487       -6.48592074483327        7.20036711412839
C           59.65870372648302       -5.55614509194489        6.17660389334769
C           59.68284994868152       -1.91869286870743        2.15155074694563
C           58.40230530617733       -2.34119571861977        2.68408532907887
C           57.46045576122021       -1.68850895718504        1.97102943836889
N           59.50753988985273       -1.03145631675776        1.14261087343272
C           58.17142356989012       -0.87231035481877        1.00574200804329
C           57.51938823773156       -0.05585271259180        0.06379501396008
C           58.14512691873551        0.75578802033963       -0.90146859378371
C           57.50026786978049        1.58890340111718       -1.85244816256849
C           58.46963692554880        2.21949777752122       -2.58500897341549
C           59.73138233354416        1.78677333642182       -2.10049822792327
N           59.48874949027678        0.90343077207552       -1.08772547880851
C           60.99632765006792        2.18835117466131       -2.56443932384775
C           61.01684041261679        3.12927176922480       -3.61656512215366
C           61.04080676921259        3.94351773622402       -4.51638478474873
C           61.06757739322301        4.89524459526440       -5.56077763756749
C           59.88467595163611        5.39040190850395       -6.12254006407377
C           59.96553600993690        6.32238902075029       -7.14169576333533
N           61.12019915398484        6.77797197783638       -7.62119910389758
C           62.24913977239523        6.31206271429021       -7.09274708262634
C           62.27790122317701        5.37935173551799       -6.07148403152887
C           62.22809774995329        1.73035520760671       -2.06308618020264
C           63.51562615620138        2.16636466230315       -2.57512827520302
C           64.45105389937953        1.51242745931036       -1.85672555670180
C           63.73173614009464        0.68034913983269       -0.90789068748776
N           62.39051575072184        0.84042790603618       -1.06397642340759
H           65.44574360907491       -0.15992885258094       -0.00263999638770
H           65.47916682268635       -1.92957154062247        1.97808250484548
H           63.58642828768204       -3.16502354204991        3.42316741077727
H           61.69283089831751       -0.63325093548027        0.63131675761923
H           63.01196149728902       -5.27357664053831        5.80066026949784
H           62.88238105112965       -6.94228083261542        7.64239565632468
H           58.77251932327798       -6.86411530649961        7.63413852467991
H           58.71369234720424       -5.19149930053499        5.79222502708800
H           58.27140238458144       -3.04205356361054        3.49305973978618
H           56.38755802359076       -1.73731740067775        2.06652373116299
H           56.43167084674217        1.68822898228366       -1.95462916204349
H           58.33109762344365        2.92306320187597       -3.39008316002358
H           60.20744158241448        0.42987096609561       -0.55035423449630
H           58.92261860403787        5.04676465425726       -5.76194565621874
H           59.06375402095720        6.72348335666872       -7.59536948729703
H           63.17304421043039        6.70520726087720       -7.50719907473308
H           63.22043504268089        5.02711809372462       -5.67009313481067
H           63.65197428257785        2.87587826077772       -3.37582547386832
H           65.52547304550984        1.56601555617754       -1.93608277622973
C           40.02417152442461        0.03749556821841        0.03468429299740
C           38.80325036013463        0.03837141065402        0.01255395246114
C           41.37579343395102        0.03909070463212        0.05171329714546
C           42.59689046449552        0.03702936005831        0.06554654057444
C           53.53897863972322       -0.02001054761764        0.08508294680987
C           52.31753567198079       -0.01251286225911        0.08557787915957
C           54.89001155593026       -0.02809629489329        0.07766182272625
C           56.11137225070859       -0.04104610565685        0.07354798784068
C           44.00516287324094        0.02478919632555        0.07123871807770
C           44.63368602358359       -0.16135090289241       -1.17477066845160
C           43.99493805434435       -0.35394412137758       -2.42646463732947
C           44.96984584837303       -0.51657028520360       -3.37425710982606
C           46.22752585742325       -0.42379282507301       -2.72468355061357
N           45.97875339831190       -0.20790636222708       -1.40007975794244
C           47.49495557049207       -0.52871586472982       -3.32630150794706
C           47.50892496439896       -0.77925053197877       -4.71657232170204
C           47.51533021622870       -1.01116342905380       -5.90781200712375
C           47.52752224533260       -1.29094568535890       -7.29331770335249
C           48.73021119387117       -1.40574153422945       -8.00073464350150
C           48.68682512761630       -1.68782801572172       -9.35446406671074
N           47.55067358757661       -1.85788884389143      -10.02626060579266
C           46.40313037217607       -1.75008600374090       -9.36104878840741
C           46.33688725143237       -1.47047492033487       -8.00775323622744
C           48.72946217274866       -0.41370136971610       -2.66778173484861
C           50.00544708445682       -0.50628773903286       -3.35016526938604
C           50.95465604020645       -0.35225640350395       -2.40321370577400
N           48.91421266163842       -0.20948512116247       -1.34146787780175
C           50.25252669489004       -0.17228033934282       -1.14751945976782
C           50.91005447003885       -0.01011734702392        0.08495082657937
C           50.28134838655608        0.14800566498606        1.33493402667242
C           50.91984963648201        0.30738513360642        2.59128087077887
C           49.94469296023684        0.44163751455060        3.54335413665807
C           48.68708590713138        0.36794901384013        2.89115969134330
N           48.93629003637917        0.18834657685412        1.56113047602842
C           47.41959252676332        0.46627677729439        3.49379298120227
C           47.40491245032202        0.66358088641549        4.89257603605681
C           47.39875384236039        0.83798510156240        6.09357431136007
C           47.38388143196297        1.04618647049196        7.49155647586284
C           46.17951709123979        1.14302000962197        8.19853908728841
C           46.21998365070517        1.34909803155457        9.56594757307075
N           47.35487355261520        1.46128397607909       10.25161473812921
C           48.50398128730208        1.36978430213951        9.58695500830889
C           48.57312513985612        1.16433069892415        8.22059908806177
C           46.18500109680184        0.38853717656116        2.82953663303746
C           44.90886711045447        0.50021001582540        3.50911218275259
C           43.95970063938667        0.37668462707842        2.55769776026312
C           44.66185497191204        0.19018349598542        1.30302609714302
N           46.00043000331895        0.20275980650793        1.50078049886740
H           42.92714791515690       -0.36783476340283       -2.57387520368524
H           44.83658895922977       -0.68502114471024       -4.43072599061767
H           46.69083385458286       -0.10380866654332       -0.68493137470394
H           49.67813705049049       -1.27581570636152       -7.49253415108912
H           49.60451546811871       -1.78293350483753       -9.92793123144655
H           45.49520305463212       -1.89503417910249       -9.93959825408310
H           45.38034426440328       -1.39218696936156       -7.50499160651968
H           50.12849426308920       -0.66527311504652       -4.40955132763296
H           52.02707177036904       -0.35916459120976       -2.51489427346097
H           51.98766089921178        0.31742981453862        2.73895214790175
H           50.07779642905547        0.58024203816516        4.60417133984378
H           48.22438441378375        0.10039711997813        0.84366382796662
H           45.23252208896855        1.05756439783220        7.67948605170957
H           45.30092269252987        1.42842523819669       10.13944706714122
H           49.41083909746379        1.46591287937044       10.17708551478255
H           49.53096687699973        1.09609464536447        7.71906037433208
H           44.78570845241222        0.65247306657381        4.56947854765755
H           42.88727279782045        0.40557240328371        2.66573665169787

          :  Hamiltonian                  GFN1-xTB          :
         :: total energy            -319.445723519454 Eh    ::
         :: gradient norm              0.000713913769 Eh/a0 ::
         :: HOMO-LUMO gap              0.938290429023 eV    ::
         :: SCC energy              -325.095683616932 Eh    ::
         :: repulsion energy           5.796507041239 Eh    ::

    * Orbital Energies and Occupations

         #    Occupation            Energy/Eh            Energy/eV
      -------------------------------------------------------------
         1        2.0000           -0.8140724             -22.1520
       ...           ...                  ...                  ...
       281        2.0000           -0.4233362             -11.5196
       282        2.0000           -0.4212776             -11.4635
       283        2.0000           -0.4212336             -11.4624
       284        2.0000           -0.4209061             -11.4534
       285        2.0000           -0.4208489             -11.4519
       286        2.0000           -0.4206881             -11.4475
       287        2.0000           -0.4206555             -11.4466
       288        2.0000           -0.4079340             -11.1005
       289        2.0000           -0.4069684             -11.0742
       290        2.0000           -0.4069424             -11.0735
       291        2.0000           -0.3935849             -10.7100
       292        2.0000           -0.3902845             -10.6202
       293        2.0000           -0.3861782             -10.5084 (HOMO)
       294                         -0.3516967              -9.5702 (LUMO)
       295                         -0.3480481              -9.4709
       296                         -0.3478012              -9.4642
       297                         -0.3461686              -9.4197
       298                         -0.3423685              -9.3163
       299                         -0.3385604              -9.2127
       300                         -0.3211753              -8.7396
       301                         -0.3163382              -8.6080
       302                         -0.3154085              -8.5827
       303                         -0.2912102              -7.9242
       304                         -0.2905184              -7.9054
       ...                                ...                  ...
       624                          1.5076426              41.0250
      -------------------------------------------------------------
                  HL-Gap            0.0344815 Eh            0.9383 eV

Wiberg/Mayer (AO) data.
largest (>0.10) Wiberg bond orders for each atom

     #   Z sym  total        # sym  WBO       # sym  WBO       # sym  WBO
 ---------------------------------------------------------------------------
     1   6 C    3.927 --    39 C    1.378     2 C    1.341    41 H    0.971
     2   6 C    3.895 --     1 C    1.341     3 C    1.236     6 N    1.165
     3   6 C    3.954 --     4 C    1.587     2 C    1.236    42 H    0.976
     4   6 C    3.958 --     3 C    1.587     5 C    1.245    43 H    0.975
     5   6 C    3.890 --     7 C    1.257     4 C    1.245     6 N    1.191
     6   7 N    3.473 --     5 C    1.191     2 C    1.165    44 H    0.874
     7   6 C    3.935 --    16 C    1.280     5 C    1.257     8 C    1.161
     8   6 C    3.958 --     9 C    2.624     7 C    1.161
     9   6 C    3.931 --     8 C    2.624    10 C    1.142
    10   6 C    3.987 --    15 C    1.350    11 C    1.350     9 C    1.142
    11   6 C    3.973 --    12 C    1.457    10 C    1.350    45 H    0.974
                            14 C    0.104
    12   6 C    3.973 --    11 C    1.457    13 N    1.407    46 H    0.972
                            15 C    0.104
    13   7 N    2.993 --    12 C    1.407    14 C    1.407
    14   6 C    3.972 --    15 C    1.457    13 N    1.407    47 H    0.972
                            11 C    0.104
    15   6 C    3.973 --    14 C    1.457    10 C    1.350    48 H    0.974
                            12 C    0.104
    16   6 C    3.904 --    19 N    1.314     7 C    1.280    17 C    1.129
    17   6 C    3.965 --    18 C    1.708    16 C    1.129    49 H    0.975
    18   6 C    3.965 --    17 C    1.708    20 C    1.128    50 H    0.974
    19   7 N    3.017 --    20 C    1.321    16 C    1.314
    20   6 C    3.900 --    19 N    1.321    21 C    1.271    18 C    1.128
    21   6 C    3.935 --    20 C    1.271    22 C    1.253   120 C    1.176
    22   6 C    3.882 --    23 C    1.253    21 C    1.253    26 N    1.182
    23   6 C    3.958 --    24 C    1.576    22 C    1.253    51 H    0.975
    24   6 C    3.956 --    23 C    1.576    25 C    1.252    52 H    0.975
    25   6 C    3.890 --    27 C    1.262    24 C    1.252    26 N    1.179
    26   7 N    3.475 --    22 C    1.182    25 C    1.179    53 H    0.873
    27   6 C    3.925 --    36 C    1.268    25 C    1.262    28 C    1.164
    28   6 C    3.958 --    29 C    2.621    27 C    1.164
    29   6 C    3.928 --    28 C    2.621    30 C    1.143
    30   6 C    3.987 --    31 C    1.349    35 C    1.349    29 C    1.143
    31   6 C    3.972 --    32 C    1.457    30 C    1.349    54 H    0.974
                            34 C    0.103
    32   6 C    3.973 --    31 C    1.457    33 N    1.407    55 H    0.972
                            35 C    0.104
    33   7 N    2.993 --    32 C    1.407    34 C    1.407
    34   6 C    3.972 --    35 C    1.457    33 N    1.407    56 H    0.972
                            31 C    0.103
    35   6 C    3.972 --    34 C    1.457    30 C    1.349    57 H    0.974
                            32 C    0.104
    36   6 C    3.919 --    40 N    1.344    27 C    1.268    37 C    1.121
    37   6 C    3.966 --    38 C    1.721    36 C    1.121    58 H    0.975
    38   6 C    3.967 --    37 C    1.721    39 C    1.117    59 H    0.976
    39   6 C    3.919 --     1 C    1.378    40 N    1.282    38 C    1.117
    40   7 N    3.010 --    36 C    1.344    39 C    1.282
    41   1 H    1.002 --     1 C    0.971
    42   1 H    0.997 --     3 C    0.976
    43   1 H    1.002 --     4 C    0.975
    44   1 H    0.986 --     6 N    0.874
    45   1 H    1.002 --    11 C    0.974
    46   1 H    1.013 --    12 C    0.972
    47   1 H    1.013 --    14 C    0.972
    48   1 H    1.002 --    15 C    0.974
    49   1 H    1.003 --    17 C    0.975
    50   1 H    1.002 --    18 C    0.974
    51   1 H    1.002 --    23 C    0.975
    52   1 H    1.002 --    24 C    0.975
    53   1 H    0.987 --    26 N    0.873
    54   1 H    1.002 --    31 C    0.974
    55   1 H    1.013 --    32 C    0.972
    56   1 H    1.013 --    34 C    0.972
    57   1 H    1.002 --    35 C    0.974
    58   1 H    1.003 --    37 C    0.975
    59   1 H    0.998 --    38 C    0.976
    60   6 C    3.927 --    98 C    1.379    61 C    1.340   100 H    0.971
    61   6 C    3.895 --    60 C    1.340    62 C    1.236    65 N    1.165
    62   6 C    3.954 --    63 C    1.586    61 C    1.236   101 H    0.977
    63   6 C    3.958 --    62 C    1.586    64 C    1.246   102 H    0.975
    64   6 C    3.890 --    66 C    1.257    63 C    1.246    65 N    1.191
    65   7 N    3.472 --    64 C    1.191    61 C    1.165   103 H    0.874
    66   6 C    3.935 --    75 C    1.281    64 C    1.257    67 C    1.161
    67   6 C    3.958 --    68 C    2.624    66 C    1.161
    68   6 C    3.931 --    67 C    2.624    69 C    1.142
    69   6 C    3.987 --    70 C    1.350    74 C    1.350    68 C    1.142
    70   6 C    3.973 --    71 C    1.457    69 C    1.350   104 H    0.974
                            73 C    0.104
    71   6 C    3.973 --    70 C    1.457    72 N    1.407   105 H    0.972
                            74 C    0.104
    72   7 N    2.993 --    71 C    1.407    73 C    1.407
    73   6 C    3.972 --    74 C    1.457    72 N    1.407   106 H    0.972
                            70 C    0.104
    74   6 C    3.973 --    73 C    1.457    69 C    1.350   107 H    0.974
                            71 C    0.104
    75   6 C    3.904 --    78 N    1.313    66 C    1.281    76 C    1.129
    76   6 C    3.965 --    77 C    1.708    75 C    1.129   108 H    0.975
    77   6 C    3.964 --    76 C    1.708    79 C    1.128   109 H    0.974
    78   7 N    3.016 --    79 C    1.323    75 C    1.313
    79   6 C    3.899 --    78 N    1.323    80 C    1.269    77 C    1.128
    80   6 C    3.934 --    79 C    1.269    81 C    1.251   126 C    1.179
    81   6 C    3.881 --    82 C    1.254    80 C    1.251    85 N    1.183
    82   6 C    3.958 --    83 C    1.575    81 C    1.254   110 H    0.975
    83   6 C    3.955 --    82 C    1.575    84 C    1.252   111 H    0.975
    84   6 C    3.890 --    86 C    1.262    83 C    1.252    85 N    1.179
    85   7 N    3.475 --    81 C    1.183    84 C    1.179   112 H    0.873
    86   6 C    3.924 --    95 C    1.268    84 C    1.262    87 C    1.164
    87   6 C    3.958 --    88 C    2.620    86 C    1.164
    88   6 C    3.928 --    87 C    2.620    89 C    1.143
    89   6 C    3.987 --    90 C    1.349    94 C    1.349    88 C    1.143
    90   6 C    3.972 --    91 C    1.457    89 C    1.349   113 H    0.974
                            93 C    0.103
    91   6 C    3.973 --    90 C    1.457    92 N    1.407   114 H    0.972
                            94 C    0.104
    92   7 N    2.993 --    91 C    1.407    93 C    1.407
    93   6 C    3.972 --    94 C    1.457    92 N    1.407   115 H    0.972
                            90 C    0.103
    94   6 C    3.972 --    93 C    1.457    89 C    1.349   116 H    0.974
                            91 C    0.104
    95   6 C    3.919 --    99 N    1.344    86 C    1.268    96 C    1.121
    96   6 C    3.966 --    97 C    1.721    95 C    1.121   117 H    0.975
    97   6 C    3.967 --    96 C    1.721    98 C    1.117   118 H    0.976
    98   6 C    3.919 --    60 C    1.379    99 N    1.282    97 C    1.117
    99   7 N    3.010 --    95 C    1.344    98 C    1.282
   100   1 H    1.002 --    60 C    0.971
   101   1 H    0.997 --    62 C    0.977
   102   1 H    1.002 --    63 C    0.975
   103   1 H    0.986 --    65 N    0.874
   104   1 H    1.002 --    70 C    0.974
   105   1 H    1.013 --    71 C    0.972
   106   1 H    1.013 --    73 C    0.972
   107   1 H    1.002 --    74 C    0.974
   108   1 H    1.003 --    76 C    0.975
   109   1 H    1.003 --    77 C    0.974
   110   1 H    1.002 --    82 C    0.975
   111   1 H    1.002 --    83 C    0.975
   112   1 H    0.987 --    85 N    0.873
   113   1 H    1.002 --    90 C    0.974
   114   1 H    1.013 --    91 C    0.972
   115   1 H    1.013 --    93 C    0.972
   116   1 H    1.002 --    94 C    0.974
   117   1 H    1.003 --    96 C    0.975
   118   1 H    0.998 --    97 C    0.976
   119   6 C    3.932 --   120 C    2.487   121 C    1.296
   120   6 C    3.919 --   119 C    2.487    21 C    1.176   122 C    0.197
   121   6 C    3.930 --   122 C    2.487   119 C    1.296
   122   6 C    3.920 --   121 C    2.487   127 C    1.177   120 C    0.197
   123   6 C    3.930 --   124 C    2.483   125 C    1.300
   124   6 C    3.922 --   123 C    2.483   147 C    1.181   126 C    0.197
   125   6 C    3.932 --   126 C    2.484   123 C    1.300
   126   6 C    3.921 --   125 C    2.484    80 C    1.179   124 C    0.197
   127   6 C    3.926 --   165 C    1.272   128 C    1.249   122 C    1.177
   128   6 C    3.882 --   129 C    1.257   127 C    1.249   132 N    1.182
   129   6 C    3.956 --   130 C    1.571   128 C    1.257   167 H    0.975
   130   6 C    3.956 --   129 C    1.571   131 C    1.256   168 H    0.975
   131   6 C    3.887 --   130 C    1.256   133 C    1.255   132 N    1.181
   132   7 N    3.474 --   128 C    1.182   131 C    1.181   169 H    0.874
   133   6 C    3.927 --   142 C    1.282   131 C    1.255   134 C    1.161
   134   6 C    3.958 --   135 C    2.623   133 C    1.161
   135   6 C    3.930 --   134 C    2.623   136 C    1.142
   136   6 C    3.987 --   137 C    1.350   141 C    1.350   135 C    1.142
   137   6 C    3.973 --   138 C    1.457   136 C    1.350   170 H    0.974
                           140 C    0.104
   138   6 C    3.972 --   137 C    1.457   139 N    1.407   171 H    0.972
                           141 C    0.104
   139   7 N    2.993 --   140 C    1.407   138 C    1.407
   140   6 C    3.973 --   141 C    1.457   139 N    1.407   172 H    0.972
                           137 C    0.104
   141   6 C    3.973 --   140 C    1.457   136 C    1.350   173 H    0.974
                           138 C    0.104
   142   6 C    3.905 --   145 N    1.312   133 C    1.282   143 C    1.129
   143   6 C    3.966 --   144 C    1.708   142 C    1.129   174 H    0.974
   144   6 C    3.965 --   143 C    1.708   146 C    1.129   175 H    0.974
   145   7 N    3.009 --   146 C    1.322   142 C    1.312
   146   6 C    3.899 --   145 N    1.322   147 C    1.269   144 C    1.129
   147   6 C    3.926 --   146 C    1.269   148 C    1.248   124 C    1.181
   148   6 C    3.882 --   149 C    1.257   147 C    1.248   152 N    1.182
   149   6 C    3.956 --   150 C    1.571   148 C    1.257   176 H    0.975
   150   6 C    3.956 --   149 C    1.571   151 C    1.256   177 H    0.975
   151   6 C    3.887 --   150 C    1.256   153 C    1.255   152 N    1.180
   152   7 N    3.474 --   148 C    1.182   151 C    1.180   178 H    0.874
   153   6 C    3.926 --   162 C    1.281   151 C    1.255   154 C    1.161
   154   6 C    3.958 --   155 C    2.623   153 C    1.161
   155   6 C    3.930 --   154 C    2.623   156 C    1.142
   156   6 C    3.987 --   161 C    1.350   157 C    1.350   155 C    1.142
   157   6 C    3.973 --   158 C    1.457   156 C    1.350   179 H    0.974
                           160 C    0.104
   158   6 C    3.972 --   157 C    1.457   159 N    1.407   180 H    0.972
                           161 C    0.104
   159   7 N    2.993 --   160 C    1.407   158 C    1.407
   160   6 C    3.973 --   161 C    1.457   159 N    1.407   181 H    0.972
                           157 C    0.104
   161   6 C    3.973 --   160 C    1.457   156 C    1.350   182 H    0.974
                           158 C    0.104
   162   6 C    3.906 --   166 N    1.314   153 C    1.281   163 C    1.128
   163   6 C    3.966 --   164 C    1.708   162 C    1.128   183 H    0.974
   164   6 C    3.965 --   163 C    1.708   165 C    1.129   184 H    0.974
   165   6 C    3.900 --   166 N    1.320   127 C    1.272   164 C    1.129
   166   7 N    3.008 --   165 C    1.320   162 C    1.314
   167   1 H    1.001 --   129 C    0.975
   168   1 H    1.002 --   130 C    0.975
   169   1 H    0.987 --   132 N    0.874
   170   1 H    1.002 --   137 C    0.974
   171   1 H    1.013 --   138 C    0.972
   172   1 H    1.013 --   140 C    0.972
   173   1 H    1.002 --   141 C    0.974
   174   1 H    1.003 --   143 C    0.974
   175   1 H    1.002 --   144 C    0.974
   176   1 H    1.001 --   149 C    0.975
   177   1 H    1.002 --   150 C    0.975
   178   1 H    0.987 --   152 N    0.874
   179   1 H    1.002 --   157 C    0.974
   180   1 H    1.013 --   158 C    0.972
   181   1 H    1.013 --   160 C    0.972
   182   1 H    1.002 --   161 C    0.974
   183   1 H    1.003 --   163 C    0.974
   184   1 H    1.002 --   164 C    0.974
 ---------------------------------------------------------------------------

           -------------------------------------------------
          | TOTAL ENERGY             -319.445723519454 Eh   |
          | GRADIENT NORM               0.000713913769 Eh/α |
          | HOMO-LUMO GAP               0.938290429023 eV   |
           -------------------------------------------------

 * finished run on 2022/07/28 at 20:43:45.450
