   * xtb version 6.5.1 (b24c23e) compiled by 'conda@728c89f4b128' on 2022-07-12
          program call               : xtb Ph3OH_C6_3.xyz --gfn 1 --opt -T 48

   ID    Z sym.   atoms
    1    6 C      1-5, 7-10, 12, 14, 16-19, 21-26, 28-31, 33, 35, 37-41,
                  64-68, 70-73, 75, 77, 79-82, 84-89, 91-94, 96, 98, 100-104,
                  127-143, 145-148, 150, 152, 154-157, 159-164, 166-169, 171,
                  173, 175-179
    2    7 N      6, 20, 27, 42, 69, 83, 90, 105, 144, 158, 165, 180
    3    8 O      11, 13, 15, 32, 34, 36, 74, 76, 78, 95, 97, 99, 149, 151,
                  153, 170, 172, 174
    4    1 H      43-63, 106-126, 181-200

          :  Hamiltonian                  GFN1-xTB          :
 * total energy  :  -383.1722847 Eh     change        0.3468017E-09 Eh
 * total energy  :  -383.7376168 Eh     change       -0.5653321E+00 Eh
 * total energy  :  -383.8953971 Eh     change       -0.1577803E+00 Eh
 * total energy  :  -383.9969250 Eh     change       -0.1015279E+00 Eh
 * total energy  :  -384.0693676 Eh     change       -0.7244264E-01 Eh
 * total energy  :  -384.1335650 Eh     change       -0.6419731E-01 Eh
 * total energy  :  -384.1688357 Eh     change       -0.3527072E-01 Eh
 * total energy  :  -384.1954316 Eh     change       -0.2659589E-01 Eh
 * total energy  :  -384.2152440 Eh     change       -0.1981244E-01 Eh
 * total energy  :  -384.2310665 Eh     change       -0.1582252E-01 Eh
 * total energy  :  -384.3126078 Eh     change       -0.2494656E-04 Eh
 * total energy  :  -384.3126236 Eh     change       -0.1578569E-04 Eh
 * total energy  :  -384.3126392 Eh     change       -0.1553857E-04 Eh
 * total energy  :  -384.3126525 Eh     change       -0.1331767E-04 Eh
 * total energy  :  -384.3126637 Eh     change       -0.1120916E-04 Eh
 * total energy  :  -384.3126716 Eh     change       -0.7886202E-05 Eh
 * total energy  :  -384.3126768 Eh     change       -0.5228116E-05 Eh
 * total energy  :  -384.3126819 Eh     change       -0.5139549E-05 Eh
 * total energy  :  -384.3126851 Eh     change       -0.3183371E-05 Eh
   *** GEOMETRY OPTIMIZATION CONVERGED AFTER 68 ITERATIONS ***

 final structure:
================
200
 xtb: 6.5.1 (b24c23e)
C           25.56251144856110       -0.37265915485880        0.16880540245229
C           26.17749955637601       -1.11807878119116       -0.82882130934012
C           25.53144632058151       -1.89943391726037       -1.82766063894407
C           26.49762331181126       -2.46059318501520       -2.61417998949564
C           27.76636481312211       -2.05470068250985       -2.11024233438268
N           27.52159972200680       -1.23770346440759       -1.04285862692967
C           29.03413532683203       -2.40103419838119       -2.59116930657772
C           29.08438701119274       -3.30988358505169       -3.76304415778169
C           29.69818904367981       -2.87857946378566       -4.94260456625346
C           29.74184965299944       -3.72046598584975       -6.04651694858346
O           30.31850246915104       -3.36366201738586       -7.23713425931915
C           29.18229263809457       -4.99396117198439       -5.97992867244346
O           29.21401019456102       -5.84492677578855       -7.05328848023674
C           28.57340110380600       -5.42761915756861       -4.80117194282232
O           28.03621184522612       -6.67072425835472       -4.74503688955241
C           28.52179692354627       -4.58471654768471       -3.69691807565796
C           30.24240695796318       -1.95449354579852       -2.04952349733763
C           31.54683543771131       -2.41229750994157       -2.49320505499291
C           32.45713662815747       -1.76789007229050       -1.73393214206462
N           30.38268506654458       -1.06181522627741       -1.03137126183739
C           31.70792914683142       -0.91855702194367       -0.82852995938782
C           32.33207805179634       -0.05317665990253        0.09267947207950
C           31.68547614019897        0.79832789849896        1.00794156979199
C           32.31638355272956        1.72304251868877        1.88178977529123
C           31.34209750726755        2.34833956530313        2.60923608803638
C           30.08547780464673        1.81229692108549        2.21228565371740
N           30.34465387042673        0.88962179729850        1.23291964811212
C           28.81985621931181        2.14943880750153        2.70354402686396
C           28.76672060786951        3.16161751419513        3.78642986706775
C           29.42785837380312        2.93964885600798        4.99497526775720
C           29.37521367206874        3.89362305564429        6.00457659846995
O           30.00881344525999        3.68440477534943        7.18429248435346
C           28.66541163381551        5.07890990381842        5.80549525497468
O           28.63497875860024        6.00299833040000        6.81659593847873
C           28.00717919985684        5.30142432737735        4.59861328958678
O           27.33506112007678        6.48911357518773        4.47489912809469
C           28.05213467974462        4.34704606392950        3.59036844080466
C           27.61569198903559        1.60120947296677        2.24688677140141
C           26.31325219704069        1.88917004703054        2.82712373588381
C           25.41321937865768        1.17646176484951        2.11979330305730
C           26.16468832558049        0.45000817475786        1.11181612654376
N           27.48837383548745        0.72006797393310        1.22682934758629
H           24.47944877006494       -0.43719661697832        0.20005910655722
H           24.46263372432905       -2.00266941284579       -1.92669712360445
H           26.34979809747297       -3.09650746664208       -3.47179724307437
H           28.24346193586365       -0.78511857985698       -0.49205766199635
H           30.12350292211659       -1.88383141138268       -5.00547397164460
H           30.68616865899006       -2.47154139970708       -7.18710052098472
H           29.67210948822206       -5.39271811839134       -7.77957261179753
H           28.17535746360209       -7.10221981911623       -5.60423286751697
H           28.06361040377800       -4.93964520174959       -2.78282150413033
H           31.72066046948787       -3.14340255666319       -3.26613562987089
H           33.53222124708117       -1.84597590287267       -1.76147685425277
H           33.38054234483445        1.88783945624088        1.93347679915335
H           31.47885959377247        3.11803348435916        3.35103779395945
H           29.62997169672139        0.35614636879845        0.74885496467207
H           29.96615886821357        2.01680985079027        5.16848366404248
H           29.85320311072131        4.45485819465515        7.75518538464358
H           28.10147113356600        6.75624644607035        6.51691244231050
H           26.90590904684470        6.55262044120098        3.61159034298509
H           27.55061373980166        4.53396866802200        2.64808839342941
H           26.13776218837378        2.53603278916418        3.67172852415520
H           24.34338655002294        1.12243644010674        2.24791548888957
C           64.28704825522530       -0.24392838977285        0.35025240760411
C           63.67548344450297        0.55078144611001        1.31120688621492
C           64.32486298095846        1.31145709990792        2.32379043129998
C           63.36274541801944        1.95502427542449        3.04976740394167
C           62.09285097864485        1.59548199115697        2.51441757314910
N           62.33336630856607        0.75738463313386        1.46254422785304
C           60.82860243217581        2.00936061490825        2.94902770580086
C           60.78621981032896        2.91914559607273        4.12077021988507
C           60.21505953529521        4.18814260805808        3.98986369289647
C           60.17983269663727        5.04567540928373        5.08210081700653
O           59.64412647607995        6.30565119146505        5.02698821079706
C           60.70550299839037        4.64326116909206        6.30725705187198
O           60.68108668568622        5.46871516174744        7.40067131901036
C           61.27216505185992        3.37465182685782        6.44035883519602
O           61.77707356433626        2.99077994895742        7.63821765978929
C           61.31520902808170        2.51682872609074        5.34735071094271
C           59.61852929091243        1.62600293229366        2.36491390581883
C           58.31433410359060        1.98634836514962        2.89156025135586
C           57.40198981582771        1.42206735080351        2.07329323921555
N           59.47556583740068        0.84870649433928        1.25648105043779
C           58.14962040875521        0.71697605674104        1.05035101627718
C           57.52401583422874        0.01873195773359       -0.00203140291165
C           58.16772760779748       -0.69642058825916       -1.02918781911797
C           57.53453522985451       -1.32917206981525       -2.13180366676258
C           58.50609031132349       -1.90134008963392       -2.90495052474224
C           59.76313440686623       -1.64948471670522       -2.28812520299631
N           59.50701164050619       -0.90792169553479       -1.16460096650542
C           61.02668375743419       -2.05738729331085       -2.72822810260022
C           61.07695725417599       -2.86804706313664       -3.96937886966889
C           60.40761189927039       -4.09000574583840       -4.04418444300954
C           60.45640257400344       -4.84192337152826       -5.21228240239359
O           59.81452426414732       -6.03280924013959       -5.29253378554649
C           61.17079257146115       -4.36946818925989       -6.31447949004149
O           61.19721262796610       -5.12973310653516       -7.45396669226764
C           61.83756136787044       -3.14911322536574       -6.24041896961858
O           62.51383334016734       -2.74902715423588       -7.36306012037677
C           61.79643477584764       -2.39866630376108       -5.07226098219522
C           62.23130354525033       -1.75522829391760       -2.08282827774371
C           63.53038821901813       -2.26343984975660       -2.49508481063664
C           64.43121335977102       -1.76002241094463       -1.62707111631525
C           63.68354022530423       -0.94864010581897       -0.68309911730469
N           62.36134152734106       -0.97845078006128       -0.98154330254255
H           65.36859033325962       -0.30783796193312        0.41629038850200
H           65.39322582566365        1.35860521554412        2.46238191133469
H           63.51402169491235        2.62489110325229        3.88052264926213
H           61.61007382493809        0.35046257454576        0.87897060637406
H           59.81659847478580        4.51283102842711        3.03584322807334
H           59.29781807423187        6.49339081016441        4.14473932372306
H           60.25322923461614        6.29930557666955        7.13824670749909
H           61.64984387126754        3.71777222072269        8.26990967894820
H           61.74055818092045        1.52888666434878        5.46795876748139
H           58.14127336878008        2.57361789743455        3.77887072472119
H           56.32628047658466        1.45949852887259        2.13775672466846
H           56.47095734532907       -1.33144483573879       -2.30786878761240
H           58.36727768727175       -2.44417926719629       -3.82549373246550
H           60.22296997078438       -0.56602226496649       -0.53200912090859
H           59.86548098635084       -4.47577368262034       -3.19050510379399
H           59.96735168074279       -6.40317800294770       -6.17751338403141
H           61.73363699795716       -4.66135644504696       -8.11327023741417
H           62.94837299407113       -1.89845422288615       -7.21747864102340
H           62.30459876706832       -1.44256964413602       -5.02727283944401
H           63.70291597369154       -2.92877030615727       -3.32585174669440
H           65.49916884122656       -1.91027519185150       -1.59909703825500
C           37.53394351351054        0.01436717103938        0.07692143332966
C           36.30582789223939        0.00969889971598        0.09008877700884
C           34.96144166928283       -0.00231161645062        0.09709322948586
C           33.73778581420389       -0.01911939830354        0.09672735858201
C           38.87813326275840        0.01691231877748        0.05798470354610
C           40.10185949355040        0.01987008023286        0.03738956341539
C           53.55061380762121        0.04457181506216       -0.09600271691040
C           52.32258035635429        0.04360218448864       -0.10854064262781
C           50.97807991577203        0.04176955793367       -0.11360385782740
C           49.75430678056154        0.03383865022449       -0.11382595540917
C           54.89507394527831        0.04164251205930       -0.07425500992430
C           56.11841619690578        0.03732686175286       -0.04601297764351
C           41.50691959446198        0.02101580893763        0.01054598612207
C           42.13140020914076       -1.24042583473228       -0.02664413916868
C           41.47963111028872       -2.50033411404613        0.00152344797988
C           42.44049562447522       -3.47257904967841       -0.05773217594492
C           43.70763165861927       -2.83313816498972       -0.13477686017484
N           43.47006726337753       -1.48471035797705       -0.10294950505813
C           44.96477604217710       -3.44545866498517       -0.21184101831786
C           44.97756193633825       -4.92803694853076       -0.26985637766518
C           45.62108901141291       -5.66452000199048        0.72543674692663
C           45.63788922054126       -7.05612906793943        0.68994871962164
O           46.25236194517404       -7.78351929103905        1.65854799116416
C           45.00953972008196       -7.73075242702061       -0.36202247889973
O           45.01254067571278       -9.08720083178948       -0.42786172242828
C           44.37108187498089       -6.98613592699401       -1.35735316980476
O           43.77974174492751       -7.70782701465611       -2.36215041355808
C           44.34430698120774       -5.59905437777134       -1.31790876050745
C           46.18862581990010       -2.77368594119001       -0.23640730109135
C           47.47311741583708       -3.43395499105117       -0.38562263106184
C           48.40871534012534       -2.46239837828275       -0.35436143115527
N           46.36402912188241       -1.42690402908606       -0.14069323824127
C           47.69405759956932       -1.21132258891141       -0.19675949279601
C           48.34876305445123        0.03283418775131       -0.10280922780567
C           47.72541797665842        1.29046902827786        0.00453573072783
C           48.37977405891502        2.54416605585183        0.12276713361933
C           47.41937375685854        3.51655285286791        0.17812167143681
C           46.14928982771242        2.88439110884672        0.08631737112618
N           46.38534691123439        1.53863977098610       -0.00605436223535
C           44.89166581299587        3.49945150276183        0.10460864076952
C           44.88037139153095        4.98252104292134        0.16909932688060
C           45.47556589221676        5.73250815032509       -0.84577021140072
C           45.46003507713252        7.12116074230813       -0.78762956347901
O           46.02853913291289        7.85875344804376       -1.77238045855967
C           44.85471122695077        7.76509224235626        0.29273339946200
O           44.85739478466800        9.13478839226966        0.32491454667410
C           44.26478940953357        7.01626324485047        1.30795809493774
O           43.69497290002028        7.71815461110633        2.33735551170881
C           44.27259072105430        5.62828610760175        1.24924730720143
C           43.66622922891860        2.83121972083690        0.06660294210403
C           42.37828398687632        3.50027615194830        0.02647968397337
C           41.44259816674967        2.52841893675187        0.00610367692821
C           42.16033871019719        1.26935021798245        0.02122890673484
N           43.49177507675055        1.48110467994129        0.04811700230859
H           40.41222215774687       -2.63657083453376        0.06651918769201
H           42.28668977761929       -4.53912808045610       -0.03879789169851
H           44.19364212536259       -0.77383502695816       -0.12235741075256
H           46.09966337278131       -5.15202191631726        1.55231229435199
H           46.65562933935438       -7.20961423079406        2.32308200562521
H           44.53102258425648       -9.35334970300472       -1.22771240124933
H           43.37090387985253       -7.12211881647503       -3.01241589419451
H           43.85562132074389       -5.04482349863681       -2.11065593256159
H           47.61761836681379       -4.49465301197634       -0.51190651842661
H           49.47972150371833       -2.55602383582667       -0.43673078699282
H           49.44896088943830        2.67551453336175        0.16364272696350
H           47.57491282076088        4.57790335016856        0.28147534220069
H           45.66072455663394        0.83132177044799       -0.06787203975958
H           45.93290204608377        5.24439078528022       -1.69672567626571
H           45.91238527320972        8.79853957475906       -1.55550104194184
H           44.39738008277411        9.41554534941720        1.13201700784362
H           43.30491608381069        7.11909140149920        2.98740949949111
H           43.82431715242801        5.05182901653398        2.04986653682267
H           42.23054026686743        4.56777996346745        0.00149013251811
H           40.36940623562832        2.62767958990283       -0.02665596754240

          :  Hamiltonian                  GFN1-xTB          :
         :: total energy            -384.312685133785 Eh    ::
         :: gradient norm              0.000390268323 Eh/a0 ::
         :: HOMO-LUMO gap              0.927587798094 eV    ::
         :: SCC energy              -389.760951204358 Eh    ::
         :: repulsion energy           5.615372069841 Eh    ::

    * Orbital Energies and Occupations

         #    Occupation            Energy/Eh            Energy/eV
      -------------------------------------------------------------
         1        2.0000           -0.8137727             -22.1439
       ...           ...                  ...                  ...
       319        2.0000           -0.4139338             -11.2637
       320        2.0000           -0.4130990             -11.2410
       321        2.0000           -0.4128573             -11.2344
       322        2.0000           -0.4121155             -11.2142
       323        2.0000           -0.4119058             -11.2085
       324        2.0000           -0.4112179             -11.1898
       325        2.0000           -0.4076035             -11.0915
       326        2.0000           -0.4007060             -10.9038
       327        2.0000           -0.3997755             -10.8784
       328        2.0000           -0.3989067             -10.8548
       329        2.0000           -0.3861526             -10.5077
       330        2.0000           -0.3826487             -10.4124
       331        2.0000           -0.3782379             -10.2924 (HOMO)
       332                         -0.3441497              -9.3648 (LUMO)
       333                         -0.3368220              -9.1654
       334                         -0.3337018              -9.0805
       335                         -0.3325098              -9.0481
       336                         -0.3320270              -9.0349
       337                         -0.3311468              -9.0110
       338                         -0.3076186              -8.3707
       339                         -0.2996569              -8.1541
       340                         -0.2985869              -8.1250
       341                         -0.2816289              -7.6635
       342                         -0.2789887              -7.5917
       ...                                ...                  ...
       676                          1.5791995              42.9722
      -------------------------------------------------------------
                  HL-Gap            0.0340882 Eh            0.9276 eV

Wiberg/Mayer (AO) data.
largest (>0.10) Wiberg bond orders for each atom

     #   Z sym  total        # sym  WBO       # sym  WBO       # sym  WBO
 ---------------------------------------------------------------------------
     1   6 C    3.926 --    41 C    1.366     2 C    1.346    43 H    0.971
     2   6 C    3.902 --     1 C    1.346     3 C    1.229     6 N    1.170
     3   6 C    3.953 --     4 C    1.596     2 C    1.229    44 H    0.976
     4   6 C    3.959 --     3 C    1.596     5 C    1.234    45 H    0.974
     5   6 C    3.896 --     7 C    1.304     4 C    1.234     6 N    1.177
     6   7 N    3.470 --     5 C    1.177     2 C    1.170    46 H    0.873
     7   6 C    3.939 --    17 C    1.334     5 C    1.304     8 C    1.030
     8   6 C    3.989 --    16 C    1.398     9 C    1.385     7 C    1.030
     9   6 C    3.972 --    10 C    1.385     8 C    1.385    47 H    0.969
    10   6 C    3.905 --     9 C    1.385    12 C    1.340    11 O    1.014
    11   8 O    2.025 --    10 C    1.014    48 H    0.861
    12   6 C    3.903 --    10 C    1.340    14 C    1.324    13 O    1.021
    13   8 O    2.021 --    12 C    1.021    49 H    0.846
    14   6 C    3.918 --    16 C    1.380    12 C    1.324    15 O    1.053
    15   8 O    2.048 --    14 C    1.053    50 H    0.847
    16   6 C    3.976 --     8 C    1.398    14 C    1.380    51 H    0.970
    17   6 C    3.915 --     7 C    1.334    20 N    1.287    18 C    1.126
    18   6 C    3.966 --    19 C    1.709    17 C    1.126    52 H    0.974
    19   6 C    3.964 --    18 C    1.709    21 C    1.129    53 H    0.974
    20   7 N    3.022 --    21 C    1.343    17 C    1.287
    21   6 C    3.909 --    20 N    1.343    22 C    1.254    19 C    1.129
    22   6 C    3.937 --    21 C    1.254    23 C    1.253   130 C    1.188
    23   6 C    3.886 --    22 C    1.253    24 C    1.248    27 N    1.189
    24   6 C    3.959 --    25 C    1.584    23 C    1.248    54 H    0.975
    25   6 C    3.955 --    24 C    1.584    26 C    1.240    55 H    0.974
    26   6 C    3.898 --    28 C    1.311    25 C    1.240    27 N    1.164
    27   7 N    3.474 --    23 C    1.189    26 C    1.164    56 H    0.873
    28   6 C    3.926 --    38 C    1.318    26 C    1.311    29 C    1.032
    29   6 C    3.989 --    30 C    1.397    37 C    1.384    28 C    1.032
    30   6 C    3.975 --    29 C    1.397    31 C    1.380    57 H    0.970
    31   6 C    3.918 --    30 C    1.380    33 C    1.324    32 O    1.053
    32   8 O    2.048 --    31 C    1.053    58 H    0.847
    33   6 C    3.903 --    35 C    1.340    31 C    1.324    34 O    1.021
    34   8 O    2.021 --    33 C    1.021    59 H    0.846
    35   6 C    3.905 --    37 C    1.385    33 C    1.340    36 O    1.013
    36   8 O    2.025 --    35 C    1.013    60 H    0.861
    37   6 C    3.973 --    35 C    1.385    29 C    1.384    61 H    0.969
    38   6 C    3.928 --    42 N    1.319    28 C    1.318    39 C    1.119
    39   6 C    3.967 --    40 C    1.720    38 C    1.119    62 H    0.974
    40   6 C    3.966 --    39 C    1.720    41 C    1.118    63 H    0.976
    41   6 C    3.929 --     1 C    1.366    42 N    1.299    40 C    1.118
    42   7 N    3.013 --    38 C    1.319    41 C    1.299
    43   1 H    1.002 --     1 C    0.971
    44   1 H    0.998 --     3 C    0.976
    45   1 H    1.005 --     4 C    0.974
    46   1 H    0.986 --     6 N    0.873
    47   1 H    1.001 --     9 C    0.969
    48   1 H    0.881 --    11 O    0.861
    49   1 H    0.876 --    13 O    0.846
    50   1 H    0.877 --    15 O    0.847
    51   1 H    1.000 --    16 C    0.970
    52   1 H    1.006 --    18 C    0.974
    53   1 H    1.003 --    19 C    0.974
    54   1 H    1.002 --    24 C    0.975
    55   1 H    1.005 --    25 C    0.974
    56   1 H    0.987 --    27 N    0.873
    57   1 H    1.000 --    30 C    0.970
    58   1 H    0.878 --    32 O    0.847
    59   1 H    0.876 --    34 O    0.846
    60   1 H    0.881 --    36 O    0.861
    61   1 H    1.001 --    37 C    0.969
    62   1 H    1.006 --    39 C    0.974
    63   1 H    0.998 --    40 C    0.976
    64   6 C    3.926 --   104 C    1.366    65 C    1.347   106 H    0.971
    65   6 C    3.902 --    64 C    1.347    66 C    1.229    69 N    1.170
    66   6 C    3.954 --    67 C    1.596    65 C    1.229   107 H    0.976
    67   6 C    3.959 --    66 C    1.596    68 C    1.234   108 H    0.974
    68   6 C    3.896 --    70 C    1.304    67 C    1.234    69 N    1.177
    69   7 N    3.470 --    68 C    1.177    65 C    1.170   109 H    0.873
    70   6 C    3.939 --    80 C    1.334    68 C    1.304    71 C    1.030
    71   6 C    3.989 --    79 C    1.398    72 C    1.385    70 C    1.030
    72   6 C    3.974 --    71 C    1.385    73 C    1.385   110 H    0.969
    73   6 C    3.905 --    72 C    1.385    75 C    1.340    74 O    1.014
    74   8 O    2.025 --    73 C    1.014   111 H    0.861
    75   6 C    3.904 --    73 C    1.340    77 C    1.324    76 O    1.021
    76   8 O    2.021 --    75 C    1.021   112 H    0.846
    77   6 C    3.918 --    79 C    1.380    75 C    1.324    78 O    1.053
    78   8 O    2.048 --    77 C    1.053   113 H    0.847
    79   6 C    3.976 --    71 C    1.398    77 C    1.380   114 H    0.970
    80   6 C    3.915 --    70 C    1.334    83 N    1.287    81 C    1.126
    81   6 C    3.966 --    82 C    1.709    80 C    1.126   115 H    0.974
    82   6 C    3.964 --    81 C    1.709    84 C    1.129   116 H    0.974
    83   7 N    3.022 --    84 C    1.343    80 C    1.287
    84   6 C    3.909 --    83 N    1.343    85 C    1.255    82 C    1.129
    85   6 C    3.938 --    84 C    1.255    86 C    1.253   138 C    1.187
    86   6 C    3.886 --    85 C    1.253    87 C    1.247    90 N    1.189
    87   6 C    3.959 --    88 C    1.585    86 C    1.247   117 H    0.975
    88   6 C    3.955 --    87 C    1.585    89 C    1.240   118 H    0.974
    89   6 C    3.898 --    91 C    1.311    88 C    1.240    90 N    1.164
    90   7 N    3.474 --    86 C    1.189    89 C    1.164   119 H    0.873
    91   6 C    3.926 --   101 C    1.318    89 C    1.311    92 C    1.032
    92   6 C    3.989 --    93 C    1.397   100 C    1.384    91 C    1.032
    93   6 C    3.975 --    92 C    1.397    94 C    1.380   120 H    0.970
    94   6 C    3.918 --    93 C    1.380    96 C    1.324    95 O    1.053
    95   8 O    2.049 --    94 C    1.053   121 H    0.847
    96   6 C    3.903 --    98 C    1.340    94 C    1.324    97 O    1.021
    97   8 O    2.021 --    96 C    1.021   122 H    0.846
    98   6 C    3.905 --   100 C    1.385    96 C    1.340    99 O    1.013
    99   8 O    2.025 --    98 C    1.013   123 H    0.861
   100   6 C    3.973 --    98 C    1.385    92 C    1.384   124 H    0.969
   101   6 C    3.928 --   105 N    1.319    91 C    1.318   102 C    1.119
   102   6 C    3.967 --   103 C    1.720   101 C    1.119   125 H    0.974
   103   6 C    3.966 --   102 C    1.720   104 C    1.118   126 H    0.976
   104   6 C    3.929 --    64 C    1.366   105 N    1.299   103 C    1.118
   105   7 N    3.013 --   101 C    1.319   104 C    1.299
   106   1 H    1.002 --    64 C    0.971
   107   1 H    0.998 --    66 C    0.976
   108   1 H    1.005 --    67 C    0.974
   109   1 H    0.986 --    69 N    0.873
   110   1 H    1.001 --    72 C    0.969
   111   1 H    0.881 --    74 O    0.861
   112   1 H    0.876 --    76 O    0.846
   113   1 H    0.878 --    78 O    0.847
   114   1 H    1.000 --    79 C    0.970
   115   1 H    1.006 --    81 C    0.974
   116   1 H    1.003 --    82 C    0.974
   117   1 H    1.002 --    87 C    0.975
   118   1 H    1.005 --    88 C    0.974
   119   1 H    0.987 --    90 N    0.873
   120   1 H    1.000 --    93 C    0.970
   121   1 H    0.877 --    95 O    0.847
   122   1 H    0.876 --    97 O    0.846
   123   1 H    0.881 --    99 O    0.861
   124   1 H    1.001 --   100 C    0.969
   125   1 H    1.006 --   102 C    0.974
   126   1 H    0.998 --   103 C    0.976
   127   6 C    3.923 --   128 C    2.369   131 C    1.334   130 C    0.189
   128   6 C    3.922 --   127 C    2.369   129 C    1.333   132 C    0.189
   129   6 C    3.932 --   130 C    2.450   128 C    1.333
   130   6 C    3.888 --   129 C    2.450    22 C    1.188   127 C    0.189
   131   6 C    3.929 --   132 C    2.448   127 C    1.334
   132   6 C    3.889 --   131 C    2.448   139 C    1.191   128 C    0.189
   133   6 C    3.922 --   134 C    2.370   137 C    1.332   136 C    0.189
   134   6 C    3.923 --   133 C    2.370   135 C    1.333   138 C    0.189
   135   6 C    3.929 --   136 C    2.449   134 C    1.333
   136   6 C    3.889 --   135 C    2.449   160 C    1.190   133 C    0.189
   137   6 C    3.932 --   138 C    2.451   133 C    1.332
   138   6 C    3.888 --   137 C    2.451    85 C    1.187   134 C    0.189
   139   6 C    3.925 --   179 C    1.255   140 C    1.248   132 C    1.191
   140   6 C    3.886 --   141 C    1.254   139 C    1.248   144 N    1.189
   141   6 C    3.955 --   142 C    1.576   140 C    1.254   181 H    0.975
   142   6 C    3.956 --   141 C    1.576   143 C    1.247   182 H    0.974
   143   6 C    3.893 --   145 C    1.299   142 C    1.247   144 N    1.166
   144   7 N    3.471 --   140 C    1.189   143 C    1.166   183 H    0.874
   145   6 C    3.928 --   155 C    1.337   143 C    1.299   146 C    1.030
   146   6 C    3.988 --   147 C    1.392   154 C    1.384   145 C    1.030
   147   6 C    3.974 --   146 C    1.392   148 C    1.380   184 H    0.969
   148   6 C    3.915 --   147 C    1.380   150 C    1.321   149 O    1.044
   149   8 O    2.053 --   148 C    1.044   185 H    0.866
   150   6 C    3.915 --   152 C    1.328   148 C    1.321   151 O    1.052
   151   8 O    2.048 --   150 C    1.052   186 H    0.850
   152   6 C    3.904 --   154 C    1.390   150 C    1.328   153 O    1.013
   153   8 O    2.026 --   152 C    1.013   187 H    0.861
   154   6 C    3.973 --   152 C    1.390   146 C    1.384   188 H    0.969
   155   6 C    3.916 --   145 C    1.337   158 N    1.285   156 C    1.126
   156   6 C    3.966 --   157 C    1.709   155 C    1.126   189 H    0.974
   157   6 C    3.964 --   156 C    1.709   159 C    1.130   190 H    0.974
   158   7 N    3.010 --   159 C    1.342   155 C    1.285
   159   6 C    3.909 --   158 N    1.342   160 C    1.255   157 C    1.130
   160   6 C    3.926 --   159 C    1.255   161 C    1.249   136 C    1.190
   161   6 C    3.886 --   162 C    1.252   160 C    1.249   165 N    1.189
   162   6 C    3.956 --   163 C    1.579   161 C    1.252   191 H    0.975
   163   6 C    3.956 --   162 C    1.579   164 C    1.245   192 H    0.974
   164   6 C    3.893 --   166 C    1.301   163 C    1.245   165 N    1.166
   165   7 N    3.471 --   161 C    1.189   164 C    1.166   193 H    0.874
   166   6 C    3.928 --   176 C    1.336   164 C    1.301   167 C    1.029
   167   6 C    3.989 --   168 C    1.398   175 C    1.386   166 C    1.029
   168   6 C    3.976 --   167 C    1.398   169 C    1.380   194 H    0.970
   169   6 C    3.918 --   168 C    1.380   171 C    1.324   170 O    1.053
   170   8 O    2.048 --   169 C    1.053   195 H    0.847
   171   6 C    3.904 --   173 C    1.340   169 C    1.324   172 O    1.021
   172   8 O    2.021 --   171 C    1.021   196 H    0.846
   173   6 C    3.905 --   175 C    1.384   171 C    1.340   174 O    1.014
   174   8 O    2.025 --   173 C    1.014   197 H    0.860
   175   6 C    3.973 --   167 C    1.386   173 C    1.384   198 H    0.969
   176   6 C    3.916 --   166 C    1.336   180 N    1.285   177 C    1.126
   177   6 C    3.966 --   178 C    1.708   176 C    1.126   199 H    0.974
   178   6 C    3.964 --   177 C    1.708   179 C    1.130   200 H    0.974
   179   6 C    3.910 --   180 N    1.343   139 C    1.255   178 C    1.130
   180   7 N    3.010 --   179 C    1.343   176 C    1.285
   181   1 H    1.002 --   141 C    0.975
   182   1 H    1.006 --   142 C    0.974
   183   1 H    0.987 --   144 N    0.874
   184   1 H    1.001 --   147 C    0.969
   185   1 H    0.886 --   149 O    0.866
   186   1 H    0.881 --   151 O    0.850
   187   1 H    0.882 --   153 O    0.861
   188   1 H    1.001 --   154 C    0.969
   189   1 H    1.006 --   156 C    0.974
   190   1 H    1.003 --   157 C    0.974
   191   1 H    1.002 --   162 C    0.975
   192   1 H    1.005 --   163 C    0.974
   193   1 H    0.987 --   165 N    0.874
   194   1 H    1.000 --   168 C    0.970
   195   1 H    0.878 --   170 O    0.847
   196   1 H    0.876 --   172 O    0.846
   197   1 H    0.881 --   174 O    0.860
   198   1 H    1.001 --   175 C    0.969
   199   1 H    1.006 --   177 C    0.974
   200   1 H    1.003 --   178 C    0.974
 ---------------------------------------------------------------------------

           -------------------------------------------------
          | TOTAL ENERGY             -384.312685133785 Eh   |
          | GRADIENT NORM               0.000390268323 Eh/α |
          | HOMO-LUMO GAP               0.927587798094 eV   |
           -------------------------------------------------

 * finished run on 2022/07/29 at 19:01:52.022
