   * xtb version 6.5.1 (b24c23e) compiled by 'conda@728c89f4b128' on 2022-07-12
          program call               : xtb Co_p-CP_C4_3.xyz --gfn 1 --opt -T 48

   ID    Z sym.   atoms
    1   27 Co     1, 63, 133
    2    6 C      2-6, 8-11, 13-24, 27-32, 35-39, 42, 43, 64-68, 70-73,
                  75-86, 89-94, 97-101, 104, 105, 125-132, 134-138, 140-143,
                  145-156, 159-164, 167-171, 174, 175
    3    7 N      7, 12, 33, 34, 69, 74, 95, 96, 139, 144, 165, 166
    4    8 O      25, 26, 40, 41, 87, 88, 102, 103, 157, 158, 172, 173
    5    1 H      44-62, 106-124, 176-193

          :  Hamiltonian                  GFN1-xTB          :
 * total energy  :  -367.0431561 Eh     change       -0.5587310E-08 Eh
 * total energy  :  -367.2772455 Eh     change       -0.2340894E+00 Eh
 * total energy  :  -367.3689805 Eh     change       -0.9173502E-01 Eh
 * total energy  :  -367.4177399 Eh     change       -0.4875939E-01 Eh
 * total energy  :  -367.4475136 Eh     change       -0.2977377E-01 Eh
 * total energy  :  -367.4760363 Eh     change       -0.2852263E-01 Eh
 * total energy  :  -367.5067003 Eh     change       -0.3066401E-01 Eh
 * total energy  :  -367.5413667 Eh     change       -0.3466644E-01 Eh
 * total energy  :  -367.5698469 Eh     change       -0.2848015E-01 Eh
 * total energy  :  -367.5981300 Eh     change       -0.2828317E-01 Eh
 * total energy  :  -367.8663994 Eh     change       -0.1287495E-04 Eh
 * total energy  :  -367.8664097 Eh     change       -0.1032414E-04 Eh
 * total energy  :  -367.8664197 Eh     change       -0.9975776E-05 Eh
 * total energy  :  -367.8664301 Eh     change       -0.1041681E-04 Eh
 * total energy  :  -367.8664386 Eh     change       -0.8459995E-05 Eh
 * total energy  :  -367.8664451 Eh     change       -0.6478949E-05 Eh
 * total energy  :  -367.8664515 Eh     change       -0.6484568E-05 Eh
 * total energy  :  -367.8664586 Eh     change       -0.7057143E-05 Eh
 * total energy  :  -367.8664633 Eh     change       -0.4748253E-05 Eh
   *** GEOMETRY OPTIMIZATION CONVERGED AFTER 84 ITERATIONS ***

 final structure:
================
193
 xtb: 6.5.1 (b24c23e)
Co          36.05243442986765       -0.02724939636909        0.01641907976084
C           32.68214130351861       -0.02838394088426        0.03985520220569
C           33.34650826559717       -0.34402646309853        1.20563716507008
C           32.69164087572930       -0.68028173177918        2.43328858728121
C           33.65081183641023       -0.72097631990086        3.38719679706015
C           34.89318582922282       -0.41043175580680        2.74135084336298
N           34.70112428872545       -0.23189416216083        1.39469712645062
C           36.07371301351117       -0.13296960948035        3.41643390698307
C           37.24221718712486        0.20121511965512        2.74834252815682
C           38.48410038858880        0.49820024920274        3.39706266169959
C           39.42969716762254        0.54974268015474        2.42866005533463
N           37.42203044124959        0.11704020526855        1.38681664878224
C           38.76689070015483        0.27429454745714        1.19302294458122
C           39.44029837717679        0.01644318921768       -0.00204333710731
C           38.75786042286271       -0.26030491280742       -1.18770931951210
C           39.40565608458729       -0.57046617207341       -2.42270936276831
C           38.44616271292350       -0.55550964710164       -3.37946370122507
C           37.21576187055150       -0.22507672862425       -2.72571607345416
C           36.03015871937430        0.06222420366758       -3.38702754431899
C           36.02164168087469        0.10626949140531       -4.86583981730516
C           35.17575448505754       -0.73320138857589       -5.59587533279903
C           35.16487680545372       -0.68227720392199       -6.97746235489843
C           35.99484364279109        0.21278210269530       -7.65527410814671
C           35.93926154345429        0.23772487426087       -9.13663440461207
O           36.76735531412545        1.13652624824088       -9.68996152177177
O           35.22599844532453       -0.46904624674909       -9.80235522795762
C           36.84204171415578        1.05227337870348       -6.93127179666693
C           36.85593150389828        0.99523511781278       -5.54876735733527
C           34.85155947000676        0.31523042591487       -2.69771395133314
C           33.60851533709631        0.66726025801793       -3.31994960449091
C           32.66314556987313        0.63642930825099       -2.35144078815981
C           33.33065071333579        0.27895649746428       -1.13678929126638
N           34.68097627412948        0.15021617031661       -1.34691164124317
N           37.40980086150215       -0.11546454461733       -1.36844139204920
C           36.08190287171637       -0.19093685645810        4.89743650209978
C           35.90236865480156       -1.41087815833331        5.55351128089244
C           35.90855814884991       -1.46594453619537        6.93517776513706
C           36.08951180814141       -0.30195301783026        7.68451151784769
C           36.08256147002471       -0.41137172826510        9.16322757445628
O           36.26713258207509        0.76063833063491        9.78930988191259
O           35.92711204615571       -1.44164004677355        9.76794935153992
C           36.26763455899138        0.91862554007106        7.03275650401628
C           36.26570620347244        0.97104317070237        5.64955611720709
H           31.59869528899704       -0.02173893022179        0.04898540221265
H           31.63030508169668       -0.84178166723104        2.53472634047774
H           33.53800201466537       -0.91752395294798        4.44098951355359
H           38.60922440111048        0.62615454262214        4.45986356152844
H           40.48757049405157        0.73235028937278        2.52785172753575
H           40.46112012516181       -0.76324700891661       -2.52824677415044
H           38.55077347367646       -0.74790204169431       -4.43480828467880
H           34.53858898953967       -1.43665284531031       -5.07209731877796
H           34.51408548945882       -1.33363404199170       -7.55045214796309
H           36.66914787146032        1.09179352974360      -10.65495074693433
H           37.48617458405644        1.75004468581759       -7.45310788640595
H           37.50406826360755        1.65736044870687       -4.98576332372988
H           33.48842312264890        0.90241551616258       -4.36503765905824
H           31.60502173888313        0.82737900138545       -2.43333870439829
H           35.77192274795837       -2.31645640870375        4.97214229317130
H           35.77425890586858       -2.40959223824653        7.45246591336939
H           36.24820993350246        0.60398009291502       10.74742854004429
H           36.40506717035954        1.82467666885258        7.61093635600928
H           36.39167593980549        1.92095790653156        5.14249167652617
Co          62.80271812558525       -0.00167308073440       -0.04097600384678
C           66.17244672751892        0.01416777688978       -0.06947419242052
C           65.50751819291565       -0.16894050960293       -1.26308556156520
C           66.16142189558396       -0.35925035883354       -2.52211203464944
C           65.20011590274068       -0.29688626591916       -3.47279973537173
C           63.95776516236081       -0.06843921970030       -2.79353811252351
N           64.15187767673342       -0.04423823794814       -1.43578112084665
C           62.77480199849587        0.28088930174261       -3.43052190585411
C           61.60735966062916        0.53551314427280       -2.72652037735243
C           60.36417016826520        0.90591833754627       -3.33349267756612
C           59.42085342610660        0.84526863095692       -2.36321786411455
N           61.43020656620683        0.29315459019047       -1.38355604245423
C           60.08642268874015        0.42746934813762       -1.16974622047512
C           59.41496936868353        0.02791148722680       -0.01219642817529
C           60.10045421880731       -0.38789515822948        1.13111462368438
C           59.45550750303270       -0.84619626319767        2.32066774824377
C           60.41698299651414       -0.94562544580168        3.27041893662623
C           61.64539093800374       -0.53574636075632        2.65918890797142
C           62.83138355657785       -0.32583835567650        3.34794696581951
C           62.84459848646620       -0.46259641162685        4.82100387636229
C           63.69665601176788       -1.38141091822436        5.43989116704195
C           63.71223256367409       -1.50034756601700        6.81723677848106
C           62.88121636370794       -0.69873668389488        7.60221131367865
C           62.94183762570034       -0.85575864774363        9.07538281849964
O           62.11336698291625       -0.03426851216652        9.73725807423645
O           63.65893140608470       -1.63718767791061        9.64679439534122
C           62.02831278922274        0.21968796777806        6.98933144479898
C           62.00945544624584        0.33249003709140        5.61026851860060
C           64.00722316496534        0.01572504761989        2.69216728837667
C           65.24913255886145        0.29927228441267        3.35048287984434
C           66.19250516979440        0.39196904501959        2.38385851422151
C           65.52472014691153        0.17736035460956        1.13618171400205
N           64.17593070088289        0.01400176239512        1.33142543918295
N           61.44814680031168       -0.26360548010169        1.32520635529127
C           62.76420486076191        0.39071292411882       -4.90850872624210
C           62.94581925570805       -0.74729575710150       -5.69781076569418
C           62.93781298066916       -0.64675311697605       -7.07687741513883
C           62.75313267705468        0.59364706476243       -7.69043663738996
C           62.75725751679980        0.65074208365215       -9.17208766590897
O           62.57117037246087        1.88541734724750       -9.66244888762959
O           62.91165837180795       -0.30522305096227       -9.88877837638208
C           62.57330604639598        1.73280435287417       -6.90539415132594
C           62.57688329646269        1.62944163710266       -5.52503646915669
H           67.25582254707746        0.02874257640106       -0.07943668622418
H           67.22338660141085       -0.50198494776955       -2.64315014306823
H           65.31148066441025       -0.37151433292370       -4.54231724961673
H           60.23654851845701        1.15666964144458       -4.37388333591143
H           58.36292752167311        1.03883790390750       -2.43801435690621
H           58.40051892833714       -1.05195583770407        2.40411161231111
H           60.31483912692369       -1.26431533181951        4.29496973455708
H           64.33478381479816       -2.01235980605267        4.83171263176559
H           64.36765639073484       -2.21419500771851        7.30403067748544
H           62.21449913215164       -0.19680256650557       10.68922819382854
H           61.38363212467083        0.84564102108238        7.59485031340693
H           61.35691132445447        1.05603169144082        5.13475167244861
H           65.36988119737545        0.40822390684934        4.41606325592411
H           67.24940164768157        0.57952388082190        2.48663956496919
H           63.07929199101207       -1.71214192000593       -5.22205081038990
H           63.07363893809807       -1.52593840011824       -7.69710968635178
H           62.58784756844216        1.83704286339128      -10.63209920656988
H           62.43322997692813        2.69778904657850       -7.37793986753075
H           62.44970393615842        2.51609485575309       -4.91433206513483
C           42.06800438517730        0.03548132068267       -0.01006184055751
C           40.84659028481792        0.02712218890892       -0.00886090336150
C           43.41904964877310        0.04117567564321       -0.01134408838383
C           44.64069065328620        0.04485683147059       -0.00824933318332
C           55.43808324608932        0.03878344406889       -0.00032382905372
C           54.21595679351032        0.04064497843072       -0.00606687546822
C           56.78812407150210        0.03640409658062       -0.00054856013306
C           58.01001243668344        0.03377969470739       -0.00252228970544
Co          49.42887223793520        0.04283055497477        0.02336689182098
C           46.04547413546597        0.04403778316129       -0.00991156451606
C           46.72669742029509       -1.13996072714122       -0.30429759190508
C           46.08437177873227       -2.37044928904415       -0.64224634010192
C           47.03910455232302       -3.33207819577859       -0.59987536283580
C           48.25985733240215       -2.68536488622583       -0.22336236780636
N           48.06933706621856       -1.32723151682350       -0.12642063645060
C           49.42730464382134       -3.34639185103075        0.13679195933168
C           50.59485697675134       -2.65708829800233        0.44028313219705
C           51.81100555047832       -3.26576360393144        0.88716233679899
C           52.76600567586696       -2.30338391805258        0.85204826433320
N           50.79010367419297       -1.31678928807208        0.20856804027442
C           52.12862057735981       -1.11052306098608        0.39297572759419
C           52.81237611782095        0.03995885280826       -0.01171801600133
C           52.12967889197289        1.18792166895603       -0.42435245248602
C           52.77018913787330        2.37773016353981       -0.88763101323321
C           51.81480809711546        3.33839341262210       -0.94050622856797
C           50.59599664814014        2.73320542201929       -0.49500676642644
C           49.43118934771694        3.42694909915308       -0.19294736887454
C           49.43303920119795        4.90340631901282       -0.26580669173887
C           50.34815013236216        5.64735533780085        0.48461458351470
C           50.34564501560145        7.02821704853433        0.41860485784991
C           49.43226057608892        7.69177311228249       -0.40280134277433
C           49.47087266470358        9.17378430409360       -0.44162958644447
O           48.55220530162646        9.71319279129836       -1.25645687024186
O           50.24348605357175        9.85003217582940        0.18833399729905
C           48.51849127839454        6.95410511018672       -1.15606565903102
C           48.51874503041164        5.57219984647353       -1.08431610593953
C           48.26484670549986        2.77037973264128        0.18131932430997
C           47.05027771829393        3.41911282260046        0.57270410485512
C           46.09405840525301        2.45879652830328        0.62774838410994
C           46.72963150695115        1.22757561280444        0.28147569784613
N           48.06835639905962        1.41452363907517        0.07708485292294
N           50.78774262653567        1.39137535923112       -0.26311403248164
C           49.42807498287580       -4.82346840666823        0.20167453549223
C           48.52686942238729       -5.49666626976278        1.03129581277337
C           48.53225180252493       -6.87785950425817        1.09148180444667
C           49.43356395788247       -7.61234647509391        0.31860562727736
C           49.39709281561776       -9.09212081183170        0.41416417602694
O           50.29728910967366       -9.70254115155959       -0.37026348456563
O           48.64072581088806       -9.70832515405615        1.12068779670927
C           50.33369280246864       -6.94543292014175       -0.51293005467482
C           50.33161198288246       -5.56267310002558       -0.56653273388154
H           45.03483536690477       -2.47129540678632       -0.86703751259015
H           46.93499951888731       -4.38641033802432       -0.79780512295331
H           51.91165955104405       -4.29663273107375        1.18535783312177
H           53.81242601181531       -2.38256955101373        1.09903399202483
H           53.81879149235316        2.45525825042338       -1.12574544270209
H           51.91741742712470        4.36679107107002       -1.24632688053206
H           51.04845564335176        5.13481518386972        1.13426064235931
H           51.04895297130737        7.61166276234016        1.00260320878023
H           48.64291248809801       10.67950434233726       -1.22598394969645
H           47.81027834973869        7.46494010713342       -1.79761966979276
H           47.81785709626594        4.99886348669238       -1.68050072251703
H           46.95110749077350        4.47310913530429        0.77520264771396
H           45.04820712195943        2.56168401418965        0.86836999942418
H           47.83519430432309       -4.92774535257758        1.64210072482757
H           47.83986155223082       -7.40660886110888        1.73734572342093
H           50.20958611325129      -10.66226627937962       -0.25111235305138
H           51.03281090816414       -7.51168738458753       -1.11672863581360
H           51.02218633069015       -5.04498271890108       -1.22256362832779

          :  Hamiltonian                  GFN1-xTB          :
         :: total energy            -367.866463345951 Eh    ::
         :: gradient norm              0.000484688160 Eh/a0 ::
         :: HOMO-LUMO gap              0.006310403460 eV    ::
         :: SCC energy              -373.237364718360 Eh    ::
         :: repulsion energy           5.543717843248 Eh    ::

    * Orbital Energies and Occupations

         #    Occupation            Energy/Eh            Energy/eV
      -------------------------------------------------------------
         1        2.0000           -0.8359795             -22.7482
       ...           ...                  ...                  ...
       316        2.0000           -0.4066535             -11.0656
       317        2.0000           -0.4063987             -11.0587
       318        2.0000           -0.4061520             -11.0520
       319        1.9998           -0.4033674             -10.9762
       320        1.9998           -0.4032529             -10.9731
       321        1.9997           -0.4029486             -10.9648
       322        1.9996           -0.4028433             -10.9619
       323        1.9996           -0.4028196             -10.9613
       324        1.9996           -0.4027051             -10.9582
       325        1.9982           -0.4013349             -10.9209
       326        1.8370           -0.3969595             -10.8018
       327        1.1001           -0.3947159             -10.7408
       328        1.0886           -0.3946915             -10.7401 (HOMO)
       329        0.9782           -0.3944596             -10.7338 (LUMO)
       330                         -0.3511487              -9.5552
       331                         -0.3432247              -9.3396
       332                         -0.3423383              -9.3155
       333                         -0.3398411              -9.2475
       334                         -0.3392781              -9.2322
       335                         -0.3387818              -9.2187
       336                         -0.3216250              -8.7519
       337                         -0.3161374              -8.6025
       338                         -0.3157471              -8.5919
       339                         -0.3117630              -8.4835
       ...                                ...                  ...
       675                          1.5036316              40.9159
      -------------------------------------------------------------
                  HL-Gap            0.0002319 Eh            0.0063 eV

Wiberg/Mayer (AO) data.
largest (>0.10) Wiberg bond orders for each atom

     #   Z sym  total        # sym  WBO       # sym  WBO       # sym  WBO
 ---------------------------------------------------------------------------
     1  27 Co   3.052 --     7 N    0.643    33 N    0.643    12 N    0.638
                            34 N    0.637
     2   6 C    3.933 --    32 C    1.366     3 C    1.366    44 H    0.970
     3   6 C    3.923 --     2 C    1.366     7 N    1.200     4 C    1.173
     4   6 C    3.960 --     5 C    1.652     3 C    1.173    45 H    0.975
     5   6 C    3.962 --     4 C    1.652     6 C    1.174    46 H    0.973
     6   6 C    3.919 --     8 C    1.323     7 N    1.209     5 C    1.174
     7   7 N    3.351 --     6 C    1.209     3 C    1.200     1 Co   0.643
     8   6 C    3.935 --     9 C    1.331     6 C    1.323    35 C    1.023
     9   6 C    3.916 --     8 C    1.331    12 N    1.194    10 C    1.180
    10   6 C    3.959 --    11 C    1.640     9 C    1.180    47 H    0.973
    11   6 C    3.962 --    10 C    1.640    13 C    1.187    48 H    0.973
    12   7 N    3.351 --    13 C    1.224     9 C    1.194     1 Co   0.638
    13   6 C    3.906 --    14 C    1.268    12 N    1.224    11 C    1.187
    14   6 C    3.938 --    13 C    1.268    15 C    1.267   126 C    1.176
    15   6 C    3.906 --    14 C    1.267    34 N    1.223    16 C    1.189
    16   6 C    3.961 --    17 C    1.637    15 C    1.189    49 H    0.973
    17   6 C    3.959 --    16 C    1.637    18 C    1.182    50 H    0.973
    18   6 C    3.916 --    19 C    1.327    34 N    1.195    17 C    1.182
    19   6 C    3.935 --    18 C    1.327    29 C    1.320    20 C    1.034
    20   6 C    3.986 --    28 C    1.385    21 C    1.384    19 C    1.034
    21   6 C    3.987 --    22 C    1.465    20 C    1.384    51 H    0.972
                            27 C    0.102
    22   6 C    3.990 --    21 C    1.465    23 C    1.385    52 H    0.968
                            28 C    0.102
    23   6 C    3.982 --    27 C    1.388    22 C    1.385    24 C    1.009
    24   6 C    3.836 --    26 O    1.690    25 O    1.088    23 C    1.009
    25   8 O    2.097 --    24 C    1.088    53 H    0.838    26 O    0.129
    26   8 O    1.958 --    24 C    1.690    25 O    0.129
    27   6 C    3.991 --    28 C    1.462    23 C    1.388    54 H    0.970
                            21 C    0.102
    28   6 C    3.987 --    27 C    1.462    20 C    1.385    55 H    0.972
                            22 C    0.102
    29   6 C    3.920 --    19 C    1.320    33 N    1.211    30 C    1.175
    30   6 C    3.963 --    31 C    1.650    29 C    1.175    56 H    0.973
    31   6 C    3.960 --    30 C    1.650    32 C    1.174    57 H    0.975
    32   6 C    3.923 --     2 C    1.366    33 N    1.198    31 C    1.174
    33   7 N    3.349 --    29 C    1.211    32 C    1.198     1 Co   0.643
    34   7 N    3.351 --    15 C    1.223    18 C    1.195     1 Co   0.637
    35   6 C    3.986 --    43 C    1.389    36 C    1.387     8 C    1.023
    36   6 C    3.988 --    37 C    1.463    35 C    1.387    58 H    0.972
                            42 C    0.103
    37   6 C    3.990 --    36 C    1.463    38 C    1.386    59 H    0.968
                            43 C    0.103
    38   6 C    3.984 --    42 C    1.390    37 C    1.386    39 C    1.009
    39   6 C    3.836 --    41 O    1.690    40 O    1.088    38 C    1.009
    40   8 O    2.097 --    39 C    1.088    60 H    0.838    41 O    0.129
    41   8 O    1.959 --    39 C    1.690    40 O    0.129
    42   6 C    3.991 --    43 C    1.460    38 C    1.390    61 H    0.970
                            36 C    0.103
    43   6 C    3.988 --    42 C    1.460    35 C    1.389    62 H    0.972
                            37 C    0.103
    44   1 H    0.999 --     2 C    0.970
    45   1 H    0.997 --     4 C    0.975
    46   1 H    1.004 --     5 C    0.973
    47   1 H    1.004 --    10 C    0.973
    48   1 H    1.001 --    11 C    0.973
    49   1 H    1.001 --    16 C    0.973
    50   1 H    1.003 --    17 C    0.973
    51   1 H    1.004 --    21 C    0.972
    52   1 H    1.005 --    22 C    0.968
    53   1 H    0.873 --    25 O    0.838
    54   1 H    1.005 --    27 C    0.970
    55   1 H    1.004 --    28 C    0.972
    56   1 H    1.003 --    30 C    0.973
    57   1 H    0.997 --    31 C    0.975
    58   1 H    1.003 --    36 C    0.972
    59   1 H    1.005 --    37 C    0.968
    60   1 H    0.873 --    40 O    0.838
    61   1 H    1.005 --    42 C    0.970
    62   1 H    1.003 --    43 C    0.972
    63  27 Co   3.046 --    69 N    0.642    95 N    0.641    74 N    0.636
                            96 N    0.636
    64   6 C    3.930 --    94 C    1.366    65 C    1.365   106 H    0.970
    65   6 C    3.923 --    64 C    1.365    69 N    1.200    66 C    1.173
    66   6 C    3.960 --    67 C    1.652    65 C    1.173   107 H    0.975
    67   6 C    3.962 --    66 C    1.652    68 C    1.174   108 H    0.973
    68   6 C    3.919 --    70 C    1.322    69 N    1.210    67 C    1.174
    69   7 N    3.349 --    68 C    1.210    65 C    1.200    63 Co   0.642
    70   6 C    3.932 --    71 C    1.332    68 C    1.322    97 C    1.023
    71   6 C    3.916 --    70 C    1.332    74 N    1.194    72 C    1.181
    72   6 C    3.959 --    73 C    1.640    71 C    1.181   109 H    0.973
    73   6 C    3.962 --    72 C    1.640    75 C    1.188   110 H    0.973
    74   7 N    3.349 --    75 C    1.226    71 C    1.194    63 Co   0.636
    75   6 C    3.905 --    76 C    1.264    74 N    1.226    73 C    1.188
    76   6 C    3.935 --    75 C    1.264    77 C    1.264   132 C    1.182
    77   6 C    3.905 --    76 C    1.264    96 N    1.226    78 C    1.189
    78   6 C    3.960 --    79 C    1.637    77 C    1.189   111 H    0.973
    79   6 C    3.959 --    78 C    1.637    80 C    1.181   112 H    0.973
    80   6 C    3.917 --    81 C    1.328    96 N    1.195    79 C    1.181
    81   6 C    3.933 --    80 C    1.328    91 C    1.318    82 C    1.034
    82   6 C    3.986 --    90 C    1.385    83 C    1.384    81 C    1.034
    83   6 C    3.985 --    84 C    1.465    82 C    1.384   113 H    0.972
                            89 C    0.102
    84   6 C    3.990 --    83 C    1.465    85 C    1.385   114 H    0.968
                            90 C    0.102
    85   6 C    3.982 --    89 C    1.389    84 C    1.385    86 C    1.009
    86   6 C    3.836 --    88 O    1.690    87 O    1.089    85 C    1.009
    87   8 O    2.097 --    86 C    1.089   115 H    0.838    88 O    0.129
    88   8 O    1.958 --    86 C    1.690    87 O    0.129
    89   6 C    3.991 --    90 C    1.462    85 C    1.389   116 H    0.969
                            83 C    0.102
    90   6 C    3.987 --    89 C    1.462    82 C    1.385   117 H    0.972
                            84 C    0.102
    91   6 C    3.920 --    81 C    1.318    95 N    1.212    92 C    1.176
    92   6 C    3.963 --    93 C    1.649    91 C    1.176   118 H    0.973
    93   6 C    3.959 --    92 C    1.649    94 C    1.174   119 H    0.975
    94   6 C    3.923 --    64 C    1.366    95 N    1.198    93 C    1.174
    95   7 N    3.348 --    91 C    1.212    94 C    1.198    63 Co   0.641
    96   7 N    3.349 --    77 C    1.226    80 C    1.195    63 Co   0.636
    97   6 C    3.986 --   105 C    1.389    98 C    1.387    70 C    1.023
    98   6 C    3.987 --    99 C    1.463    97 C    1.387   120 H    0.972
                           104 C    0.103
    99   6 C    3.990 --    98 C    1.463   100 C    1.386   121 H    0.968
                           105 C    0.103
   100   6 C    3.984 --   104 C    1.390    99 C    1.386   101 C    1.009
   101   6 C    3.836 --   103 O    1.690   102 O    1.088   100 C    1.009
   102   8 O    2.097 --   101 C    1.088   122 H    0.838   103 O    0.129
   103   8 O    1.958 --   101 C    1.690   102 O    0.129
   104   6 C    3.991 --   105 C    1.460   100 C    1.390   123 H    0.970
                            98 C    0.103
   105   6 C    3.988 --   104 C    1.460    97 C    1.389   124 H    0.972
                            99 C    0.103
   106   1 H    0.999 --    64 C    0.970
   107   1 H    0.997 --    66 C    0.975
   108   1 H    1.004 --    67 C    0.973
   109   1 H    1.004 --    72 C    0.973
   110   1 H    1.001 --    73 C    0.973
   111   1 H    1.001 --    78 C    0.973
   112   1 H    1.003 --    79 C    0.973
   113   1 H    1.004 --    83 C    0.972
   114   1 H    1.005 --    84 C    0.968
   115   1 H    0.873 --    87 O    0.838
   116   1 H    1.005 --    89 C    0.969
   117   1 H    1.004 --    90 C    0.972
   118   1 H    1.003 --    92 C    0.973
   119   1 H    0.997 --    93 C    0.975
   120   1 H    1.003 --    98 C    0.972
   121   1 H    1.005 --    99 C    0.968
   122   1 H    0.873 --   102 O    0.838
   123   1 H    1.005 --   104 C    0.970
   124   1 H    1.003 --   105 C    0.972
   125   6 C    3.932 --   126 C    2.482   127 C    1.301
   126   6 C    3.913 --   125 C    2.482    14 C    1.176   128 C    0.196
   127   6 C    3.926 --   128 C    2.479   125 C    1.301
   128   6 C    3.918 --   127 C    2.479   134 C    1.182   126 C    0.196
   129   6 C    3.925 --   130 C    2.473   131 C    1.306
   130   6 C    3.918 --   129 C    2.473   146 C    1.187   132 C    0.196
   131   6 C    3.931 --   132 C    2.475   129 C    1.306
   132   6 C    3.913 --   131 C    2.475    76 C    1.182   130 C    0.196
   133  27 Co   3.086 --   139 N    0.638   166 N    0.638   144 N    0.632
                           165 N    0.632
   134   6 C    3.926 --   135 C    1.263   164 C    1.260   128 C    1.182
   135   6 C    3.907 --   134 C    1.263   139 N    1.225   136 C    1.190
   136   6 C    3.959 --   137 C    1.636   135 C    1.190   176 H    0.974
   137   6 C    3.961 --   136 C    1.636   138 C    1.183   177 H    0.973
   138   6 C    3.915 --   140 C    1.322   139 N    1.197   137 C    1.183
   139   7 N    3.341 --   135 C    1.225   138 C    1.197   133 Co   0.638
   140   6 C    3.928 --   138 C    1.322   141 C    1.319   167 C    1.036
   141   6 C    3.915 --   140 C    1.319   144 N    1.198   142 C    1.184
   142   6 C    3.960 --   143 C    1.633   141 C    1.184   178 H    0.973
   143   6 C    3.959 --   142 C    1.633   145 C    1.192   179 H    0.974
   144   7 N    3.343 --   145 C    1.226   141 C    1.198   133 Co   0.632
   145   6 C    3.906 --   146 C    1.258   144 N    1.226   143 C    1.192
   146   6 C    3.925 --   147 C    1.260   145 C    1.258   130 C    1.187
   147   6 C    3.906 --   146 C    1.260   166 N    1.227   148 C    1.191
   148   6 C    3.959 --   149 C    1.635   147 C    1.191   180 H    0.974
   149   6 C    3.961 --   148 C    1.635   150 C    1.183   181 H    0.973
   150   6 C    3.915 --   151 C    1.323   166 N    1.195   149 C    1.183
   151   6 C    3.928 --   150 C    1.323   161 C    1.317   152 C    1.037
   152   6 C    3.986 --   160 C    1.384   153 C    1.382   151 C    1.037
   153   6 C    3.984 --   154 C    1.465   152 C    1.382   182 H    0.972
                           159 C    0.102
   154   6 C    3.990 --   153 C    1.465   155 C    1.385   183 H    0.968
                           160 C    0.102
   155   6 C    3.981 --   159 C    1.389   154 C    1.385   156 C    1.008
   156   6 C    3.836 --   158 O    1.691   157 O    1.089   155 C    1.008
   157   8 O    2.097 --   156 C    1.089   184 H    0.838   158 O    0.129
   158   8 O    1.959 --   156 C    1.691   157 O    0.129
   159   6 C    3.991 --   160 C    1.462   155 C    1.389   185 H    0.969
                           153 C    0.102
   160   6 C    3.985 --   159 C    1.462   152 C    1.384   186 H    0.972
                           154 C    0.102
   161   6 C    3.915 --   151 C    1.317   165 N    1.199   162 C    1.185
   162   6 C    3.960 --   163 C    1.633   161 C    1.185   187 H    0.973
   163   6 C    3.959 --   162 C    1.633   164 C    1.192   188 H    0.974
   164   6 C    3.907 --   134 C    1.260   165 N    1.225   163 C    1.192
   165   7 N    3.342 --   164 C    1.225   161 C    1.199   133 Co   0.632
   166   7 N    3.341 --   147 C    1.227   150 C    1.195   133 Co   0.638
   167   6 C    3.986 --   175 C    1.384   168 C    1.383   140 C    1.036
   168   6 C    3.984 --   169 C    1.464   167 C    1.383   189 H    0.972
                           174 C    0.102
   169   6 C    3.990 --   168 C    1.464   170 C    1.385   190 H    0.968
                           175 C    0.103
   170   6 C    3.982 --   174 C    1.389   169 C    1.385   171 C    1.008
   171   6 C    3.836 --   173 O    1.691   172 O    1.089   170 C    1.008
   172   8 O    2.097 --   171 C    1.089   191 H    0.838   173 O    0.129
   173   8 O    1.959 --   171 C    1.691   172 O    0.129
   174   6 C    3.991 --   175 C    1.462   170 C    1.389   192 H    0.969
                           168 C    0.102
   175   6 C    3.985 --   174 C    1.462   167 C    1.384   193 H    0.972
                           169 C    0.103
   176   1 H    1.001 --   136 C    0.974
   177   1 H    1.003 --   137 C    0.973
   178   1 H    1.003 --   142 C    0.973
   179   1 H    1.001 --   143 C    0.974
   180   1 H    1.001 --   148 C    0.974
   181   1 H    1.003 --   149 C    0.973
   182   1 H    1.005 --   153 C    0.972
   183   1 H    1.005 --   154 C    0.968
   184   1 H    0.873 --   157 O    0.838
   185   1 H    1.005 --   159 C    0.969
   186   1 H    1.005 --   160 C    0.972
   187   1 H    1.003 --   162 C    0.973
   188   1 H    1.001 --   163 C    0.974
   189   1 H    1.004 --   168 C    0.972
   190   1 H    1.005 --   169 C    0.968
   191   1 H    0.872 --   172 O    0.838
   192   1 H    1.005 --   174 C    0.969
   193   1 H    1.004 --   175 C    0.972
 ---------------------------------------------------------------------------

           -------------------------------------------------
          | TOTAL ENERGY             -367.866463345951 Eh   |
          | GRADIENT NORM               0.000484688160 Eh/α |
          | HOMO-LUMO GAP               0.006310403460 eV   |
           -------------------------------------------------

 * finished run on 2022/07/30 at 03:19:21.221
