   * xtb version 6.5.1 (b24c23e) compiled by 'conda@728c89f4b128' on 2022-07-12
          program call               : xtb Zn_Ph3Me_C2_2.xyz --gfn 1 --opt -T 48

   ID    Z sym.   atoms
    1   30 Zn     1, 75
    2    6 C      2-6, 8-20, 22-27, 29-42, 76-80, 82-94, 96-101, 103-116,
                  149, 150
    3    7 N      7, 21, 28, 43, 81, 95, 102, 117
    4    1 H      44-74, 118-148
########################################################################
[WARNING] Please study the warnings concerning your input carefully
-1- prog_main_parseArguments: Unknown option '-T' provided
########################################################################

          :  Hamiltonian                  GFN1-xTB          :
 * total energy  :  -225.2743190 Eh     change       -0.5927063E-09 Eh
 * total energy  :  -225.4317388 Eh     change       -0.1574198E+00 Eh
 * total energy  :  -225.4917597 Eh     change       -0.6002090E-01 Eh
 * total energy  :  -225.5072218 Eh     change       -0.1546213E-01 Eh
 * total energy  :  -225.5129405 Eh     change       -0.5718693E-02 Eh
 * total energy  :  -225.5163389 Eh     change       -0.3398469E-02 Eh
 * total energy  :  -225.5184126 Eh     change       -0.2073692E-02 Eh
 * total energy  :  -225.5197452 Eh     change       -0.1332544E-02 Eh
 * total energy  :  -225.5206223 Eh     change       -0.8770773E-03 Eh
 * total energy  :  -225.5212259 Eh     change       -0.6035948E-03 Eh
 * total energy  :  -225.5234450 Eh     change       -0.1243013E-04 Eh
 * total energy  :  -225.5234551 Eh     change       -0.1002074E-04 Eh
 * total energy  :  -225.5234641 Eh     change       -0.9017653E-05 Eh
 * total energy  :  -225.5234719 Eh     change       -0.7796385E-05 Eh
 * total energy  :  -225.5234799 Eh     change       -0.8064369E-05 Eh
 * total energy  :  -225.5234888 Eh     change       -0.8860324E-05 Eh
 * total energy  :  -225.5234958 Eh     change       -0.7013588E-05 Eh
 * total energy  :  -225.5235010 Eh     change       -0.5207571E-05 Eh
 * total energy  :  -225.5235057 Eh     change       -0.4662922E-05 Eh
   *** GEOMETRY OPTIMIZATION CONVERGED AFTER 43 ITERATIONS ***

 final structure:
================
150
 xtb: 6.5.1 (b24c23e)
Zn          17.03173656575389        0.07931752129686        0.02747170809110
C           13.60818625046293        0.15446352405778       -0.02566300701431
C           14.24915316494554        1.29190754254311        0.45176726979064
C           13.59046945462752        2.47852779284501        0.92435368394372
C           14.56092173346407        3.35161605308931        1.29441221718561
C           15.82427364582232        2.70849750527142        1.04933571588023
N           15.60054336554603        1.46194297537161        0.54238878135981
C           17.07864596164433        3.27667362561732        1.28429107169110
C           17.09928027953046        4.66288263082250        1.83827304024836
C           17.03731208418458        5.76194039509684        0.97697474741986
C           16.95897609817268        5.54567312113346       -0.51105112450742
C           17.04673007713283        7.04735060855117        1.50588976048583
C           17.11566083006610        7.25402818956762        2.87984723869543
C           17.14111409429170        8.65069489795566        3.44020799419791
C           17.18053035353698        6.15338930208088        3.72801149226271
C           17.17268841934514        4.85951365400111        3.22019697048894
C           17.24013658824452        3.67289810777669        4.14453418023942
C           18.31302710227199        2.66731903014851        1.04831063627433
C           19.58814548461760        3.28565018082652        1.27661874754916
C           20.53599960392498        2.37750686157240        0.93139827885991
N           18.51127753605076        1.39952393315060        0.56884333858578
C           19.85514345477960        1.19502486256986        0.49330921539334
C           20.48897528180775        0.00833066955384        0.06622134542793
C           19.81612674629001       -1.15487099880830       -0.36588348016633
C           20.45710925803667       -2.36957089131889       -0.77493967687005
C           19.48066556953833       -3.24066122140458       -1.13558902263882
C           18.22751942720417       -2.56619038842765       -0.94788242611032
N           18.46702985245317       -1.30377809418573       -0.47296875502705
C           16.97542816395817       -3.12290399318875       -1.21891537389184
C           16.95505813853379       -4.51078261294262       -1.76876821151172
C           17.08299600972266       -4.71529680247161       -3.14633164676682
C           17.24237651074720       -3.53583485884962       -4.06859230123850
C           17.06212927666950       -6.00955797118840       -3.65050618887653
C           16.91637657112276       -7.10471595006195       -2.80341393904140
C           16.88914451120500       -8.49763340094797       -3.37307001819498
C           16.78941434409350       -6.89041175726078       -1.43592215758848
C           16.80742791112808       -5.60290399340025       -0.91005526251421
C           16.67064726842191       -5.37955125025558        0.57273698089852
C           15.74053294841281       -2.49895961987270       -1.02626610511461
C           14.45818642777478       -3.08545728955899       -1.31156272231605
C           13.51644695347120       -2.16862045171562       -0.97453972604959
C           14.21214210145216       -1.01142023199239       -0.48232815325325
N           15.55668564363108       -1.24203941493393       -0.52903440592585
H           12.52304270093521        0.17909647716415       -0.04302954082887
H           12.52082326174262        2.61393620724571        0.96382213030797
H           14.44339490197830        4.34431332108652        1.69954879030556
H           16.03762962658853        5.01927959572672       -0.76841411473110
H           17.79773670651279        4.93494276332404       -0.85021315256795
H           16.97815127362654        6.49549410788233       -1.04469199228841
H           16.99700772912269        7.90017874894381        0.83664905555310
H           16.70428535489495        8.67665620561662        4.43885713971115
H           18.17239858642625        9.00438680960893        3.51141645674612
H           16.59112778845736        9.33764111907891        2.79642875512339
H           17.23487089923719        6.30513186506600        4.80117982343881
H           18.14599809250973        3.09473657649975        3.95164480725058
H           17.24464236738900        3.99032486477282        5.18689723866272
H           16.38403900424129        3.01555685723953        3.98114148613353
H           19.73222965264771        4.28737677245265        1.64895290155213
H           21.60557415097378        2.49589391517886        0.96684162021638
H           21.52109692794762       -2.53452754605824       -0.77845183575421
H           19.59159503623805       -4.25219800560678       -1.49247894423771
H           16.41539531250676       -2.83578428526105       -3.93582056741898
H           17.26751128065080       -3.85585925951814       -5.10987353091966
H           18.16904580228979       -3.00360709578958       -3.84465482066879
H           17.16137599808931       -6.16869396747106       -4.71942146258504
H           17.74935263561176       -8.66060544171262       -4.02445590842306
H           16.90419913497760       -9.24513542261412       -2.57999414051546
H           15.98503682457514       -8.64294111239525       -3.96808318156489
H           16.67572849458163       -7.73737361966920       -0.76703981933815
H           15.76019585755258       -4.81646761967134        0.78771871211971
H           17.51680871964085       -4.80164396236843        0.94913899072864
H           16.62777869645599       -6.32799915146263        1.10749179288095
H           14.30943216990729       -4.07282190351903       -1.71948351613720
H           12.44363275354679       -2.25595105151073       -1.04866803926679
Zn          27.98777269689978       -0.07626037371179       -0.03505489720866
C           31.41132229130432       -0.09367674129658       -0.12546413591473
C           30.77035682458920       -1.24497705081222       -0.56843870550221
C           31.42904487984377       -2.42843340352091       -1.04888162840500
C           30.45859504357778       -3.31461578204993       -1.38639117234049
C           29.19524105529209       -2.68087980731473       -1.11799332376737
N           29.41896625052827       -1.43042105040866       -0.62074918010634
C           27.94087199153998       -3.25352721924400       -1.34184342301928
C           27.92024099866947       -4.63733380660978       -1.90180406390271
C           27.98221663841159       -4.83410476402622       -3.28420984060152
C           28.06055172054481       -3.64785248027118       -4.20822276447460
C           27.97280019832316       -6.12782078690964       -3.79247173734747
C           27.90386518598106       -7.22817792969547       -2.94412828301083
C           27.87841559175695       -8.62394601527220       -3.50672271758145
C           27.83898854108893       -7.02117269829250       -1.57010578232989
C           27.84682680421788       -5.73595708674634       -1.04075768365465
C           27.77937673633180       -5.51965306963010        0.44775445101173
C           26.70648941476413       -2.65046020440271       -1.09023940344299
C           25.43137389520052       -3.25471976567586       -1.35355418031264
C           24.48351882622353       -2.36042172380817       -0.97391020801056
N           26.50823674051082       -1.40370036833800       -0.55846491872008
C           25.16437062491688       -1.20385484055623       -0.47137426108377
C           24.53053226430980       -0.05187629266986        0.04202626525920
C           25.20337524974531        1.08663059639032        0.53555180821518
C           24.56238976301936        2.24632970823042        1.08137105192214
C           25.53883234333435        3.12458556920998        1.42420727467460
C           26.79198033261036        2.50795732316302        1.09268015379533
N           26.55247258144598        1.26821966895716        0.56138133064665
C           28.04406983228888        3.09732365416574        1.28252686566137
C           28.06443718689406        4.47947396972094        1.84662152708579
C           27.93650360477135        5.58076810382633        0.99417748779693
C           27.77712174885087        5.36818573826784       -0.48788242520248
C           27.95736704636536        6.86374308532798        1.52641777202209
C           28.10311364466011        7.06753477620640        2.89587335058030
C           28.13034329041671        8.46703299356759        3.44916586096653
C           28.23007399808602        5.96614893112936        3.73427148076911
C           28.21206296828419        4.67302922046168        3.22235971532328
C           28.34885179055063        3.48529162641299        4.13769301908159
C           29.27896922584737        2.51372210907529        0.98957389275207
C           30.56131266046425        3.13446062490931        1.18973707225916
C           31.50305881324349        2.23953550219528        0.79824174948216
C           30.80736456393653        1.06376785619948        0.35218656140291
N           29.46282342795432        1.26249348404818        0.47819510141179
H           32.49646836156435       -0.09946534407434       -0.15495548959036
H           32.49869189163138       -2.55347666693784       -1.11411369811903
H           30.57612447211696       -4.31140693989074       -1.78134916168721
H           28.98189566267940       -3.08983294895509       -4.02949136458974
H           27.22178876978019       -2.97234969900766       -4.03013721422524
H           28.04138280046032       -3.96377564459886       -5.25087554096829
H           28.02252341493314       -6.27987984251941       -4.86582035952512
H           28.31524624594179       -9.33406588520313       -2.80408333542097
H           26.84713204258062       -8.92846774158847       -3.70020864983897
H           28.42840221327447       -8.67393258210578       -4.44685441382342
H           27.78464712201950       -7.87364739225495       -0.90077570546769
H           26.87351500005732       -4.96891770257169        0.70884241602219
H           27.77486779617742       -6.47035909361409        0.98014403863919
H           28.63547470516755       -4.93220667889006        0.78495069877250
H           25.28729210177645       -4.23532455784050       -1.77841276839721
H           23.41394574532920       -2.47039759522148       -1.03028279188625
H           23.49840069092699        2.36778600978445        1.19303980088169
H           25.42790051846646        4.10157849766074        1.86699386467454
H           28.60410257495377        4.77111590519828       -0.87673588603707
H           27.75198926972161        6.32001478990168       -1.01769721889091
H           26.85045210599808        4.82910104069406       -0.69476720452762
H           27.85811687328116        7.71860695490840        0.86527466452359
H           27.27013614979874        9.03560069417615        3.09195989591934
H           28.11528419295702        8.45735585941606        4.53895256020120
H           29.03445216279927        8.98382756868235        3.12041580319076
H           28.34376403603823        6.11422432886986        4.80329857899703
H           29.25930684816157        2.93014590806103        3.90298748153368
H           27.50269486677600        2.80768398698211        4.00920131543418
H           28.39171732918811        3.79945852048584        5.18019764078498
H           30.71006160104722        4.12935594625295        1.57892887656009
H           32.57587305196961        2.35387423545312        0.80522233936147
C           21.90037056825937       -0.01566500221260        0.06785790874742
C           23.11913772023304       -0.03579876386392        0.05987501873127

          :  Hamiltonian                  GFN1-xTB          :
         :: total energy            -225.523505688838 Eh    ::
         :: gradient norm              0.000323913755 Eh/a0 ::
         :: HOMO-LUMO gap              1.064133435406 eV    ::
         :: SCC energy              -229.082163555449 Eh    ::
         :: repulsion energy           3.695635963946 Eh    ::

    * Orbital Energies and Occupations

         #    Occupation            Energy/Eh            Energy/eV
      -------------------------------------------------------------
         1        2.0000           -0.7552251             -20.5507
       ...           ...                  ...                  ...
       197        2.0000           -0.4170950             -11.3497
       198        2.0000           -0.4169608             -11.3461
       199        2.0000           -0.4169169             -11.3449
       200        2.0000           -0.4168838             -11.3440
       201        2.0000           -0.4162896             -11.3278
       202        2.0000           -0.4162789             -11.3275
       203        2.0000           -0.4160841             -11.3222
       204        2.0000           -0.4160594             -11.3216
       205        2.0000           -0.4152266             -11.2989
       206        2.0000           -0.3891485             -10.5893
       207        2.0000           -0.3891347             -10.5889
       208        2.0000           -0.3867030             -10.5227
       209        2.0000           -0.3712885             -10.1033 (HOMO)
       210                         -0.3321823              -9.0391 (LUMO)
       211                         -0.3200285              -8.7084
       212                         -0.3200202              -8.7082
       213                         -0.3148674              -8.5680
       214                         -0.2883811              -7.8473
       215                         -0.2787793              -7.5860
       216                         -0.2524289              -6.8689
       217                         -0.2524224              -6.8688
       218                         -0.2523236              -6.8661
       219                         -0.2523224              -6.8660
       220                         -0.2509856              -6.8297
       ...                                ...                  ...
       476                          1.3336668              36.2909
      -------------------------------------------------------------
                  HL-Gap            0.0391062 Eh            1.0641 eV

Wiberg/Mayer (AO) data.
largest (>0.10) Wiberg bond orders for each atom

     #   Z sym  total        # sym  WBO       # sym  WBO       # sym  WBO
 ---------------------------------------------------------------------------
     1  30 Zn   2.002 --     7 N    0.460    43 N    0.460    28 N    0.458
                            21 N    0.458
     2   6 C    3.926 --     3 C    1.356    42 C    1.356    44 H    0.972
     3   6 C    3.923 --     2 C    1.356     7 N    1.235     4 C    1.171
     4   6 C    3.960 --     5 C    1.659     3 C    1.171    45 H    0.976
     5   6 C    3.964 --     4 C    1.659     6 C    1.171    46 H    0.975
     6   6 C    3.918 --     8 C    1.321     7 N    1.239     5 C    1.171
     7   7 N    3.293 --     6 C    1.239     3 C    1.235     1 Zn   0.460
     8   6 C    3.933 --    18 C    1.328     6 C    1.321     9 C    1.004
     9   6 C    3.987 --    10 C    1.381    16 C    1.381     8 C    1.004
                            13 C    0.104
    10   6 C    3.984 --    12 C    1.421     9 C    1.381    11 C    1.020
                            15 C    0.103
    11   6 C    3.995 --    10 C    1.020    49 H    0.986    48 H    0.975
                            47 H    0.973
    12   6 C    3.993 --    10 C    1.421    13 C    1.414    50 H    0.970
                            16 C    0.103
    13   6 C    3.988 --    15 C    1.414    12 C    1.414    14 C    1.020
                             9 C    0.104
    14   6 C    3.996 --    13 C    1.020    51 H    0.983    53 H    0.983
                            52 H    0.972
    15   6 C    3.993 --    16 C    1.421    13 C    1.414    54 H    0.970
                            10 C    0.103
    16   6 C    3.984 --    15 C    1.421     9 C    1.381    17 C    1.020
                            12 C    0.103
    17   6 C    3.995 --    16 C    1.020    56 H    0.986    57 H    0.975
                            55 H    0.973
    18   6 C    3.914 --     8 C    1.328    21 N    1.222    19 C    1.179
    19   6 C    3.960 --    20 C    1.644    18 C    1.179    58 H    0.975
    20   6 C    3.962 --    19 C    1.644    22 C    1.188    59 H    0.964
    21   7 N    3.297 --    22 C    1.262    18 C    1.222     1 Zn   0.458
    22   6 C    3.907 --    21 N    1.262    23 C    1.256    20 C    1.188
    23   6 C    3.939 --    22 C    1.256    24 C    1.256   149 C    1.183
    24   6 C    3.908 --    28 N    1.262    23 C    1.256    25 C    1.188
    25   6 C    3.962 --    26 C    1.644    24 C    1.188    60 H    0.964
    26   6 C    3.960 --    25 C    1.644    27 C    1.179    61 H    0.974
    27   6 C    3.914 --    29 C    1.328    28 N    1.222    26 C    1.179
    28   7 N    3.297 --    24 C    1.262    27 C    1.222     1 Zn   0.458
    29   6 C    3.933 --    27 C    1.328    39 C    1.321    30 C    1.004
    30   6 C    3.987 --    37 C    1.385    31 C    1.377    29 C    1.004
                            34 C    0.104
    31   6 C    3.985 --    33 C    1.425    30 C    1.377    32 C    1.020
                            36 C    0.102
    32   6 C    3.995 --    31 C    1.020    63 H    0.986    62 H    0.975
                            64 H    0.973
    33   6 C    3.993 --    31 C    1.425    34 C    1.409    65 H    0.971
                            37 C    0.103
    34   6 C    3.988 --    36 C    1.419    33 C    1.409    35 C    1.020
                            30 C    0.104
    35   6 C    3.996 --    34 C    1.020    67 H    0.986    66 H    0.978
                            68 H    0.974
    36   6 C    3.993 --    34 C    1.419    37 C    1.416    69 H    0.970
                            31 C    0.102
    37   6 C    3.985 --    36 C    1.416    30 C    1.385    38 C    1.020
                            33 C    0.103
    38   6 C    3.995 --    37 C    1.020    72 H    0.986    71 H    0.975
                            70 H    0.973
    39   6 C    3.918 --    29 C    1.321    43 N    1.239    40 C    1.171
    40   6 C    3.964 --    41 C    1.659    39 C    1.171    73 H    0.975
    41   6 C    3.960 --    40 C    1.659    42 C    1.170    74 H    0.976
    42   6 C    3.924 --     2 C    1.356    43 N    1.235    41 C    1.170
    43   7 N    3.292 --    39 C    1.239    42 C    1.235     1 Zn   0.460
    44   1 H    1.002 --     2 C    0.972
    45   1 H    0.998 --     4 C    0.976
    46   1 H    1.002 --     5 C    0.975
    47   1 H    1.008 --    11 C    0.973
    48   1 H    1.008 --    11 C    0.975
    49   1 H    1.004 --    11 C    0.986
    50   1 H    1.000 --    12 C    0.970
    51   1 H    1.005 --    14 C    0.983
    52   1 H    1.006 --    14 C    0.972
    53   1 H    1.005 --    14 C    0.983
    54   1 H    1.000 --    15 C    0.970
    55   1 H    1.009 --    17 C    0.973
    56   1 H    1.004 --    17 C    0.986
    57   1 H    1.007 --    17 C    0.975
    58   1 H    1.002 --    19 C    0.975
    59   1 H    1.008 --    20 C    0.964
    60   1 H    1.008 --    25 C    0.964
    61   1 H    1.002 --    26 C    0.974
    62   1 H    1.007 --    32 C    0.975
    63   1 H    1.004 --    32 C    0.986
    64   1 H    1.009 --    32 C    0.973
    65   1 H    0.999 --    33 C    0.971
    66   1 H    1.005 --    35 C    0.978
    67   1 H    1.004 --    35 C    0.986
    68   1 H    1.006 --    35 C    0.974
    69   1 H    1.000 --    36 C    0.970
    70   1 H    1.009 --    38 C    0.973
    71   1 H    1.007 --    38 C    0.975
    72   1 H    1.004 --    38 C    0.986
    73   1 H    1.002 --    40 C    0.975
    74   1 H    0.998 --    41 C    0.976
    75  30 Zn   2.002 --    81 N    0.460   117 N    0.460   102 N    0.458
                            95 N    0.458
    76   6 C    3.926 --    77 C    1.356   116 C    1.356   118 H    0.972
    77   6 C    3.923 --    76 C    1.356    81 N    1.235    78 C    1.171
    78   6 C    3.960 --    79 C    1.659    77 C    1.171   119 H    0.976
    79   6 C    3.964 --    78 C    1.659    80 C    1.171   120 H    0.975
    80   6 C    3.918 --    82 C    1.321    81 N    1.239    79 C    1.171
    81   7 N    3.293 --    80 C    1.239    77 C    1.235    75 Zn   0.460
    82   6 C    3.933 --    92 C    1.328    80 C    1.321    83 C    1.004
    83   6 C    3.987 --    84 C    1.381    90 C    1.381    82 C    1.004
                            87 C    0.104
    84   6 C    3.984 --    86 C    1.421    83 C    1.381    85 C    1.020
                            89 C    0.103
    85   6 C    3.995 --    84 C    1.020   123 H    0.986   122 H    0.975
                           121 H    0.973
    86   6 C    3.993 --    84 C    1.421    87 C    1.414   124 H    0.970
                            90 C    0.103
    87   6 C    3.988 --    89 C    1.414    86 C    1.414    88 C    1.020
                            83 C    0.104
    88   6 C    3.996 --    87 C    1.020   125 H    0.983   127 H    0.983
                           126 H    0.972
    89   6 C    3.993 --    90 C    1.421    87 C    1.414   128 H    0.970
                            84 C    0.103
    90   6 C    3.984 --    89 C    1.421    83 C    1.381    91 C    1.020
                            86 C    0.103
    91   6 C    3.995 --    90 C    1.020   130 H    0.986   131 H    0.975
                           129 H    0.973
    92   6 C    3.914 --    82 C    1.328    95 N    1.222    93 C    1.179
    93   6 C    3.960 --    94 C    1.644    92 C    1.179   132 H    0.975
    94   6 C    3.962 --    93 C    1.644    96 C    1.188   133 H    0.964
    95   7 N    3.297 --    96 C    1.262    92 C    1.222    75 Zn   0.458
    96   6 C    3.907 --    95 N    1.262    97 C    1.256    94 C    1.188
    97   6 C    3.939 --    96 C    1.256    98 C    1.256   150 C    1.183
    98   6 C    3.908 --   102 N    1.262    97 C    1.256    99 C    1.188
    99   6 C    3.962 --   100 C    1.644    98 C    1.188   134 H    0.964
   100   6 C    3.960 --    99 C    1.644   101 C    1.179   135 H    0.974
   101   6 C    3.914 --   103 C    1.328   102 N    1.222   100 C    1.179
   102   7 N    3.297 --    98 C    1.262   101 C    1.222    75 Zn   0.458
   103   6 C    3.933 --   101 C    1.328   113 C    1.321   104 C    1.004
   104   6 C    3.987 --   111 C    1.385   105 C    1.377   103 C    1.004
                           108 C    0.104
   105   6 C    3.985 --   107 C    1.425   104 C    1.377   106 C    1.020
                           110 C    0.102
   106   6 C    3.995 --   105 C    1.020   137 H    0.986   136 H    0.975
                           138 H    0.973
   107   6 C    3.993 --   105 C    1.425   108 C    1.409   139 H    0.971
                           111 C    0.103
   108   6 C    3.988 --   110 C    1.419   107 C    1.409   109 C    1.020
                           104 C    0.104
   109   6 C    3.996 --   108 C    1.020   141 H    0.986   140 H    0.978
                           142 H    0.974
   110   6 C    3.993 --   108 C    1.419   111 C    1.416   143 H    0.970
                           105 C    0.102
   111   6 C    3.985 --   110 C    1.416   104 C    1.385   112 C    1.020
                           107 C    0.103
   112   6 C    3.995 --   111 C    1.020   146 H    0.986   145 H    0.975
                           144 H    0.973
   113   6 C    3.918 --   103 C    1.321   117 N    1.239   114 C    1.171
   114   6 C    3.964 --   115 C    1.659   113 C    1.171   147 H    0.975
   115   6 C    3.960 --   114 C    1.659   116 C    1.170   148 H    0.976
   116   6 C    3.924 --    76 C    1.356   117 N    1.235   115 C    1.170
   117   7 N    3.292 --   113 C    1.239   116 C    1.235    75 Zn   0.460
   118   1 H    1.002 --    76 C    0.972
   119   1 H    0.998 --    78 C    0.976
   120   1 H    1.002 --    79 C    0.975
   121   1 H    1.008 --    85 C    0.973
   122   1 H    1.008 --    85 C    0.975
   123   1 H    1.004 --    85 C    0.986
   124   1 H    1.000 --    86 C    0.970
   125   1 H    1.005 --    88 C    0.983
   126   1 H    1.006 --    88 C    0.972
   127   1 H    1.005 --    88 C    0.983
   128   1 H    1.000 --    89 C    0.970
   129   1 H    1.009 --    91 C    0.973
   130   1 H    1.004 --    91 C    0.986
   131   1 H    1.007 --    91 C    0.975
   132   1 H    1.002 --    93 C    0.975
   133   1 H    1.008 --    94 C    0.964
   134   1 H    1.008 --    99 C    0.964
   135   1 H    1.002 --   100 C    0.974
   136   1 H    1.007 --   106 C    0.975
   137   1 H    1.004 --   106 C    0.986
   138   1 H    1.009 --   106 C    0.973
   139   1 H    0.999 --   107 C    0.971
   140   1 H    1.005 --   109 C    0.978
   141   1 H    1.004 --   109 C    0.986
   142   1 H    1.006 --   109 C    0.974
   143   1 H    1.000 --   110 C    0.970
   144   1 H    1.009 --   112 C    0.973
   145   1 H    1.007 --   112 C    0.975
   146   1 H    1.004 --   112 C    0.986
   147   1 H    1.002 --   114 C    0.975
   148   1 H    0.998 --   115 C    0.976
   149   6 C    3.934 --   150 C    2.574    23 C    1.183
   150   6 C    3.934 --   149 C    2.574    97 C    1.183
 ---------------------------------------------------------------------------

           -------------------------------------------------
          | TOTAL ENERGY             -225.523505688838 Eh   |
          | GRADIENT NORM               0.000323913755 Eh/α |
          | HOMO-LUMO GAP               1.064133435406 eV   |
           -------------------------------------------------

 * finished run on 2022/07/30 at 10:02:01.360
