   * xtb version 6.5.1 (b24c23e) compiled by 'conda@728c89f4b128' on 2022-07-12
          program call               : xtb Zn_Ph2Me_C8_3.xyz --gfn 1 --opt -T 48

   ID    Z sym.   atoms
    1   30 Zn     1, 69, 153
    2    6 C      2-6, 8-11, 13-31, 34-41, 70-74, 76-79, 81-99, 102-109,
                  137-152, 154-158, 160-163, 165-183, 186-193
    3    7 N      7, 12, 32, 33, 75, 80, 100, 101, 159, 164, 184, 185
    4    1 H      42-68, 110-136, 194-219

          :  Hamiltonian                  GFN1-xTB          :
 * total energy  :  -344.5877594 Eh     change       -0.2372076E-09 Eh
 * total energy  :  -345.0548885 Eh     change       -0.4671291E+00 Eh
 * total energy  :  -345.2097194 Eh     change       -0.1548310E+00 Eh
 * total energy  :  -345.2910155 Eh     change       -0.8129610E-01 Eh
 * total energy  :  -345.3623870 Eh     change       -0.7137145E-01 Eh
 * total energy  :  -345.4352804 Eh     change       -0.7289342E-01 Eh
 * total energy  :  -345.4923138 Eh     change       -0.5703343E-01 Eh
 * total energy  :  -345.5237479 Eh     change       -0.3143407E-01 Eh
 * total energy  :  -345.5482529 Eh     change       -0.2450499E-01 Eh
 * total energy  :  -345.5654456 Eh     change       -0.1719273E-01 Eh
 * total energy  :  -345.6452417 Eh     change       -0.1043790E-04 Eh
 * total energy  :  -345.6452518 Eh     change       -0.1004361E-04 Eh
 * total energy  :  -345.6452634 Eh     change       -0.1158142E-04 Eh
 * total energy  :  -345.6452753 Eh     change       -0.1188658E-04 Eh
 * total energy  :  -345.6452859 Eh     change       -0.1059290E-04 Eh
 * total energy  :  -345.6452948 Eh     change       -0.8946152E-05 Eh
 * total energy  :  -345.6453018 Eh     change       -0.7027545E-05 Eh
 * total energy  :  -345.6453071 Eh     change       -0.5316604E-05 Eh
 * total energy  :  -345.6453113 Eh     change       -0.4129496E-05 Eh
   *** GEOMETRY OPTIMIZATION CONVERGED AFTER 93 ITERATIONS ***

 final structure:
================
219
 xtb: 6.5.1 (b24c23e)
Zn          25.79627425592825        0.04648362693545       -0.08998316914068
C           22.38957074095538        0.14441467594909       -0.24186299927288
C           23.02853317365819        1.33402980071617        0.08696753292302
C           22.36478461124389        2.56949419737180        0.39620410557495
C           23.33038517892497        3.47741466335133        0.68563625437949
C           24.59735809603296        2.80966438765495        0.54651131822413
N           24.37857005341603        1.51158230531127        0.18839619800247
C           25.85134752734042        3.39079384535521        0.77038405186869
C           27.08346519628773        2.73805432480536        0.66511467939155
C           28.36754756185365        3.35791633100383        0.84236261497480
C           29.30671951214183        2.40033497515962        0.63311737822298
N           27.26794878516287        1.41911348179549        0.34396688948188
C           28.60746558410717        1.18811428326675        0.32197903247387
C           29.22930644941442       -0.04364879321312        0.03137801501419
C           28.56548438492678       -1.24557125198626       -0.28916773860495
C           29.22278549474585       -2.48142627016892       -0.59852394575092
C           28.25161310787744       -3.39221218231313       -0.86321735780000
C           26.98936593573184       -2.72233552626513       -0.71166951725915
C           25.73527153222672       -3.30650781341584       -0.91654479663073
C           25.70710709692109       -4.74903391469482       -1.26910303458386
C           25.19313358159432       -5.16287066685044       -2.49600641191804
C           25.16462133014579       -6.51337380558362       -2.83248016111006
C           24.59574349456061       -6.94491233694981       -4.15742807235916
C           25.64999560802524       -7.45095765484846       -1.92810355904760
C           26.16486318085662       -7.05334839470043       -0.69604952298753
C           26.69493764323030       -8.08304355670282        0.26515396332473
C           26.19340543186765       -5.70216150288952       -0.37362971449916
C           24.50260997671506       -2.64874720560804       -0.82106706877113
C           23.21282749097330       -3.26269741488372       -0.99472518101504
C           22.27996817767782       -2.29492217103832       -0.81134844327881
C           22.98673898465620       -1.08084690110222       -0.51343894082353
N           24.32955813555148       -1.32872788845347       -0.52321881558330
N           27.21898203979748       -1.41629879334651       -0.36769228609190
C           25.87425412390970        4.82552804919853        1.15502692439943
C           25.40647459338241        5.79930586048945        0.27350375732281
C           25.42438418168139        7.14282235212098        0.63101071150898
C           24.94373066165504        8.19459358760035       -0.33223054361990
C           25.91056461373758        7.50947526586563        1.88291701598539
C           26.37938436647781        6.54947264823162        2.77416306018826
C           26.87865386438259        6.95247570718279        4.13554101074293
C           26.36104380718855        5.20880881392571        2.40352916562635
H           21.30480197401862        0.17209927023820       -0.27806641036168
H           21.29517296966180        2.71066941100232        0.39628958191021
H           23.20103846778737        4.50724756729753        0.97805179770692
H           28.52746486164039        4.39665113606124        1.08300665695408
H           30.37962099889383        2.49946629238225        0.67877581923656
H           30.29158942825827       -2.62457352604941       -0.61476721944001
H           28.37674886910109       -4.42427253706230       -1.14888003834735
H           24.82874333278565       -4.42201477027067       -3.19938054888727
H           24.88741193505912       -7.96816864898600       -4.39366669503533
H           23.50491026100318       -6.89678128193652       -4.12775127805639
H           24.93985521338870       -6.28684116250424       -4.95630194054744
H           25.62869134067194       -8.50557476980188       -2.18314606129625
H           26.86952650301080       -7.64654794301910        1.24844940981406
H           25.99105601285948       -8.91022120073827        0.36746386235622
H           27.63923494919903       -8.48841977959386       -0.10459015600753
H           26.58001582989487       -5.38061371685721        0.58730709182991
H           23.04671740273734       -4.30474068913163       -1.21669134311523
H           21.20613591628341       -2.38547262904225       -0.86292542381141
H           25.04142269202304        5.50209853654884       -0.70361215354068
H           24.42397583411318        8.99441972793826        0.19623546780687
H           24.26994976900372        7.76521579739953       -1.07374495293768
H           25.79476892543086        8.63386793445663       -0.85770121150504
H           25.92401822286185        8.55691994079895        2.16647243322827
H           26.05358702029340        6.94034291115207        4.85154955587141
H           27.29484173155074        7.95987981004921        4.11469993283576
H           27.64384489218422        6.26090474862223        4.48881225310471
H           26.71280898971668        4.45009108739573        3.09417442941983
Zn          63.03231237281182        0.04682058308446       -0.06582882647722
C           66.43789604207660        0.17064441912307       -0.22206625548377
C           65.79442761018120       -0.48494708349431       -1.26496575540679
C           66.45316650087325       -1.13175175116318       -2.36514346774451
C           65.48414731722777       -1.66972599133963       -3.14743025189129
C           64.21999703150766       -1.34923094938725       -2.53930377012708
N           64.44393561332676       -0.63582166075809       -1.39827899889979
C           62.96408230548634       -1.73275231201191       -3.02480859515537
C           61.73496176091775       -1.44974735296855       -2.42109634836936
C           60.44853104272370       -1.80103735459503       -2.95630000700232
C           59.51328852140643       -1.32911577434902       -2.09310365325098
N           61.55576194040248       -0.76517547641579       -1.24821853217677
C           60.21712206126493       -0.68139428975363       -1.02507264962837
C           59.60023443246587       -0.04828780988260        0.07312824667838
C           60.26807620424536        0.60540945109068        1.12829890579409
C           59.61579267004739        1.25308925913683        2.22857888550892
C           60.59059752188912        1.76502397634473        3.02249582898333
C           61.85018280553827        1.43007923962268        2.41702770686201
C           63.10656155332786        1.79258985580769        2.91317427970157
C           63.14133558029129        2.53624310430376        4.19850049624336
C           63.65274826485920        3.83111597646688        4.24850797394760
C           63.68997461600893        4.53165534418896        5.45087208112013
C           64.25734572048064        5.92511717604976        5.49073312891665
C           63.21576095231143        3.92429802823010        6.60797326697692
C           62.70324289165303        2.62920409721280        6.57490378350708
C           62.18552515718115        1.99283800597170        7.83670821851599
C           62.66588039355972        1.94193880854824        5.36790560225939
C           64.33628795880945        1.51660379342280        2.30267469789816
C           65.62852764614796        1.86036427202490        2.83445033236185
C           66.55722062410359        1.41149964503214        1.95333233422143
C           65.84556672467883        0.77891238203998        0.87826575466659
N           64.50396206601332        0.85616604868883        1.12076348926080
N           61.61538009661637        0.72993658106009        1.26334645358686
C           62.93549396939249       -2.50717438384704       -4.29230581836734
C           63.39266881079404       -1.93330148127462       -5.47800521588451
C           63.36913015391197       -2.65415286945518       -6.66664666273850
C           63.83808327498167       -2.02348940300164       -7.95015940593460
C           62.88791302360433       -3.96048485201902       -6.66300601861292
C           62.42978836333491       -4.54760294522291       -5.48780569246704
C           61.93564169284323       -5.96918938347998       -5.48850738473613
C           62.45380179414123       -3.81495092855222       -4.30548662822700
H           67.52237611245471        0.19971199378711       -0.26490619807847
H           67.52205673029765       -1.16972307979708       -2.50669229513734
H           65.60937438475943       -2.24287792154224       -4.05220471968222
H           60.28448371172416       -2.32978734427694       -3.88148136420526
H           58.44014965244087       -1.40444469117761       -2.16865808935618
H           58.54757526608201        1.30879602869996        2.36625177560328
H           60.46988028298951        2.33112678412989        3.93213295956582
H           64.00873244809530        4.30002554209664        3.33757071082877
H           63.96348773323594        6.44099909904170        6.40476332821959
H           65.34829378943313        5.88380565638916        5.45541438126809
H           63.91468258453907        6.50482765315039        4.63277298021527
H           63.24426797277572        4.46386074181735        7.54912975603241
H           62.01846858976815        0.92506718809425        7.69585996685157
H           62.89301638665938        2.13324987450983        8.65515453679255
H           61.23919335556579        2.45433138799717        8.12691994047862
H           62.28119487422460        0.92854555891503        5.33105747549104
H           65.79905968593768        2.37011694850194        3.76922379315081
H           67.63128929259759        1.48917410015822        2.01913174802552
H           63.75384046484077       -0.91063761792706       -5.47001306739429
H           64.35586550404061       -2.75347314732172       -8.57318380041334
H           64.51035351236661       -1.18880154465555       -7.75130445246974
H           62.98149797953342       -1.64559331250516       -8.51301626494147
H           62.86989287979222       -4.52715434330454       -7.58836193897587
H           62.76423995291420       -6.64990497917625       -5.27967368399231
H           61.51523292104366       -6.23427833091671       -6.45881912243349
H           61.17499957831027       -6.11619804255287       -4.72143140425564
H           62.11035691410861       -4.26583588090277       -3.38075395274250
C           30.63359546596033       -0.07178358154345        0.05179372912743
C           31.85842659730003       -0.08922035221582        0.06181589412784
C           33.20072449686144       -0.10391306738193        0.06972516904426
C           34.43174902435182       -0.10993200888186        0.07068393094122
C           35.76937536205583       -0.11404311667297        0.07172733488504
C           37.00046004563333       -0.11507342937598        0.07107126570882
C           38.34265944009081       -0.11466332426729        0.07035996518986
C           39.56781343112031       -0.11139986203389        0.06873803018250
C           49.26010891946928       -0.08915555334616        0.09809547522793
C           50.48488232954112       -0.08759944589942        0.11229872811687
C           51.82777415732691       -0.08432406555453        0.12522366681678
C           53.05848756914214       -0.08417120690939        0.13477977356558
C           54.39685536140152       -0.08045514196656        0.13877008392650
C           55.62752413313085       -0.07755510280774        0.14009731289339
C           56.97060166897215       -0.07133858738613        0.12738612157368
C           58.19514292471586       -0.06188138472932        0.11119124215833
Zn          44.41356083318522       -0.10250551149063        0.06526708493886
C           40.97192927544287       -0.10879562168195        0.06660905853579
C           41.61419575408831        1.13956367439624       -0.06584496455915
C           40.93561817489049        2.39713643841129       -0.17148613433961
C           41.89083153042637        3.35394203435866       -0.29791774684588
C           43.16265441707044        2.68730648905818       -0.27751594382236
N           42.95738235252716        1.34190616437772       -0.12516583564455
C           44.40727810616992        3.31827751039004       -0.37649435191377
C           45.65435208118941        2.68859567440065       -0.30366502925606
C           46.92439662708735        3.34355064640247       -0.44730059513652
C           47.88299945910610        2.39123863132548       -0.31406880662971
N           45.86422517033868        1.35025865004939       -0.10281779755671
C           47.20846488663708        1.14532539412893       -0.09934293591834
C           47.85518888547973       -0.09366251456226        0.08560225270078
C           47.21317344329054       -1.33710865998946        0.25596839086359
C           47.89126080776550       -2.58167753894351        0.46742136734780
C           46.93600344067949       -3.54069416332018        0.57434979626321
C           45.66464086014103       -2.89034701866464        0.42174026546723
C           44.42027188316758       -3.52750155086064        0.47263503339941
C           44.42392534315805       -5.00374541498372        0.63725089240884
C           43.85494681503943       -5.58859686496533        1.76684898238395
C           43.85247334074055       -6.97139330345340        1.92180447679415
C           43.25478846395043       -7.59160175701178        3.15591104633698
C           44.42278919856586       -7.76884302248123        0.93515231285879
C           44.99338001312479       -7.19958163098981       -0.20037177901979
C           45.61760984434581       -8.07535159264992       -1.25311902165037
C           44.99393498486546       -5.81684411879288       -0.34215039276418
C           43.17319724047636       -2.90046505520052        0.38046959231701
C           41.90371023241244       -3.57173754345036        0.39298128256901
C           40.94495424704066       -2.61643457229332        0.28354860344053
C           41.61902959086059       -1.35538375763442        0.19207872706770
N           42.96298786965003       -1.55368923159179        0.24720700687753
N           45.87005328935814       -1.54884220807371        0.23952369149663
C           44.40408630941929        4.78958974065076       -0.58092201642402
C           44.96451817674158        5.63581644169746        0.37426526428089
C           44.96177083130576        7.01417650551101        0.18601603139393
C           45.58362092048478        7.91968267580392        1.21469615295170
C           44.39791821197076        7.54331402528242       -0.97061825457192
C           43.83498129790638        6.71126470913683       -1.93430050140516
C           43.24696732658658        7.29437460324107       -3.19093077350934
C           43.83980860874896        5.33550862917373       -1.73333153624037
H           39.86510718321941        2.52493377636519       -0.14565732208816
H           41.74872098772281        4.41904017836200       -0.38566147150436
H           47.06334161229988        4.39577575328230       -0.63653257569425
H           48.95337123372452        2.51283816733795       -0.36401304327148
H           48.96147121722798       -2.69823909188902        0.53117522949666
H           47.07728110492128       -4.59445908953441        0.75312972619140
H           43.42325445439546       -4.95617483280466        2.53497285143777
H           42.94249128449236       -8.61817217625640        2.96383999180036
H           43.99402138800806       -7.60472767334540        3.96011975913504
H           42.39297631866400       -7.01817906723568        3.49852530595892
H           44.42039318027344       -8.84805516891365        1.04907458842932
H           45.70869070244124       -7.54274712704794       -2.19974416252349
H           45.02172352209240       -8.97510359127191       -1.41014340432745
H           46.61665405133377       -8.38295657247807       -0.93605912617023
H           45.42227972137645       -5.36163410581138       -1.22850429226219
H           41.76504668946950       -4.63842967647338        0.46510640567635
H           39.87483385515989       -2.74759299073728        0.25871148818606
H           45.38830438836597        5.21271532609503        1.27854009414012
H           45.12128192966480        8.90672007308209        1.19517949239287
H           46.64947053629012        8.03901208863417        1.00678432564979
H           45.47913638145548        7.49978240395849        2.21539285172977
H           44.39370886667916        8.61786654100493       -1.12227760575407
H           42.78399744285360        8.26088870770959       -2.99002375400312
H           42.49885173182432        6.62586126334470       -3.61722266731993
H           44.03367586960567        7.44354759336551       -3.93411344064415
H           43.41484671851364        4.67586456723008       -2.48208364900468

          :  Hamiltonian                  GFN1-xTB          :
         :: total energy            -345.645311275853 Eh    ::
         :: gradient norm              0.000383478378 Eh/a0 ::
         :: HOMO-LUMO gap              0.992330354021 eV    ::
         :: SCC energy              -351.587830313381 Eh    ::
         :: repulsion energy           6.127196882766 Eh    ::

    * Orbital Energies and Occupations

         #    Occupation            Energy/Eh            Energy/eV
      -------------------------------------------------------------
         1        2.0000           -0.7580527             -20.6277
       ...           ...                  ...                  ...
       309        2.0000           -0.4177463             -11.3675
       310        2.0000           -0.4176371             -11.3645
       311        2.0000           -0.4175825             -11.3630
       312        2.0000           -0.4111959             -11.1892
       313        2.0000           -0.4056351             -11.0379
       314        2.0000           -0.4026806             -10.9575
       315        2.0000           -0.4009245             -10.9097
       316        2.0000           -0.3914143             -10.6509
       317        2.0000           -0.3902904             -10.6203
       318        2.0000           -0.3902304             -10.6187
       319        2.0000           -0.3808904             -10.3646
       320        2.0000           -0.3772654             -10.2659
       321        2.0000           -0.3726216             -10.1396 (HOMO)
       322                         -0.3361541              -9.1472 (LUMO)
       323                         -0.3290035              -8.9526
       324                         -0.3258661              -8.8673
       325                         -0.3233944              -8.8000
       326                         -0.3225413              -8.7768
       327                         -0.3224687              -8.7748
       328                         -0.3035792              -8.2608
       329                         -0.2956612              -8.0454
       330                         -0.2945892              -8.0162
       331                         -0.2899446              -7.8898
       332                         -0.2816594              -7.6643
       ...                                ...                  ...
       716                          1.6109174              43.8353
      -------------------------------------------------------------
                  HL-Gap            0.0364675 Eh            0.9923 eV

Wiberg/Mayer (AO) data.
largest (>0.10) Wiberg bond orders for each atom

     #   Z sym  total        # sym  WBO       # sym  WBO       # sym  WBO
 ---------------------------------------------------------------------------
     1  30 Zn   1.998 --    32 N    0.460     7 N    0.460    12 N    0.457
                            33 N    0.456
     2   6 C    3.926 --    31 C    1.357     3 C    1.357    42 H    0.971
     3   6 C    3.923 --     2 C    1.357     7 N    1.233     4 C    1.171
     4   6 C    3.960 --     5 C    1.658     3 C    1.171    43 H    0.976
     5   6 C    3.963 --     4 C    1.658     6 C    1.173    44 H    0.973
     6   6 C    3.918 --     8 C    1.313     7 N    1.244     5 C    1.173
     7   7 N    3.294 --     6 C    1.244     3 C    1.233     1 Zn   0.460
     8   6 C    3.933 --     9 C    1.327     6 C    1.313    34 C    1.024
     9   6 C    3.913 --     8 C    1.327    12 N    1.223    10 C    1.179
    10   6 C    3.960 --    11 C    1.646     9 C    1.179    45 H    0.974
    11   6 C    3.962 --    10 C    1.646    13 C    1.186    46 H    0.974
    12   7 N    3.297 --    13 C    1.265     9 C    1.223     1 Zn   0.457
    13   6 C    3.902 --    12 N    1.265    14 C    1.251    11 C    1.186
    14   6 C    3.938 --    15 C    1.252    13 C    1.251   137 C    1.195
    15   6 C    3.902 --    33 N    1.264    14 C    1.252    16 C    1.186
    16   6 C    3.962 --    17 C    1.646    15 C    1.186    47 H    0.974
    17   6 C    3.960 --    16 C    1.646    18 C    1.179    48 H    0.973
    18   6 C    3.913 --    19 C    1.326    33 N    1.223    17 C    1.179
    19   6 C    3.933 --    18 C    1.326    28 C    1.313    20 C    1.025
    20   6 C    3.988 --    21 C    1.403    27 C    1.390    19 C    1.025
                            24 C    0.103
    21   6 C    3.986 --    22 C    1.410    20 C    1.403    49 H    0.972
                            25 C    0.104
    22   6 C    3.988 --    24 C    1.423    21 C    1.410    23 C    1.019
                            27 C    0.103
    23   6 C    3.996 --    22 C    1.019    50 H    0.985    52 H    0.980
                            51 H    0.972
    24   6 C    3.988 --    22 C    1.423    25 C    1.408    53 H    0.972
                            20 C    0.103
    25   6 C    3.988 --    27 C    1.424    24 C    1.408    26 C    1.020
                            21 C    0.104
    26   6 C    3.996 --    25 C    1.020    54 H    0.985    55 H    0.979
                            56 H    0.973
    27   6 C    3.986 --    25 C    1.424    20 C    1.390    57 H    0.971
                            22 C    0.103
    28   6 C    3.918 --    19 C    1.313    32 N    1.245    29 C    1.173
    29   6 C    3.963 --    30 C    1.658    28 C    1.173    58 H    0.973
    30   6 C    3.960 --    29 C    1.658    31 C    1.172    59 H    0.976
    31   6 C    3.923 --     2 C    1.357    32 N    1.233    30 C    1.172
    32   7 N    3.294 --    28 C    1.245    31 C    1.233     1 Zn   0.460
    33   7 N    3.297 --    15 C    1.264    18 C    1.223     1 Zn   0.456
    34   6 C    3.988 --    41 C    1.399    35 C    1.395     8 C    1.024
                            38 C    0.103
    35   6 C    3.986 --    36 C    1.419    34 C    1.395    60 H    0.972
                            39 C    0.103
    36   6 C    3.988 --    35 C    1.419    38 C    1.413    37 C    1.020
                            41 C    0.104
    37   6 C    3.996 --    36 C    1.020    62 H    0.984    61 H    0.981
                            63 H    0.971
    38   6 C    3.989 --    39 C    1.417    36 C    1.413    64 H    0.972
                            34 C    0.103
    39   6 C    3.988 --    38 C    1.417    41 C    1.415    40 C    1.020
                            35 C    0.103
    40   6 C    3.996 --    39 C    1.020    66 H    0.983    67 H    0.983
                            65 H    0.971
    41   6 C    3.987 --    39 C    1.415    34 C    1.399    68 H    0.972
                            36 C    0.104
    42   1 H    1.002 --     2 C    0.971
    43   1 H    0.998 --     4 C    0.976
    44   1 H    1.005 --     5 C    0.973
    45   1 H    1.005 --    10 C    0.974
    46   1 H    1.002 --    11 C    0.974
    47   1 H    1.002 --    16 C    0.974
    48   1 H    1.005 --    17 C    0.973
    49   1 H    1.003 --    21 C    0.972
    50   1 H    1.004 --    23 C    0.985
    51   1 H    1.006 --    23 C    0.972
    52   1 H    1.005 --    23 C    0.980
    53   1 H    1.000 --    24 C    0.972
    54   1 H    1.004 --    26 C    0.985
    55   1 H    1.005 --    26 C    0.979
    56   1 H    1.006 --    26 C    0.973
    57   1 H    1.003 --    27 C    0.971
    58   1 H    1.005 --    29 C    0.973
    59   1 H    0.998 --    30 C    0.976
    60   1 H    1.003 --    35 C    0.972
    61   1 H    1.005 --    37 C    0.981
    62   1 H    1.004 --    37 C    0.984
    63   1 H    1.006 --    37 C    0.971
    64   1 H    1.000 --    38 C    0.972
    65   1 H    1.006 --    40 C    0.971
    66   1 H    1.004 --    40 C    0.983
    67   1 H    1.004 --    40 C    0.983
    68   1 H    1.003 --    41 C    0.972
    69  30 Zn   1.999 --   100 N    0.460    75 N    0.460    80 N    0.457
                           101 N    0.456
    70   6 C    3.927 --    99 C    1.357    71 C    1.357   110 H    0.971
    71   6 C    3.923 --    70 C    1.357    75 N    1.233    72 C    1.171
    72   6 C    3.960 --    73 C    1.658    71 C    1.171   111 H    0.976
    73   6 C    3.963 --    72 C    1.658    74 C    1.173   112 H    0.973
    74   6 C    3.918 --    76 C    1.314    75 N    1.244    73 C    1.173
    75   7 N    3.295 --    74 C    1.244    71 C    1.233    69 Zn   0.460
    76   6 C    3.934 --    77 C    1.326    74 C    1.314   102 C    1.024
    77   6 C    3.913 --    76 C    1.326    80 N    1.224    78 C    1.178
    78   6 C    3.960 --    79 C    1.647    77 C    1.178   113 H    0.973
    79   6 C    3.962 --    78 C    1.647    81 C    1.185   114 H    0.974
    80   7 N    3.298 --    81 C    1.263    77 C    1.224    69 Zn   0.457
    81   6 C    3.903 --    80 N    1.263    82 C    1.253    79 C    1.185
    82   6 C    3.939 --    83 C    1.254    81 C    1.253   152 C    1.191
    83   6 C    3.903 --   101 N    1.263    82 C    1.254    84 C    1.185
    84   6 C    3.962 --    85 C    1.647    83 C    1.185   115 H    0.974
    85   6 C    3.960 --    84 C    1.647    86 C    1.178   116 H    0.973
    86   6 C    3.913 --    87 C    1.326   101 N    1.224    85 C    1.178
    87   6 C    3.934 --    86 C    1.326    96 C    1.313    88 C    1.025
    88   6 C    3.988 --    89 C    1.403    95 C    1.391    87 C    1.025
                            92 C    0.103
    89   6 C    3.986 --    90 C    1.410    88 C    1.403   117 H    0.972
                            93 C    0.104
    90   6 C    3.988 --    92 C    1.423    89 C    1.410    91 C    1.019
                            95 C    0.103
    91   6 C    3.996 --    90 C    1.019   118 H    0.985   120 H    0.980
                           119 H    0.972
    92   6 C    3.988 --    90 C    1.423    93 C    1.408   121 H    0.972
                            88 C    0.103
    93   6 C    3.988 --    95 C    1.424    92 C    1.408    94 C    1.020
                            89 C    0.104
    94   6 C    3.996 --    93 C    1.020   122 H    0.985   123 H    0.979
                           124 H    0.973
    95   6 C    3.986 --    93 C    1.424    88 C    1.391   125 H    0.971
                            90 C    0.103
    96   6 C    3.918 --    87 C    1.313   100 N    1.244    97 C    1.173
    97   6 C    3.963 --    98 C    1.658    96 C    1.173   126 H    0.973
    98   6 C    3.960 --    97 C    1.658    99 C    1.171   127 H    0.976
    99   6 C    3.923 --    70 C    1.357   100 N    1.233    98 C    1.171
   100   7 N    3.295 --    96 C    1.244    99 C    1.233    69 Zn   0.460
   101   7 N    3.297 --    83 C    1.263    86 C    1.224    69 Zn   0.456
   102   6 C    3.988 --   109 C    1.399   103 C    1.395    76 C    1.024
                           106 C    0.103
   103   6 C    3.987 --   104 C    1.419   102 C    1.395   128 H    0.972
                           107 C    0.103
   104   6 C    3.988 --   103 C    1.419   106 C    1.413   105 C    1.020
                           109 C    0.104
   105   6 C    3.996 --   104 C    1.020   130 H    0.984   129 H    0.981
                           131 H    0.971
   106   6 C    3.989 --   107 C    1.418   104 C    1.413   132 H    0.972
                           102 C    0.103
   107   6 C    3.988 --   106 C    1.418   109 C    1.415   108 C    1.020
                           103 C    0.103
   108   6 C    3.996 --   107 C    1.020   134 H    0.983   135 H    0.983
                           133 H    0.971
   109   6 C    3.987 --   107 C    1.415   102 C    1.399   136 H    0.972
                           104 C    0.104
   110   1 H    1.002 --    70 C    0.971
   111   1 H    0.998 --    72 C    0.976
   112   1 H    1.005 --    73 C    0.973
   113   1 H    1.005 --    78 C    0.973
   114   1 H    1.002 --    79 C    0.974
   115   1 H    1.002 --    84 C    0.974
   116   1 H    1.005 --    85 C    0.973
   117   1 H    1.003 --    89 C    0.972
   118   1 H    1.004 --    91 C    0.985
   119   1 H    1.006 --    91 C    0.972
   120   1 H    1.005 --    91 C    0.980
   121   1 H    1.000 --    92 C    0.972
   122   1 H    1.004 --    94 C    0.985
   123   1 H    1.005 --    94 C    0.979
   124   1 H    1.006 --    94 C    0.973
   125   1 H    1.003 --    95 C    0.971
   126   1 H    1.006 --    97 C    0.973
   127   1 H    0.998 --    98 C    0.976
   128   1 H    1.003 --   103 C    0.972
   129   1 H    1.005 --   105 C    0.981
   130   1 H    1.004 --   105 C    0.984
   131   1 H    1.006 --   105 C    0.971
   132   1 H    1.000 --   106 C    0.972
   133   1 H    1.006 --   108 C    0.971
   134   1 H    1.004 --   108 C    0.983
   135   1 H    1.004 --   108 C    0.983
   136   1 H    1.003 --   109 C    0.972
   137   6 C    3.876 --   138 C    2.435    14 C    1.195   140 C    0.186
   138   6 C    3.933 --   137 C    2.435   139 C    1.346
   139   6 C    3.892 --   140 C    2.333   138 C    1.346   142 C    0.182
   140   6 C    3.924 --   139 C    2.333   141 C    1.371   137 C    0.186
   141   6 C    3.923 --   142 C    2.332   140 C    1.371   144 C    0.186
   142   6 C    3.892 --   141 C    2.332   143 C    1.347   139 C    0.182
   143   6 C    3.931 --   144 C    2.433   142 C    1.347
   144   6 C    3.876 --   143 C    2.433   154 C    1.197   141 C    0.186
   145   6 C    3.876 --   146 C    2.437   166 C    1.193   148 C    0.186
   146   6 C    3.931 --   145 C    2.437   147 C    1.343
   147   6 C    3.892 --   148 C    2.337   146 C    1.343   150 C    0.182
   148   6 C    3.923 --   147 C    2.337   149 C    1.367   145 C    0.186
   149   6 C    3.924 --   150 C    2.338   148 C    1.367   152 C    0.186
   150   6 C    3.891 --   149 C    2.338   151 C    1.342   147 C    0.182
   151   6 C    3.934 --   152 C    2.440   150 C    1.342
   152   6 C    3.876 --   151 C    2.440    82 C    1.191   149 C    0.186
   153  30 Zn   1.995 --   159 N    0.457   184 N    0.457   164 N    0.457
                           185 N    0.456
   154   6 C    3.926 --   155 C    1.250   183 C    1.249   144 C    1.197
   155   6 C    3.902 --   159 N    1.264   154 C    1.250   156 C    1.188
   156   6 C    3.960 --   157 C    1.643   155 C    1.188   194 H    0.974
   157   6 C    3.960 --   156 C    1.643   158 C    1.182   195 H    0.973
   158   6 C    3.910 --   160 C    1.320   159 N    1.224   157 C    1.182
   159   7 N    3.292 --   155 C    1.264   158 C    1.224   153 Zn   0.457
   160   6 C    3.929 --   161 C    1.320   158 C    1.320   186 C    1.025
   161   6 C    3.910 --   160 C    1.320   164 N    1.224   162 C    1.182
   162   6 C    3.961 --   163 C    1.643   161 C    1.182   196 H    0.973
   163   6 C    3.960 --   162 C    1.643   165 C    1.188   197 H    0.974
   164   7 N    3.292 --   165 C    1.263   161 C    1.224   153 Zn   0.457
   165   6 C    3.903 --   164 N    1.263   166 C    1.251   163 C    1.188
   166   6 C    3.926 --   167 C    1.251   165 C    1.251   145 C    1.193
   167   6 C    3.903 --   185 N    1.263   166 C    1.251   168 C    1.188
   168   6 C    3.960 --   169 C    1.643   167 C    1.188   198 H    0.974
   169   6 C    3.961 --   168 C    1.643   170 C    1.182   199 H    0.973
   170   6 C    3.910 --   171 C    1.320   185 N    1.225   169 C    1.182
   171   6 C    3.929 --   180 C    1.320   170 C    1.320   172 C    1.025
   172   6 C    3.988 --   173 C    1.400   179 C    1.393   171 C    1.025
                           176 C    0.103
   173   6 C    3.986 --   174 C    1.413   172 C    1.400   200 H    0.972
                           177 C    0.104
   174   6 C    3.988 --   176 C    1.419   173 C    1.413   175 C    1.020
                           179 C    0.103
   175   6 C    3.996 --   174 C    1.020   201 H    0.984   203 H    0.982
                           202 H    0.971
   176   6 C    3.988 --   174 C    1.419   177 C    1.411   204 H    0.972
                           172 C    0.103
   177   6 C    3.988 --   179 C    1.421   176 C    1.411   178 C    1.020
                           173 C    0.104
   178   6 C    3.996 --   177 C    1.020   205 H    0.984   206 H    0.981
                           207 H    0.972
   179   6 C    3.986 --   177 C    1.421   172 C    1.393   208 H    0.972
                           174 C    0.103
   180   6 C    3.910 --   171 C    1.320   184 N    1.224   181 C    1.182
   181   6 C    3.960 --   182 C    1.643   180 C    1.182   209 H    0.973
   182   6 C    3.960 --   181 C    1.643   183 C    1.188   210 H    0.974
   183   6 C    3.902 --   184 N    1.264   154 C    1.249   182 C    1.188
   184   7 N    3.292 --   183 C    1.264   180 C    1.224   153 Zn   0.457
   185   7 N    3.292 --   167 C    1.263   170 C    1.225   153 Zn   0.456
   186   6 C    3.988 --   187 C    1.399   193 C    1.395   160 C    1.025
                           190 C    0.103
   187   6 C    3.986 --   188 C    1.415   186 C    1.399   211 H    0.972
                           191 C    0.104
   188   6 C    3.988 --   190 C    1.417   187 C    1.415   189 C    1.020
                           193 C    0.103
   189   6 C    3.996 --   188 C    1.020   212 H    0.983   214 H    0.982
                           213 H    0.971
   190   6 C    3.988 --   188 C    1.417   191 C    1.413   215 H    0.972
                           186 C    0.103
   191   6 C    3.988 --   193 C    1.419   190 C    1.413   192 C    1.020
                           187 C    0.104
   192   6 C    3.996 --   191 C    1.020   217 H    0.984   216 H    0.982
                           218 H    0.971
   193   6 C    3.986 --   191 C    1.419   186 C    1.395   219 H    0.972
                           188 C    0.103
   194   1 H    1.002 --   156 C    0.974
   195   1 H    1.005 --   157 C    0.973
   196   1 H    1.005 --   162 C    0.973
   197   1 H    1.002 --   163 C    0.974
   198   1 H    1.002 --   168 C    0.974
   199   1 H    1.005 --   169 C    0.973
   200   1 H    1.003 --   173 C    0.972
   201   1 H    1.004 --   175 C    0.984
   202   1 H    1.006 --   175 C    0.971
   203   1 H    1.004 --   175 C    0.982
   204   1 H    1.000 --   176 C    0.972
   205   1 H    1.004 --   178 C    0.984
   206   1 H    1.005 --   178 C    0.981
   207   1 H    1.006 --   178 C    0.972
   208   1 H    1.003 --   179 C    0.972
   209   1 H    1.005 --   181 C    0.973
   210   1 H    1.002 --   182 C    0.974
   211   1 H    1.003 --   187 C    0.972
   212   1 H    1.004 --   189 C    0.983
   213   1 H    1.006 --   189 C    0.971
   214   1 H    1.004 --   189 C    0.982
   215   1 H    1.000 --   190 C    0.972
   216   1 H    1.004 --   192 C    0.982
   217   1 H    1.004 --   192 C    0.984
   218   1 H    1.006 --   192 C    0.971
   219   1 H    1.003 --   193 C    0.972
 ---------------------------------------------------------------------------

           -------------------------------------------------
          | TOTAL ENERGY             -345.645311275853 Eh   |
          | GRADIENT NORM               0.000383478378 Eh/α |
          | HOMO-LUMO GAP               0.992330354021 eV   |
           -------------------------------------------------

 * finished run on 2022/07/30 at 09:55:03.028
