   * xtb version 6.5.1 (b24c23e) compiled by 'conda@728c89f4b128' on 2022-07-12
          program call               : xtb Zn_H_C6_2.xyz --gfn 1 --opt -T 48

   ID    Z sym.   atoms
    1   30 Zn     1, 37
    2    6 C      2-6, 8-11, 13-18, 20-24, 38-42, 44-47, 49-54, 56-60, 73-78
    3    7 N      7, 12, 19, 25, 43, 48, 55, 61
    4    1 H      26-36, 62-72
########################################################################
[WARNING] Please study the warnings concerning your input carefully
-1- prog_main_parseArguments: Unknown option '-T' provided
########################################################################

          :  Hamiltonian                  GFN1-xTB          :
 * total energy  :  -134.9529515 Eh     change       -0.5309744E-09 Eh
 * total energy  :  -135.8380628 Eh     change       -0.8851113E+00 Eh
 * total energy  :  -135.9552634 Eh     change       -0.1172007E+00 Eh
 * total energy  :  -136.0073413 Eh     change       -0.5207787E-01 Eh
 * total energy  :  -136.0278144 Eh     change       -0.2047313E-01 Eh
 * total energy  :  -136.0379998 Eh     change       -0.1018538E-01 Eh
 * total energy  :  -136.0447342 Eh     change       -0.6734331E-02 Eh
 * total energy  :  -136.0497473 Eh     change       -0.5013146E-02 Eh
 * total energy  :  -136.0532957 Eh     change       -0.3548440E-02 Eh
 * total energy  :  -136.0557038 Eh     change       -0.2408037E-02 Eh
 * total energy  :  -136.0597682 Eh     change       -0.7635793E-04 Eh
 * total energy  :  -136.0598214 Eh     change       -0.5313388E-04 Eh
 * total energy  :  -136.0598598 Eh     change       -0.3837476E-04 Eh
 * total energy  :  -136.0598912 Eh     change       -0.3146814E-04 Eh
 * total energy  :  -136.0598994 Eh     change       -0.8141236E-05 Eh
 * total energy  :  -136.0599038 Eh     change       -0.4427950E-05 Eh
 * total energy  :  -136.0599118 Eh     change       -0.7968241E-05 Eh
 * total energy  :  -136.0599167 Eh     change       -0.4935774E-05 Eh
 * total energy  :  -136.0599213 Eh     change       -0.4610807E-05 Eh
   *** GEOMETRY OPTIMIZATION CONVERGED AFTER 25 ITERATIONS ***

 final structure:
================
78
 xtb: 6.5.1 (b24c23e)
Zn           6.49242493498566       -0.00889516576724       -0.00681147625783
C            3.06651845421140       -0.05269175743218       -0.05267235780274
C            3.71274751407853       -0.92206380512852       -0.92480138701063
C            3.06339316623029       -1.82745871712782       -1.83501482909366
C            4.04089406526534       -2.49192161653627       -2.50100943433104
C            5.29846509788828       -2.00075789282533       -2.00483278770622
N            5.06446199131528       -1.05227769627741       -1.05335872460615
C            6.55401218617022       -2.42631369302575       -2.42507691834543
C            7.78593569168749       -1.97726534565846       -1.96549592037553
C            9.06343822185248       -2.44767062197594       -2.42364633976271
C           10.01007665402292       -1.76499653399630       -1.73034019862430
N            7.97935969032078       -1.02032380782986       -1.00617939033831
C            9.31966111499357       -0.87117093887797       -0.84338409657886
C            9.94477522333921        0.02364695389993        0.04974556666253
C            9.27632141014085        0.91094919638944        0.91703237879840
C            9.91995984348630        1.82262204469912        1.82090498886693
C            8.93796180010042        2.49060633692095        2.47853032622816
C            7.68518329079022        1.99259294700672        1.98204127661506
N            7.92853979761627        1.03569047568098        1.03437496854175
C            6.42997459138348        2.41519618113337        2.40272004677223
C            5.19716594370088        1.95707152169655        1.95015686792547
C            3.91473261270514        2.41697273091872        2.41180545968786
C            2.97229203409815        1.72457422147774        1.72406341695194
C            3.66794723790759        0.83382796517338        0.83393393284033
N            5.01227087855011        0.99960683021533        0.99688403790988
H            1.98108286781918       -0.06695008686837       -0.06610979058352
H            1.99462376276228       -1.93107885024339       -1.94087543883487
H            3.93437332505030       -3.24927798900818       -3.26211340095412
H            6.57460996291341       -3.19301959154025       -3.19353744365024
H            9.20589366506447       -3.20405232297694       -3.17953921068769
H           11.08248623899002       -1.85103571615426       -1.80624696404178
H           10.98775976265235        1.92925179899870        1.93016393394543
H            9.04035827473267        3.25364118066336        3.23432840453538
H            6.40999518321043        3.18506979831087        3.16807533330369
H            3.76853019371134        3.17391954030644        3.16672602363577
H            1.89878312637968        1.80016006008426        1.80215563417215
Zn          22.57349138388393        0.01147295273145       -0.00110041419915
C           25.99941998154354        0.07262404913842        0.00013587733409
C           25.35394451238464        1.30292399516493       -0.06120743755159
C           26.00412670928079        2.58475773392889       -0.12464952448785
C           25.02724139846093        3.52498566139932       -0.17198897133485
C           23.76918609428298        2.82853620824514       -0.13718084992247
N           24.00234293808805        1.48653773714771       -0.07099215604709
C           22.51401212055406        3.42684002454700       -0.16370561877423
C           21.28157216080335        2.78621955999577       -0.12757564533115
C           20.00450883443201        3.44332585670630       -0.15182486113236
C           19.05710309593114        2.47244811398305       -0.09948447810490
N           21.08714893527550        1.43295788308619       -0.06214676135051
C           19.74661151211296        1.21400878811730       -0.04391200250778
C           19.12113684405843       -0.04857835720064        0.01354070680716
C           19.78918639803492       -1.28888172499264        0.05945620518529
C           19.14459813063980       -2.57106549218934        0.11407235054878
C           20.12585204933682       -3.50840683934510        0.15244715655234
C           21.37913502576104       -2.80679128108392        0.12204872835028
N           21.13679666134478       -1.46109137748431        0.06419603044558
C           22.63386803691268       -3.40331911398459        0.15072058537462
C           23.86705761595280       -2.76058106702285        0.12601708861418
C           25.14905495376851       -3.41216459983429        0.15993555755790
C           26.09210786115641       -2.43771495721721        0.11864565424613
C           25.39723400224679       -1.17943836304474        0.05852942765453
N           24.05277843130125       -1.41096270071246        0.06535220193808
H           27.08486480329502        0.09161000972022        0.00145017751550
H           27.07299724615030        2.73201182455009       -0.13154444181569
H           25.13452282211726        4.59729163975013       -0.22549077124076
H           22.49419624485459        4.51109409775986       -0.21665681824904
H           19.86286265076325        4.51158596766100       -0.20237921831100
H           17.98475750339733        2.58782031251381       -0.09918032646765
H           18.07669358122535       -2.72277922139792        0.12174758881462
H           20.02260640210158       -4.58134258408601        0.19802175143214
H           22.65308678185827       -4.48784247052507        0.19872899642959
H           25.29452201331937       -4.48017939583404        0.20921953541005
H           27.16553919250115       -2.54678695026405        0.12726182262708
C           15.14665626618467       -0.04320190269932        0.05991202723443
C           13.91918503037575       -0.01676226600607        0.07543737272693
C           12.57421194500646        0.00233518601081        0.07318477240469
C           11.35080579377326        0.02531083994831        0.07045146592965
C           16.49165106874053       -0.05564735934227        0.04667300246538
C           17.71516015665956       -0.06531705216330        0.03115772542249

          :  Hamiltonian                  GFN1-xTB          :
         :: total energy            -136.059921309329 Eh    ::
         :: gradient norm              0.000981410009 Eh/a0 ::
         :: HOMO-LUMO gap              1.223956301042 eV    ::
         :: SCC energy              -138.318912568933 Eh    ::
         :: repulsion energy           2.323687954559 Eh    ::

    * Orbital Energies and Occupations

         #    Occupation            Energy/Eh            Energy/eV
      -------------------------------------------------------------
         1        2.0000           -0.7578559             -20.6223
       ...           ...                  ...                  ...
       113        2.0000           -0.4203735             -11.4389
       114        2.0000           -0.4203728             -11.4389
       115        2.0000           -0.4196541             -11.4194
       116        2.0000           -0.4196537             -11.4194
       117        2.0000           -0.4195469             -11.4165
       118        2.0000           -0.4188226             -11.3967
       119        2.0000           -0.4187960             -11.3960
       120        2.0000           -0.4140052             -11.2657
       121        2.0000           -0.4104945             -11.1701
       122        2.0000           -0.3914201             -10.6511
       123        2.0000           -0.3914184             -10.6510
       124        2.0000           -0.3851529             -10.4805
       125        2.0000           -0.3777950             -10.2803 (HOMO)
       126                         -0.3328154              -9.0564 (LUMO)
       127                         -0.3249130              -8.8413
       128                         -0.3238315              -8.8119
       129                         -0.3238294              -8.8118
       130                         -0.2938779              -7.9968
       131                         -0.2900501              -7.8927
       132                         -0.2730750              -7.4307
       133                         -0.2578140              -7.0155
       134                         -0.2209954              -6.0136
       135                         -0.2209940              -6.0136
       136                         -0.2027079              -5.5160
       ...                                ...                  ...
       268                          1.5844214              43.1143
      -------------------------------------------------------------
                  HL-Gap            0.0449796 Eh            1.2240 eV

Wiberg/Mayer (AO) data.
largest (>0.10) Wiberg bond orders for each atom

     #   Z sym  total        # sym  WBO       # sym  WBO       # sym  WBO
 ---------------------------------------------------------------------------
     1  30 Zn   1.998 --    25 N    0.461     7 N    0.460    12 N    0.456
                            19 N    0.456
     2   6 C    3.933 --    24 C    1.358     3 C    1.358    26 H    0.972
     3   6 C    3.922 --     2 C    1.358     7 N    1.238     4 C    1.166
     4   6 C    3.960 --     5 C    1.665     3 C    1.166    27 H    0.976
     5   6 C    3.963 --     4 C    1.665     6 C    1.167    28 H    0.976
     6   6 C    3.919 --     8 C    1.355     7 N    1.239     5 C    1.167
     7   7 N    3.298 --     6 C    1.239     3 C    1.238     1 Zn   0.460
     8   6 C    3.940 --     9 C    1.365     6 C    1.355    29 H    0.971
     9   6 C    3.914 --     8 C    1.365    12 N    1.220    10 C    1.173
    10   6 C    3.959 --    11 C    1.654     9 C    1.173    30 H    0.976
    11   6 C    3.962 --    10 C    1.654    13 C    1.180    31 H    0.974
    12   7 N    3.301 --    13 C    1.268     9 C    1.220     1 Zn   0.456
    13   6 C    3.903 --    12 N    1.268    14 C    1.255    11 C    1.180
    14   6 C    3.945 --    15 C    1.258    13 C    1.255    76 C    1.188
    15   6 C    3.903 --    19 N    1.267    14 C    1.258    16 C    1.180
    16   6 C    3.962 --    17 C    1.654    15 C    1.180    32 H    0.974
    17   6 C    3.959 --    16 C    1.654    18 C    1.172    33 H    0.976
    18   6 C    3.914 --    20 C    1.365    19 N    1.221    17 C    1.172
    19   7 N    3.300 --    15 C    1.267    18 C    1.221     1 Zn   0.456
    20   6 C    3.939 --    18 C    1.365    21 C    1.355    34 H    0.972
    21   6 C    3.919 --    20 C    1.355    25 N    1.239    22 C    1.167
    22   6 C    3.963 --    23 C    1.665    21 C    1.167    35 H    0.976
    23   6 C    3.960 --    22 C    1.665    24 C    1.166    36 H    0.976
    24   6 C    3.922 --     2 C    1.358    25 N    1.238    23 C    1.166
    25   7 N    3.298 --    21 C    1.239    24 C    1.238     1 Zn   0.461
    26   1 H    1.002 --     2 C    0.972
    27   1 H    0.998 --     4 C    0.976
    28   1 H    0.998 --     5 C    0.976
    29   1 H    1.002 --     8 C    0.971
    30   1 H    0.998 --    10 C    0.976
    31   1 H    1.002 --    11 C    0.974
    32   1 H    1.002 --    16 C    0.974
    33   1 H    0.998 --    17 C    0.976
    34   1 H    1.002 --    20 C    0.972
    35   1 H    0.998 --    22 C    0.976
    36   1 H    0.998 --    23 C    0.976
    37  30 Zn   1.998 --    61 N    0.461    43 N    0.460    48 N    0.456
                            55 N    0.456
    38   6 C    3.933 --    60 C    1.358    39 C    1.358    62 H    0.972
    39   6 C    3.922 --    38 C    1.358    43 N    1.238    40 C    1.166
    40   6 C    3.960 --    41 C    1.665    39 C    1.166    63 H    0.976
    41   6 C    3.963 --    40 C    1.665    42 C    1.167    64 H    0.976
    42   6 C    3.919 --    44 C    1.355    43 N    1.239    41 C    1.167
    43   7 N    3.298 --    42 C    1.239    39 C    1.238    37 Zn   0.460
    44   6 C    3.940 --    45 C    1.365    42 C    1.355    65 H    0.971
    45   6 C    3.914 --    44 C    1.365    48 N    1.220    46 C    1.173
    46   6 C    3.959 --    47 C    1.654    45 C    1.173    66 H    0.976
    47   6 C    3.962 --    46 C    1.654    49 C    1.180    67 H    0.974
    48   7 N    3.301 --    49 C    1.268    45 C    1.220    37 Zn   0.456
    49   6 C    3.903 --    48 N    1.268    50 C    1.255    47 C    1.180
    50   6 C    3.945 --    51 C    1.257    49 C    1.255    78 C    1.188
    51   6 C    3.903 --    55 N    1.267    50 C    1.257    52 C    1.180
    52   6 C    3.962 --    53 C    1.654    51 C    1.180    68 H    0.974
    53   6 C    3.959 --    52 C    1.654    54 C    1.172    69 H    0.976
    54   6 C    3.914 --    56 C    1.365    55 N    1.221    53 C    1.172
    55   7 N    3.300 --    51 C    1.267    54 C    1.221    37 Zn   0.456
    56   6 C    3.939 --    54 C    1.365    57 C    1.355    70 H    0.971
    57   6 C    3.919 --    56 C    1.355    61 N    1.239    58 C    1.167
    58   6 C    3.963 --    59 C    1.665    57 C    1.167    71 H    0.976
    59   6 C    3.960 --    58 C    1.665    60 C    1.166    72 H    0.976
    60   6 C    3.922 --    38 C    1.358    61 N    1.238    59 C    1.166
    61   7 N    3.298 --    57 C    1.239    60 C    1.238    37 Zn   0.461
    62   1 H    1.002 --    38 C    0.972
    63   1 H    0.998 --    40 C    0.976
    64   1 H    0.998 --    41 C    0.976
    65   1 H    1.002 --    44 C    0.971
    66   1 H    0.998 --    46 C    0.976
    67   1 H    1.002 --    47 C    0.974
    68   1 H    1.002 --    52 C    0.974
    69   1 H    0.998 --    53 C    0.976
    70   1 H    1.002 --    56 C    0.971
    71   1 H    0.998 --    58 C    0.976
    72   1 H    0.998 --    59 C    0.976
    73   6 C    3.925 --    74 C    2.374    77 C    1.330    76 C    0.190
    74   6 C    3.925 --    73 C    2.374    75 C    1.330    78 C    0.190
    75   6 C    3.935 --    76 C    2.454    74 C    1.330
    76   6 C    3.890 --    75 C    2.454    14 C    1.188    73 C    0.190
    77   6 C    3.935 --    78 C    2.454    73 C    1.330
    78   6 C    3.890 --    77 C    2.454    50 C    1.188    74 C    0.190
 ---------------------------------------------------------------------------

           -------------------------------------------------
          | TOTAL ENERGY             -136.059921309329 Eh   |
          | GRADIENT NORM               0.000981410009 Eh/α |
          | HOMO-LUMO GAP               1.223956301042 eV   |
           -------------------------------------------------

 * finished run on 2022/07/30 at 07:00:00.069
