   * xtb version 6.5.1 (b24c23e) compiled by 'conda@728c89f4b128' on 2022-07-12
          program call               : xtb Py_C4_3.xyz --gfn 1 --opt -T 48

   ID    Z sym.   atoms
    1    6 C      1-5, 7-10, 12-16, 18-23, 25-28, 30-35, 56-60, 62-65, 67-71,
                  73-78, 80-83, 85-90, 111-123, 125-128, 130-134, 136-141,
                  143-146, 148-153
    2    7 N      6, 11, 17, 24, 29, 36, 61, 66, 72, 79, 84, 91, 124, 129,
                  135, 142, 147, 154
    3    1 H      37-55, 92-110, 155-172

          :  Hamiltonian                  GFN1-xTB          :
 * total energy  :  -293.5562577 Eh     change       -0.1814300E-07 Eh
 * total energy  :  -293.7763091 Eh     change       -0.2200514E+00 Eh
 * total energy  :  -293.8705774 Eh     change       -0.9426832E-01 Eh
 * total energy  :  -293.9115700 Eh     change       -0.4099262E-01 Eh
 * total energy  :  -293.9329428 Eh     change       -0.2137278E-01 Eh
 * total energy  :  -293.9495502 Eh     change       -0.1660743E-01 Eh
 * total energy  :  -293.9623117 Eh     change       -0.1276143E-01 Eh
 * total energy  :  -293.9758138 Eh     change       -0.1350214E-01 Eh
 * total energy  :  -293.9940431 Eh     change       -0.1822932E-01 Eh
 * total energy  :  -294.0179008 Eh     change       -0.2385766E-01 Eh
 * total energy  :  -294.4098513 Eh     change       -0.1692978E-04 Eh
 * total energy  :  -294.4099130 Eh     change       -0.6169328E-04 Eh
 * total energy  :  -294.4099319 Eh     change       -0.1888284E-04 Eh
 * total energy  :  -294.4099654 Eh     change       -0.3348096E-04 Eh
 * total energy  :  -294.4100054 Eh     change       -0.4001762E-04 Eh
 * total energy  :  -294.4100419 Eh     change       -0.3649407E-04 Eh
 * total energy  :  -294.4100824 Eh     change       -0.4045061E-04 Eh
 * total energy  :  -294.4101065 Eh     change       -0.2412075E-04 Eh
 * total energy  :  -294.4101108 Eh     change       -0.4340931E-05 Eh
   *** GEOMETRY OPTIMIZATION CONVERGED AFTER 82 ITERATIONS ***

 final structure:
================
172
 xtb: 6.5.1 (b24c23e)
C           23.13179225693467        0.06070853933808        0.05098414438409
C           23.74312340550656        1.28631792607237        0.28097615350288
C           23.09433536246769        2.53493596960674        0.49471177005267
C           24.05902710114528        3.48381012133201        0.68413480103002
C           25.32849434453101        2.84344112203517        0.60058733052324
N           25.08712731336595        1.52272450118151        0.34990105674775
C           26.59305720852089        3.43143095590128        0.71513782416924
C           26.62348396047685        4.88632420926555        0.99810433082119
C           27.19806094193699        5.78633485124998        0.10167381025068
C           27.19390957995538        7.13845385642682        0.40570671232176
N           26.66804388049070        7.62815752709135        1.52385360037618
C           26.12214031418835        6.77668118102100        2.38572190878222
C           26.07276769905726        5.40881085225037        2.16773690784494
C           27.80866557101457        2.75679244094650        0.58246805369664
C           29.10687025887209        3.38425625156852        0.75329172132093
C           30.02711586273587        2.41744387817953        0.55811498179585
N           27.96227891985950        1.43246737377739        0.30597914915481
C           29.28995475726102        1.20004498891900        0.27829232410886
C           29.92551597897592       -0.03239557421495        0.02460023432686
C           29.28814612013478       -1.26273152730513       -0.22330641029014
C           29.93045724746517       -2.49651056800944       -0.50953246506662
C           28.96172409281609       -3.44300562573917       -0.69782463308567
C           27.69655905923743       -2.81674193462787       -0.52219969765911
N           27.94600724596829       -1.49899063863780       -0.24325509842490
C           26.43262255314465       -3.40462708772541       -0.64009282827202
C           26.39533685995960       -4.85464611941774       -0.94110911680540
C           26.96446268606378       -5.79198114094216       -0.07941179800500
C           26.89812370269664       -7.13762573572254       -0.40495641169899
N           26.31757661694400       -7.58754279369651       -1.51269323036284
C           25.77483903883996       -6.70074721571122       -2.34101361196095
C           25.78661323109579       -5.33612904024626       -2.10002611579878
C           25.21634891116059       -2.72816724700512       -0.49748105236208
C           23.91138954185432       -3.36768563504223       -0.56847672807753
C           22.99827974906770       -2.39492163388535       -0.37591958056168
C           23.74395364766512       -1.16451855331555       -0.17716948214800
N           25.07636278892348       -1.40463329294379       -0.24926264924147
H           22.04650776665731        0.07089622240873        0.05273110910414
H           22.02532717350304        2.67625427407980        0.49483422726646
H           23.91085374444631        4.53720701255367        0.85815581568949
H           25.81021333319055        0.82192264465791        0.22646231080254
H           27.62732991916286        5.43348491757335       -0.82838707962670
H           27.63067087787472        7.85917473865760       -0.27937385718631
H           25.70424474231133        7.20646072882866        3.29146417434627
H           25.62728405841306        4.75138989031386        2.90503719098692
H           29.26967535584850        4.42038950391077        1.00182913086060
H           31.10180782065961        2.49299713842743        0.60147439796488
H           30.99846565261711       -2.63108207158576       -0.56897177902599
H           29.10748304839484       -4.48136465551545       -0.94702185783993
H           27.22547940497239       -0.80197733565731       -0.08617832623243
H           27.43533227150736       -5.47363175760273        0.84310813370553
H           27.32946219024178       -7.88614071377285        0.25334096539540
H           25.30992687860564       -7.09838925511767       -3.23841431817727
H           25.34313125167717       -4.64924920621406       -2.81089571884556
H           23.74219926294979       -4.42012694067621       -0.72951109976369
H           21.92251367434539       -2.47237329162339       -0.35644302091761
C           56.78623233612027       -0.07008684606206        0.02129077581711
C           56.17511045181629       -1.26967435358783       -0.31966581641376
C           56.82393080722711       -2.48107491637328       -0.69002491131113
C           55.85951433527382       -3.41682244566569       -0.93731083860582
C           54.59023829651804       -2.80976259249277       -0.71577576910157
N           54.83134582296589       -1.51471826525418       -0.35493466870506
C           53.32569615348265       -3.39252675337057       -0.85521429118212
C           53.29417490349233       -4.82179998916228       -1.24658225379974
C           52.69367171873543       -5.23154656481478       -2.43650376562627
C           52.69913622119156       -6.57712538745032       -2.76801876442581
N           53.25008667591464       -7.51061933126767       -1.99872860678266
C           53.82009149457223       -7.12933731803499       -0.86036932451270
C           53.87005030636286       -5.80760467974423       -0.44598650976785
C           52.11040019965260       -2.73259686414024       -0.65908911982473
C           50.81330628182703       -3.37864211598388       -0.75093505719239
C           49.89282225853893       -2.42471892458192       -0.50077083323158
N           51.95635361212259       -1.41798346285209       -0.34023012765637
C           50.62887471544360       -1.20045268786912       -0.24972084941621
C           49.99280164254263        0.02696560041189        0.02611466240637
C           50.63040935661005        1.24984186285414        0.30841249729691
C           49.98894337604651        2.49103152444266        0.56231172568478
C           50.95761383398164        3.42354677128829        0.81135322849361
C           52.22161629445186        2.77662908888396        0.72543648911721
N           51.97206908741747        1.46738077042197        0.40943097032331
C           53.48503081176781        3.35177355524833        0.89971946862169
C           53.52056182542295        4.78555153769012        1.27000662598469
C           52.92574690465514        5.24711276780263        2.44420286673540
C           52.99146489468205        6.59731064663460        2.75034904218373
N           53.59518316571607        7.48850646631711        1.97062358750820
C           54.16210379039030        7.05776872054621        0.84799792542287
C           54.15284265625796        5.72769121797916        0.45889316564606
C           54.70125246980138        2.67649355537333        0.75133056223847
C           56.00531759561927        3.27695664489870        0.98750757452343
C           56.91859942424772        2.31749492421135        0.73746997475172
C           56.17372521979423        1.12889661214287        0.36091345985760
N           54.84162084903992        1.37931122719072        0.38981120844567
H           57.87151753008023       -0.08023500389927        0.02000769618756
H           57.89273003143782       -2.60527593238443       -0.76064790242173
H           56.00800973303063       -4.43662452582567       -1.25324807469407
H           54.10824479705655       -0.83386598597654       -0.14814172911727
H           52.24366605287665       -4.50373146864923       -3.10106221156712
H           52.24280456018528       -6.91944462060372       -3.69229217620741
H           54.25796512185468       -7.91514064019685       -0.25165911328928
H           54.33561961394487       -5.54542530697145        0.49690603095847
H           50.65170331236159       -4.42285578552125       -0.96401321259560
H           48.81872752984997       -2.51600971864606       -0.47644753320444
H           48.92159829946129        2.64232313981655        0.54905732840311
H           50.81274995532797        4.46975955386193        1.02582729575607
H           52.69200708079570        0.76641449458806        0.26805874123653
H           52.43557407873976        4.55520131609023        3.11878087666297
H           52.54103199404002        6.97854346501731        3.66185890016627
H           54.64533014398808        7.80954403992523        0.23085402248781
H           54.61639212993691        5.42493564165455       -0.47235916263715
H           56.17385402557131        4.29077617219130        1.31299851701363
H           57.99389455489837        2.37527947387467        0.80115140957295
C           32.55395615667261       -0.05398432281918        0.00135330195992
C           31.33182624333363       -0.04702071947326        0.01322035918108
C           33.90338670058887       -0.05476174310350       -0.01181247191317
C           35.12558861418356       -0.04664555196027       -0.02540768468920
C           46.01527232748499        0.06598767102087       -0.00368750582587
C           44.79301549091204        0.06142872036586       -0.01710798198314
C           47.36459013327933        0.06158499454620        0.00827780856861
C           48.58667858867955        0.04568537873259        0.01855826091739
C           36.53106558532938       -0.03512455041948       -0.03761340844825
C           37.16958135259604       -1.26921525440152        0.18988319814704
C           36.53248656505343       -2.50913127990865        0.45473826516315
C           37.50600763512659       -3.45761944800242        0.61126900605082
C           38.76667552633619       -2.82426654233884        0.43748463700503
N           38.51256415601328       -1.50126202925378        0.19286584892514
C           40.03273096943642       -3.41622245126882        0.52113033986428
C           40.06214736876332       -4.87601227384838        0.77958316419183
C           40.65631005747511       -5.39297234297038        1.93040193944189
C           40.65467781697992       -6.76366300057992        2.13465360445003
N           40.11326561590325       -7.62308754327226        1.27730132702020
C           39.54842427025175       -7.13908803944372        0.17593073960644
C           39.49513673300739       -5.78456258490478       -0.11333502187502
C           41.25140059904655       -2.74903523099423        0.38776595809138
C           42.54379157663558       -3.41008936138409        0.42283273422521
C           43.47175369827846       -2.44349413154303        0.26704132403200
N           41.41517944611041       -1.41142672526073        0.19338242775802
C           42.74478013846200       -1.19672484471050        0.12897509094709
C           43.38772310307226        0.04712899055989       -0.03116290199557
C           42.74876229643071        1.28926951281301       -0.20829540721115
C           43.38514959397543        2.54849848889424       -0.35874157119832
C           42.41164745148114        3.49371478437566       -0.53454056486645
C           41.15178547432196        2.83616912096838       -0.50309169729190
N           41.40607448246769        1.50728128337578       -0.29340128402825
C           39.88626692418724        3.42086549085540       -0.63483119923470
C           39.85979414736502        4.88053255570216       -0.89429420479138
C           39.25760656183799        5.76532975493756       -0.00053697906055
C           39.26147570550611        7.12151476596963       -0.28609533440923
N           39.81265627871990        7.62925250723710       -1.38385914087655
C           40.38626581053404        6.79261095273394       -2.24255680523034
C           40.43787984413420        5.42218691653487       -2.04195434106679
C           38.66722097088650        2.74749180250926       -0.54239100013252
C           37.37477503691568        3.38226147088117       -0.73022601138295
C           36.44688527660512        2.41866164191233       -0.55652258416698
C           37.17397547836979        1.19611616854302       -0.27598895034664
N           38.50341740888025        1.42083555388773       -0.28305121373685
H           35.46545051036126       -2.64758416980400        0.52133213240140
H           37.36523405478728       -4.50209667669092        0.83652291223496
H           39.22739530268532       -0.79667246511021        0.04502948526156
H           41.09944862739378       -4.72888933565931        2.66286915958655
H           41.10689489936702       -7.18915781410334        3.02573990359208
H           39.11822032300864       -7.86611119538250       -0.50671165751682
H           39.03457567230021       -5.43718529084908       -1.03056660808121
H           42.69772740806489       -4.47076823460493        0.53712797625206
H           44.54530912915299       -2.53925237218612        0.23795124572614
H           44.45173237656154        2.70288739307075       -0.33125864725246
H           42.55168382138497        4.55428809760575       -0.66526608366795
H           40.69175424102333        0.79156476499062       -0.21099004461020
H           38.80647472264794        5.39776118870956        0.91334785546408
H           38.80252574338805        7.83031471219113        0.39691958957057
H           40.82485895585138        7.23681767829043       -3.13135332267376
H           40.90576236797026        4.77747045980692       -2.77649904197937
H           37.22039026475787        4.42069806973358       -0.97431511560786
H           35.37334279420341        2.49896230406998       -0.61662511885717

          :  Hamiltonian                  GFN1-xTB          :
         :: total energy            -294.410110832850 Eh    ::
         :: gradient norm              0.000628529549 Eh/a0 ::
         :: HOMO-LUMO gap              0.863324343700 eV    ::
         :: SCC energy              -299.253869789078 Eh    ::
         :: repulsion energy           4.992250686753 Eh    ::

    * Orbital Energies and Occupations

         #    Occupation            Energy/Eh            Energy/eV
      -------------------------------------------------------------
         1        2.0000           -0.8112557             -22.0754
       ...           ...                  ...                  ...
       257        2.0000           -0.4214792             -11.4690
       258        2.0000           -0.4214210             -11.4675
       259        2.0000           -0.4212482             -11.4627
       260        2.0000           -0.4212026             -11.4615
       261        2.0000           -0.4207717             -11.4498
       262        2.0000           -0.4205085             -11.4426
       263        2.0000           -0.4204049             -11.4398
       264        2.0000           -0.4058207             -11.0429
       265        2.0000           -0.4049705             -11.0198
       266        2.0000           -0.4048811             -11.0174
       267        2.0000           -0.3964449             -10.7878
       268        2.0000           -0.3901488             -10.6165
       269        2.0000           -0.3824570             -10.4072 (HOMO)
       270        0.0000           -0.3507304              -9.5439 (LUMO)
       271                         -0.3413238              -9.2879
       272                         -0.3385254              -9.2117
       273                         -0.3381464              -9.2014
       274                         -0.3378257              -9.1927
       275                         -0.3333461              -9.0708
       276                         -0.3107827              -8.4568
       277                         -0.3037681              -8.2660
       278                         -0.3010350              -8.1916
       279                         -0.2833784              -7.7111
       280                         -0.2828894              -7.6978
       ...                                ...                  ...
       576                          1.5101921              41.0944
      -------------------------------------------------------------
                  HL-Gap            0.0317266 Eh            0.8633 eV

Wiberg/Mayer (AO) data.
largest (>0.10) Wiberg bond orders for each atom

     #   Z sym  total        # sym  WBO       # sym  WBO       # sym  WBO
 ---------------------------------------------------------------------------
     1   6 C    3.926 --    35 C    1.367     2 C    1.347    37 H    0.971
     2   6 C    3.902 --     1 C    1.347     3 C    1.229     6 N    1.169
     3   6 C    3.954 --     4 C    1.596     2 C    1.229    38 H    0.976
     4   6 C    3.959 --     3 C    1.596     5 C    1.234    39 H    0.974
     5   6 C    3.897 --     7 C    1.302     4 C    1.234     6 N    1.178
     6   7 N    3.470 --     5 C    1.178     2 C    1.169    40 H    0.873
     7   6 C    3.939 --    14 C    1.336     5 C    1.302     8 C    1.029
     8   6 C    3.986 --    13 C    1.393     9 C    1.393     7 C    1.029
                            11 N    0.107
     9   6 C    3.987 --    10 C    1.442     8 C    1.393    41 H    0.973
                            12 C    0.109
    10   6 C    3.972 --     9 C    1.442    11 N    1.415    42 H    0.972
                            13 C    0.108
    11   7 N    3.030 --    12 C    1.416    10 C    1.415     8 C    0.107
    12   6 C    3.972 --    13 C    1.442    11 N    1.416    43 H    0.972
                             9 C    0.109
    13   6 C    3.986 --    12 C    1.442     8 C    1.393    44 H    0.973
                            10 C    0.108
    14   6 C    3.915 --     7 C    1.336    17 N    1.285    15 C    1.124
    15   6 C    3.966 --    16 C    1.711    14 C    1.124    45 H    0.973
    16   6 C    3.964 --    15 C    1.711    18 C    1.127    46 H    0.974
    17   7 N    3.022 --    18 C    1.344    14 C    1.285
    18   6 C    3.909 --    17 N    1.344    19 C    1.255    16 C    1.127
    19   6 C    3.936 --    18 C    1.255    20 C    1.253   112 C    1.188
    20   6 C    3.885 --    19 C    1.253    21 C    1.248    24 N    1.189
    21   6 C    3.959 --    22 C    1.584    20 C    1.248    47 H    0.975
    22   6 C    3.954 --    21 C    1.584    23 C    1.240    48 H    0.974
    23   6 C    3.899 --    25 C    1.309    22 C    1.240    24 N    1.166
    24   7 N    3.474 --    20 C    1.189    23 C    1.166    49 H    0.873
    25   6 C    3.925 --    32 C    1.320    23 C    1.309    26 C    1.032
    26   6 C    3.986 --    27 C    1.392    31 C    1.391    25 C    1.032
                            29 N    0.106
    27   6 C    3.985 --    28 C    1.442    26 C    1.392    50 H    0.973
                            30 C    0.108
    28   6 C    3.972 --    27 C    1.442    29 N    1.416    51 H    0.972
                            31 C    0.108
    29   7 N    3.029 --    28 C    1.416    30 C    1.415    26 C    0.106
    30   6 C    3.972 --    31 C    1.443    29 N    1.415    52 H    0.972
                            27 C    0.108
    31   6 C    3.986 --    30 C    1.443    26 C    1.391    53 H    0.973
                            28 C    0.108
    32   6 C    3.929 --    25 C    1.320    36 N    1.318    33 C    1.117
    33   6 C    3.967 --    34 C    1.724    32 C    1.117    54 H    0.973
    34   6 C    3.966 --    33 C    1.724    35 C    1.116    55 H    0.976
    35   6 C    3.928 --     1 C    1.367    36 N    1.299    34 C    1.116
    36   7 N    3.012 --    32 C    1.318    35 C    1.299
    37   1 H    1.002 --     1 C    0.971
    38   1 H    0.997 --     3 C    0.976
    39   1 H    1.004 --     4 C    0.974
    40   1 H    0.986 --     6 N    0.873
    41   1 H    1.004 --     9 C    0.973
    42   1 H    1.013 --    10 C    0.972
    43   1 H    1.013 --    12 C    0.972
    44   1 H    1.004 --    13 C    0.973
    45   1 H    1.004 --    15 C    0.973
    46   1 H    1.003 --    16 C    0.974
    47   1 H    1.002 --    21 C    0.975
    48   1 H    1.004 --    22 C    0.974
    49   1 H    0.987 --    24 N    0.873
    50   1 H    1.004 --    27 C    0.973
    51   1 H    1.013 --    28 C    0.972
    52   1 H    1.013 --    30 C    0.972
    53   1 H    1.004 --    31 C    0.973
    54   1 H    1.005 --    33 C    0.973
    55   1 H    0.998 --    34 C    0.976
    56   6 C    3.926 --    90 C    1.366    57 C    1.347    92 H    0.971
    57   6 C    3.902 --    56 C    1.347    58 C    1.229    61 N    1.169
    58   6 C    3.954 --    59 C    1.596    57 C    1.229    93 H    0.976
    59   6 C    3.959 --    58 C    1.596    60 C    1.234    94 H    0.974
    60   6 C    3.897 --    62 C    1.302    59 C    1.234    61 N    1.178
    61   7 N    3.470 --    60 C    1.178    57 C    1.169    95 H    0.873
    62   6 C    3.939 --    69 C    1.335    60 C    1.302    63 C    1.030
    63   6 C    3.986 --    68 C    1.393    64 C    1.392    62 C    1.030
                            66 N    0.106
    64   6 C    3.987 --    65 C    1.442    63 C    1.392    96 H    0.973
                            67 C    0.109
    65   6 C    3.972 --    64 C    1.442    66 N    1.415    97 H    0.972
                            68 C    0.108
    66   7 N    3.029 --    67 C    1.416    65 C    1.415    63 C    0.106
    67   6 C    3.972 --    68 C    1.442    66 N    1.416    98 H    0.972
                            64 C    0.109
    68   6 C    3.986 --    67 C    1.442    63 C    1.393    99 H    0.973
                            65 C    0.108
    69   6 C    3.915 --    62 C    1.335    72 N    1.286    70 C    1.124
    70   6 C    3.966 --    71 C    1.711    69 C    1.124   100 H    0.974
    71   6 C    3.964 --    70 C    1.711    73 C    1.127   101 H    0.974
    72   7 N    3.021 --    73 C    1.344    69 C    1.286
    73   6 C    3.909 --    72 N    1.344    74 C    1.255    71 C    1.127
    74   6 C    3.936 --    73 C    1.255    75 C    1.252   118 C    1.189
    75   6 C    3.885 --    74 C    1.252    76 C    1.249    79 N    1.189
    76   6 C    3.959 --    77 C    1.583    75 C    1.249   102 H    0.975
    77   6 C    3.954 --    76 C    1.583    78 C    1.241   103 H    0.974
    78   6 C    3.899 --    80 C    1.308    77 C    1.241    79 N    1.166
    79   7 N    3.474 --    75 C    1.189    78 C    1.166   104 H    0.873
    80   6 C    3.925 --    87 C    1.320    78 C    1.308    81 C    1.032
    81   6 C    3.986 --    82 C    1.391    86 C    1.391    80 C    1.032
                            84 N    0.106
    82   6 C    3.985 --    83 C    1.442    81 C    1.391   105 H    0.973
                            85 C    0.108
    83   6 C    3.972 --    82 C    1.442    84 N    1.415   106 H    0.972
                            86 C    0.108
    84   7 N    3.028 --    83 C    1.415    85 C    1.415    81 C    0.106
    85   6 C    3.972 --    86 C    1.443    84 N    1.415   107 H    0.972
                            82 C    0.108
    86   6 C    3.986 --    85 C    1.443    81 C    1.391   108 H    0.973
                            83 C    0.108
    87   6 C    3.929 --    80 C    1.320    91 N    1.318    88 C    1.117
    88   6 C    3.967 --    89 C    1.723    87 C    1.117   109 H    0.973
    89   6 C    3.966 --    88 C    1.723    90 C    1.116   110 H    0.976
    90   6 C    3.928 --    56 C    1.366    91 N    1.300    89 C    1.116
    91   7 N    3.012 --    87 C    1.318    90 C    1.300
    92   1 H    1.002 --    56 C    0.971
    93   1 H    0.997 --    58 C    0.976
    94   1 H    1.004 --    59 C    0.974
    95   1 H    0.986 --    61 N    0.873
    96   1 H    1.004 --    64 C    0.973
    97   1 H    1.013 --    65 C    0.972
    98   1 H    1.013 --    67 C    0.972
    99   1 H    1.004 --    68 C    0.973
   100   1 H    1.004 --    70 C    0.974
   101   1 H    1.003 --    71 C    0.974
   102   1 H    1.002 --    76 C    0.975
   103   1 H    1.004 --    77 C    0.974
   104   1 H    0.987 --    79 N    0.873
   105   1 H    1.004 --    82 C    0.973
   106   1 H    1.013 --    83 C    0.972
   107   1 H    1.013 --    85 C    0.972
   108   1 H    1.004 --    86 C    0.973
   109   1 H    1.005 --    88 C    0.973
   110   1 H    0.998 --    89 C    0.976
   111   6 C    3.932 --   112 C    2.474   113 C    1.309
   112   6 C    3.923 --   111 C    2.474    19 C    1.188   114 C    0.198
   113   6 C    3.929 --   114 C    2.473   111 C    1.309
   114   6 C    3.924 --   113 C    2.473   119 C    1.191   112 C    0.198
   115   6 C    3.929 --   116 C    2.472   117 C    1.309
   116   6 C    3.924 --   115 C    2.472   137 C    1.191   118 C    0.198
   117   6 C    3.932 --   118 C    2.473   115 C    1.309
   118   6 C    3.923 --   117 C    2.473    74 C    1.189   116 C    0.198
   119   6 C    3.924 --   153 C    1.255   120 C    1.249   114 C    1.191
   120   6 C    3.886 --   121 C    1.253   119 C    1.249   124 N    1.189
   121   6 C    3.956 --   122 C    1.578   120 C    1.253   155 H    0.975
   122   6 C    3.955 --   121 C    1.578   123 C    1.246   156 H    0.974
   123   6 C    3.894 --   125 C    1.299   122 C    1.246   124 N    1.167
   124   7 N    3.471 --   120 C    1.189   123 C    1.167   157 H    0.874
   125   6 C    3.927 --   132 C    1.338   123 C    1.299   126 C    1.029
   126   6 C    3.986 --   131 C    1.393   127 C    1.392   125 C    1.029
                           129 N    0.107
   127   6 C    3.987 --   128 C    1.442   126 C    1.392   158 H    0.973
                           130 C    0.109
   128   6 C    3.972 --   127 C    1.442   129 N    1.415   159 H    0.972
                           131 C    0.108
   129   7 N    3.030 --   130 C    1.416   128 C    1.415   126 C    0.107
   130   6 C    3.972 --   131 C    1.442   129 N    1.416   160 H    0.972
                           127 C    0.109
   131   6 C    3.986 --   130 C    1.442   126 C    1.393   161 H    0.973
                           128 C    0.108
   132   6 C    3.917 --   125 C    1.338   135 N    1.284   133 C    1.124
   133   6 C    3.966 --   134 C    1.710   132 C    1.124   162 H    0.973
   134   6 C    3.964 --   133 C    1.710   136 C    1.128   163 H    0.974
   135   7 N    3.009 --   136 C    1.344   132 C    1.284
   136   6 C    3.909 --   135 N    1.344   137 C    1.255   134 C    1.128
   137   6 C    3.924 --   136 C    1.255   138 C    1.249   116 C    1.191
   138   6 C    3.886 --   139 C    1.253   137 C    1.249   142 N    1.189
   139   6 C    3.956 --   140 C    1.577   138 C    1.253   164 H    0.975
   140   6 C    3.955 --   139 C    1.577   141 C    1.246   165 H    0.974
   141   6 C    3.894 --   143 C    1.298   140 C    1.246   142 N    1.167
   142   7 N    3.471 --   138 C    1.189   141 C    1.167   166 H    0.874
   143   6 C    3.927 --   150 C    1.338   141 C    1.298   144 C    1.029
   144   6 C    3.986 --   149 C    1.392   145 C    1.392   143 C    1.029
                           147 N    0.106
   145   6 C    3.987 --   146 C    1.442   144 C    1.392   167 H    0.973
                           148 C    0.109
   146   6 C    3.972 --   145 C    1.442   147 N    1.415   168 H    0.972
                           149 C    0.108
   147   7 N    3.030 --   148 C    1.416   146 C    1.415   144 C    0.106
   148   6 C    3.972 --   149 C    1.442   147 N    1.416   169 H    0.972
                           145 C    0.109
   149   6 C    3.986 --   148 C    1.442   144 C    1.392   170 H    0.973
                           146 C    0.108
   150   6 C    3.917 --   143 C    1.338   154 N    1.284   151 C    1.124
   151   6 C    3.966 --   152 C    1.711   150 C    1.124   171 H    0.973
   152   6 C    3.964 --   151 C    1.711   153 C    1.128   172 H    0.974
   153   6 C    3.909 --   154 N    1.344   119 C    1.255   152 C    1.128
   154   7 N    3.009 --   153 C    1.344   150 C    1.284
   155   1 H    1.002 --   121 C    0.975
   156   1 H    1.004 --   122 C    0.974
   157   1 H    0.987 --   124 N    0.874
   158   1 H    1.004 --   127 C    0.973
   159   1 H    1.013 --   128 C    0.972
   160   1 H    1.013 --   130 C    0.972
   161   1 H    1.004 --   131 C    0.973
   162   1 H    1.004 --   133 C    0.973
   163   1 H    1.003 --   134 C    0.974
   164   1 H    1.002 --   139 C    0.975
   165   1 H    1.004 --   140 C    0.974
   166   1 H    0.987 --   142 N    0.874
   167   1 H    1.004 --   145 C    0.973
   168   1 H    1.013 --   146 C    0.972
   169   1 H    1.013 --   148 C    0.972
   170   1 H    1.004 --   149 C    0.973
   171   1 H    1.005 --   151 C    0.973
   172   1 H    1.003 --   152 C    0.974
 ---------------------------------------------------------------------------

           -------------------------------------------------
          | TOTAL ENERGY             -294.410110832850 Eh   |
          | GRADIENT NORM               0.000628529549 Eh/α |
          | HOMO-LUMO GAP               0.863324343700 eV   |
           -------------------------------------------------

 * finished run on 2022/07/27 at 05:27:31.483
