   * xtb version 6.5.1 (b24c23e) compiled by 'conda@728c89f4b128' on 2022-07-12
          program call               : xtb Co_H_C6_3.xyz --gfn 1 --opt -T 48

   ID    Z sym.   atoms
    1   27 Co     1, 37, 85
    2    6 C      2-6, 8-11, 13-18, 20-24, 38-42, 44-47, 49-54, 56-60, 73-84,
                  86-90, 92-95, 97-102, 104-108
    3    7 N      7, 12, 19, 25, 43, 48, 55, 61, 91, 96, 103, 109
    4    1 H      26-36, 62-72, 110-119

          :  Hamiltonian                  GFN1-xTB          :
 * total energy  :  -217.1720903 Eh     change        0.1034834E-09 Eh
 * total energy  :  -217.4191517 Eh     change       -0.2470614E+00 Eh
 * total energy  :  -217.5053554 Eh     change       -0.8620370E-01 Eh
 * total energy  :  -217.5411740 Eh     change       -0.3581863E-01 Eh
 * total energy  :  -217.5567824 Eh     change       -0.1560837E-01 Eh
 * total energy  :  -217.5723370 Eh     change       -0.1555458E-01 Eh
 * total energy  :  -217.5910446 Eh     change       -0.1870765E-01 Eh
 * total energy  :  -217.6146192 Eh     change       -0.2357461E-01 Eh
 * total energy  :  -217.6466933 Eh     change       -0.3207408E-01 Eh
 * total energy  :  -217.6869276 Eh     change       -0.4023425E-01 Eh
 * total energy  :  -217.9820861 Eh     change       -0.8445249E-03 Eh
 * total energy  :  -217.9829564 Eh     change       -0.8703565E-03 Eh
 * total energy  :  -217.9835283 Eh     change       -0.5718957E-03 Eh
 * total energy  :  -217.9838559 Eh     change       -0.3276148E-03 Eh
 * total energy  :  -217.9839247 Eh     change       -0.6875255E-04 Eh
 * total energy  :  -217.9838939 Eh     change        0.3077481E-04 Eh
 * total energy  :  -217.9839317 Eh     change       -0.3781835E-04 Eh
 * total energy  :  -217.9839398 Eh     change       -0.8077319E-05 Eh
 * total energy  :  -217.9839446 Eh     change       -0.4805456E-05 Eh
   *** GEOMETRY OPTIMIZATION CONVERGED AFTER 53 ITERATIONS ***

 final structure:
================
119
 xtb: 6.5.1 (b24c23e)
Co          13.60364780785896       -0.02916401257083       -0.00348008158938
C           10.19792493328262        0.04085337905098       -0.11816736056955
C           10.86387617849042       -0.81481407999379       -0.96757610850882
C           10.19759358762278       -1.68539986184806       -1.89068670043322
C           11.16179615490985       -2.40355892986829       -2.51071156038434
C           12.41334048072105       -1.96221596639233       -1.97029464491372
N           12.22367276972793       -0.98474328882479       -1.02829765828982
C           13.63105780052678       -2.47148842525418       -2.36636312221313
C           14.83754878534332       -2.02569681564483       -1.87774372994438
C           16.09948507777857       -2.53560832076130       -2.32049520079892
C           17.05174405002809       -1.83756612296240       -1.65875745679918
N           15.01210809533429       -1.03059603476624       -0.94338881978487
C           16.36609637809793       -0.91071712063525       -0.81140900805356
C           17.03199862064479       -0.01363374750885        0.02667726613976
C           16.34343166018461        0.86067713394916        0.87023140745162
C           17.00555240237252        1.76595883108814        1.75858675616122
C           16.03587810794081        2.41176572638457        2.44758980189450
C           14.78673418199273        1.90151227595422        1.97030053679825
N           14.98638027760788        0.95204481051272        0.99450670756510
C           13.56748352818715        2.32307402797888        2.44886305683987
C           12.36014259190507        1.86418434217221        1.96850693870011
C           11.09323178332358        2.33523632434739        2.44427781756941
C           10.14623603332019        1.70646180163559        1.71098523102157
C           10.83857130646991        0.84712833921705        0.79659284512692
N           12.19633254217635        0.94497231464985        0.96489478757242
H            9.11546654474253        0.06905792528805       -0.16030121583877
H            9.12812217627422       -1.72786329844101       -2.02352858336274
H           11.06031929708619       -3.16499731529436       -3.26777035557884
H           13.63993126184615       -3.25613411026120       -3.11390042527006
H           16.21803170574136       -3.32191112837807       -3.04886775561468
H           18.12424805728578       -1.92695385873585       -1.72317321946435
H           18.07570678151136        1.87370225188424        1.83342810469424
H           16.13453462528645        3.16760562512949        3.21037947404695
H           13.55625323365774        3.06787025418341        3.23608731951787
H           10.97057841005015        3.05909133070482        3.23434805674381
H            9.07298354792914        1.79720636694574        1.76685774884310
Co          45.67014643114050       -0.00549612712764        0.00026935588341
C           49.07754048175413        0.04413473123373        0.03744881410821
C           48.40681568169917        1.24022709286972       -0.09141476737251
C           49.06791105589178        2.50557026043902       -0.21714040196014
C           48.09697050600513        3.44460168092792       -0.28981685863184
C           46.84682416396367        2.74963367492070       -0.20324088452445
N           47.04413127784243        1.39718628194680       -0.09560955102572
C           45.62541056303523        3.38697924074271       -0.18793045384058
C           44.42348224281218        2.72501740141011       -0.08373616486875
C           43.15954972075836        3.39523781299262       -0.04304853190379
C           42.21274995985993        2.43061984763598        0.02786330361207
N           44.25604273898711        1.36046035630757       -0.02884180028022
C           42.90315226739718        1.17738875516866        0.02508972296380
C           42.24280637516917       -0.05252623129198        0.02306820970805
C           42.93605168131834       -1.26377567630311        0.00023465611820
C           42.28011684632885       -2.53522480042244       -0.01591919412827
C           43.25426701607357       -3.47458429836364        0.00943443686507
C           44.49999997902456       -2.77061527382147        0.04325543109115
N           44.29422082854785       -1.41031234881961        0.02450593522135
C           45.72068151450924       -3.40090144376785        0.12295103073443
C           46.92298454463099       -2.72942733207778        0.16785818754996
C           48.19093713892102       -3.38945376275039        0.26785867985548
C           49.13448463033684       -2.42032455324548        0.25104900814746
C           48.43922944478486       -1.17230081440074        0.13679498648388
N           47.08220974555272       -1.36945695784050        0.09967526125697
H           50.16093294499834        0.06018866264261        0.05327299525630
H           50.13861121631540        2.63283161891051       -0.24248477653015
H           48.19307883275350        4.51447440097471       -0.38664142119246
H           45.61038302163792        4.46872259493332       -0.25211237924903
H           43.03598780051555        4.46619951892331       -0.06859063911571
H           41.14068378921144        2.53626290448065        0.07183928287707
H           41.21055701370666       -2.66920725825758       -0.03973610092830
H           43.16062083540537       -4.54888342642340        0.01147195031522
H           45.73647067621013       -4.48398332799510        0.15773777241937
H           48.31681833037880       -4.45828839402096        0.33845416537056
H           50.20744780475564       -2.51650171898893        0.30342969369962
C           22.23151788497048       -0.01275946507814        0.05075354409105
C           21.00235934904960       -0.00769742775842        0.04808025658354
C           19.65930513135980       -0.00494257911762        0.04366834784800
C           18.43486364096134       -0.00554150928969        0.03468750473867
C           23.57431305356682       -0.01642134676748        0.04460691908024
C           24.79907077815495       -0.01844055146479        0.03620310296800
C           38.27085525758811       -0.08093503252966        0.02702526934954
C           37.04220295700247       -0.08123079957952        0.01967328125536
C           35.69853366002052       -0.07610125788648        0.00819719084136
C           34.47430429221225       -0.06552808290533       -0.00379960043079
C           39.61485566271869       -0.07655147036679        0.02959018928890
C           40.83879222422718       -0.06991873366561        0.02990141108654
Co          29.63623835269615        0.01484639539269       -0.04985148661452
C           26.20076417133327       -0.01334202377680        0.01617758131808
C           26.88736073489007        0.90269519180587        0.81732229584782
C           26.22211574967310        1.84941512098294        1.65826523796586
C           27.19007777658991        2.58387698997270        2.25553301072738
C           28.43935905080938        2.07619471009055        1.77783451348821
N           28.24347181732734        1.03856094046682        0.89675657520394
C           29.65830177082552        2.57973700125422        2.17226577423147
C           30.86919815718361        2.08780231578880        1.73909089033378
C           32.12775785528031        2.60834521115559        2.17675432825310
C           33.08368866818036        1.86703290968843        1.56867220561745
N           31.04723367454740        1.04007888976924        0.86673273272012
C           32.40185302442381        0.90307759962877        0.76127682329051
C           33.07161538646034       -0.04446644200939       -0.01648881455519
C           32.38553889824484       -0.95803457358229       -0.81995241043509
C           33.05070227203944       -1.91033555094085       -1.65461844901858
C           32.08278468087649       -2.59218754045830       -2.31142925174469
C           30.83352470928297       -2.05489062055850       -1.86726876167349
N           31.02908851229502       -1.05259166963040       -0.94664789977920
C           29.61428570167264       -2.51061088126373       -2.31647584457993
C           28.40345296500952       -2.02385752343028       -1.87827487294679
C           27.14477259326649       -2.52774809397298       -2.33489944782766
C           26.18898782720517       -1.83477077123098       -1.67200375420424
C           26.87095144857485       -0.90989724759934       -0.82022782159336
N           28.22515663793644       -1.02764062202145       -0.94704299526286
H           25.15180028214143        1.92812424755171        1.76101498541442
H           27.08947697770506        3.39682308683638        2.95679877821467
H           29.66553281576495        3.40711209589195        2.87247982592980
H           32.24236234173684        3.43207918895546        2.86310419637811
H           34.15583986487856        1.94982048761575        1.64571879437483
H           34.12104063653216       -2.02229102011773       -1.71948741782198
H           32.18346477968230       -3.38802313253630       -3.03205919050924
H           29.60742545790716       -3.30777646018644       -3.05092122869038
H           27.03003426609971       -3.31221149235557       -3.06581493469974
H           25.11683736954158       -1.92503817515402       -1.74044818745791

          :  Hamiltonian                  GFN1-xTB          :
         :: total energy            -217.983944604194 Eh    ::
         :: gradient norm              0.000385118836 Eh/a0 ::
         :: HOMO-LUMO gap              0.000522210043 eV    ::
         :: SCC energy              -221.641882445950 Eh    ::
         :: repulsion energy           3.758684268078 Eh    ::

    * Orbital Energies and Occupations

         #    Occupation            Energy/Eh            Energy/eV
      -------------------------------------------------------------
         1        2.0000           -0.7749269             -21.0868
       ...           ...                  ...                  ...
       192        2.0000           -0.3986322             -10.8473
       193        2.0000           -0.3985283             -10.8445
       194        2.0000           -0.3984506             -10.8424
       195        1.9999           -0.3961236             -10.7791
       196        1.9998           -0.3956290             -10.7656
       197        1.9998           -0.3956047             -10.7650
       198        1.9998           -0.3954624             -10.7611
       199        1.9998           -0.3953916             -10.7592
       200        1.9998           -0.3952577             -10.7555
       201        1.9995           -0.3946061             -10.7378
       202        1.7174           -0.3883427             -10.5673
       203        1.1007           -0.3867177             -10.5231
       204        1.0963           -0.3867085             -10.5229 (HOMO)
       205        1.0872           -0.3866894             -10.5224 (LUMO)
       206                         -0.3458425              -9.4109
       207                         -0.3359899              -9.1427
       208                         -0.3319215              -9.0320
       209                         -0.3304926              -8.9932
       210                         -0.3297555              -8.9731
       211                         -0.3291078              -8.9555
       212                         -0.3084784              -8.3941
       213                         -0.3030175              -8.2455
       214                         -0.3010198              -8.1912
       215                         -0.3006419              -8.1809
       ...                                ...                  ...
       427                          1.5732525              42.8104
      -------------------------------------------------------------
                  HL-Gap            0.0000192 Eh            0.0005 eV

Wiberg/Mayer (AO) data.
largest (>0.10) Wiberg bond orders for each atom

     #   Z sym  total        # sym  WBO       # sym  WBO       # sym  WBO
 ---------------------------------------------------------------------------
     1  27 Co   2.987 --    25 N    0.634     7 N    0.634    12 N    0.629
                            19 N    0.629
     2   6 C    3.932 --     3 C    1.366    24 C    1.366    26 H    0.970
     3   6 C    3.924 --     2 C    1.366     7 N    1.208     4 C    1.170
     4   6 C    3.960 --     5 C    1.655     3 C    1.170    27 H    0.975
     5   6 C    3.962 --     4 C    1.655     6 C    1.171    28 H    0.975
     6   6 C    3.921 --     8 C    1.360     7 N    1.211     5 C    1.171
     7   7 N    3.349 --     6 C    1.211     3 C    1.208     1 Co   0.634
     8   6 C    3.938 --     9 C    1.376     6 C    1.360    29 H    0.970
     9   6 C    3.917 --     8 C    1.376    12 N    1.190    10 C    1.175
    10   6 C    3.957 --    11 C    1.645     9 C    1.175    30 H    0.975
    11   6 C    3.961 --    10 C    1.645    13 C    1.184    31 H    0.973
    12   7 N    3.350 --    13 C    1.239     9 C    1.190     1 Co   0.629
    13   6 C    3.902 --    14 C    1.259    12 N    1.239    11 C    1.184
    14   6 C    3.938 --    15 C    1.260    13 C    1.259    76 C    1.192
    15   6 C    3.903 --    14 C    1.260    19 N    1.239    16 C    1.184
    16   6 C    3.961 --    17 C    1.645    15 C    1.184    32 H    0.973
    17   6 C    3.957 --    16 C    1.645    18 C    1.175    33 H    0.975
    18   6 C    3.917 --    20 C    1.376    19 N    1.190    17 C    1.175
    19   7 N    3.350 --    15 C    1.239    18 C    1.190     1 Co   0.629
    20   6 C    3.937 --    18 C    1.376    21 C    1.360    34 H    0.970
    21   6 C    3.921 --    20 C    1.360    25 N    1.211    22 C    1.171
    22   6 C    3.962 --    23 C    1.655    21 C    1.171    35 H    0.975
    23   6 C    3.960 --    22 C    1.655    24 C    1.170    36 H    0.975
    24   6 C    3.924 --     2 C    1.366    25 N    1.208    23 C    1.170
    25   7 N    3.349 --    21 C    1.211    24 C    1.208     1 Co   0.634
    26   1 H    1.000 --     2 C    0.970
    27   1 H    0.997 --     4 C    0.975
    28   1 H    0.997 --     5 C    0.975
    29   1 H    1.000 --     8 C    0.970
    30   1 H    0.997 --    10 C    0.975
    31   1 H    1.002 --    11 C    0.973
    32   1 H    1.002 --    16 C    0.973
    33   1 H    0.997 --    17 C    0.975
    34   1 H    1.000 --    20 C    0.970
    35   1 H    0.997 --    22 C    0.975
    36   1 H    0.997 --    23 C    0.975
    37  27 Co   2.995 --    61 N    0.636    43 N    0.636    48 N    0.631
                            55 N    0.631
    38   6 C    3.935 --    60 C    1.367    39 C    1.366    62 H    0.970
    39   6 C    3.924 --    38 C    1.366    43 N    1.207    40 C    1.170
    40   6 C    3.960 --    41 C    1.656    39 C    1.170    63 H    0.975
    41   6 C    3.962 --    40 C    1.656    42 C    1.170    64 H    0.975
    42   6 C    3.921 --    44 C    1.361    43 N    1.209    41 C    1.170
    43   7 N    3.351 --    42 C    1.209    39 C    1.207    37 Co   0.636
    44   6 C    3.940 --    45 C    1.375    42 C    1.361    65 H    0.970
    45   6 C    3.917 --    44 C    1.375    48 N    1.191    46 C    1.175
    46   6 C    3.957 --    47 C    1.645    45 C    1.175    66 H    0.975
    47   6 C    3.961 --    46 C    1.645    49 C    1.184    67 H    0.973
    48   7 N    3.352 --    49 C    1.236    45 C    1.191    37 Co   0.631
    49   6 C    3.903 --    50 C    1.263    48 N    1.236    47 C    1.184
    50   6 C    3.941 --    51 C    1.263    49 C    1.263    84 C    1.187
    51   6 C    3.903 --    50 C    1.263    55 N    1.236    52 C    1.184
    52   6 C    3.961 --    53 C    1.645    51 C    1.184    68 H    0.973
    53   6 C    3.957 --    52 C    1.645    54 C    1.175    69 H    0.975
    54   6 C    3.917 --    56 C    1.375    55 N    1.191    53 C    1.175
    55   7 N    3.352 --    51 C    1.236    54 C    1.191    37 Co   0.631
    56   6 C    3.940 --    54 C    1.375    57 C    1.361    70 H    0.970
    57   6 C    3.921 --    56 C    1.361    61 N    1.209    58 C    1.170
    58   6 C    3.962 --    59 C    1.656    57 C    1.170    71 H    0.975
    59   6 C    3.960 --    58 C    1.656    60 C    1.170    72 H    0.975
    60   6 C    3.924 --    38 C    1.367    61 N    1.207    59 C    1.170
    61   7 N    3.351 --    57 C    1.209    60 C    1.207    37 Co   0.636
    62   1 H    1.000 --    38 C    0.970
    63   1 H    0.997 --    40 C    0.975
    64   1 H    0.997 --    41 C    0.975
    65   1 H    1.000 --    44 C    0.970
    66   1 H    0.997 --    46 C    0.975
    67   1 H    1.001 --    47 C    0.973
    68   1 H    1.001 --    52 C    0.973
    69   1 H    0.997 --    53 C    0.975
    70   1 H    1.000 --    56 C    0.970
    71   1 H    0.997 --    58 C    0.975
    72   1 H    0.997 --    59 C    0.975
    73   6 C    3.921 --    74 C    2.356    77 C    1.343    76 C    0.189
    74   6 C    3.919 --    73 C    2.356    75 C    1.342    78 C    0.188
    75   6 C    3.932 --    76 C    2.440    74 C    1.342
    76   6 C    3.882 --    75 C    2.440    14 C    1.192    73 C    0.189
    77   6 C    3.927 --    78 C    2.436    73 C    1.343
    78   6 C    3.884 --    77 C    2.436    86 C    1.197    74 C    0.188
    79   6 C    3.919 --    80 C    2.362    83 C    1.337    82 C    0.188
    80   6 C    3.922 --    79 C    2.362    81 C    1.338    84 C    0.189
    81   6 C    3.928 --    82 C    2.442    80 C    1.338
    82   6 C    3.885 --    81 C    2.442    98 C    1.193    79 C    0.188
    83   6 C    3.934 --    84 C    2.447    79 C    1.337
    84   6 C    3.883 --    83 C    2.447    50 C    1.187    80 C    0.189
    85  27 Co   2.960 --    96 N    0.623   103 N    0.623   109 N    0.622
                            91 N    0.622
    86   6 C    3.923 --    87 C    1.256   108 C    1.255    78 C    1.197
    87   6 C    3.903 --    86 C    1.256    91 N    1.242    88 C    1.186
    88   6 C    3.960 --    89 C    1.641    87 C    1.186   110 H    0.973
    89   6 C    3.958 --    88 C    1.641    90 C    1.177   111 H    0.975
    90   6 C    3.915 --    92 C    1.368    91 N    1.193    89 C    1.177
    91   7 N    3.341 --    87 C    1.242    90 C    1.193    85 Co   0.622
    92   6 C    3.930 --    90 C    1.368    93 C    1.366   112 H    0.970
    93   6 C    3.915 --    92 C    1.366    96 N    1.195    94 C    1.178
    94   6 C    3.958 --    95 C    1.641    93 C    1.178   113 H    0.975
    95   6 C    3.960 --    94 C    1.641    97 C    1.186   114 H    0.973
    96   7 N    3.342 --    97 C    1.240    93 C    1.195    85 Co   0.623
    97   6 C    3.904 --    98 C    1.258    96 N    1.240    95 C    1.186
    98   6 C    3.923 --    99 C    1.258    97 C    1.258    82 C    1.193
    99   6 C    3.904 --    98 C    1.258   103 N    1.240   100 C    1.186
   100   6 C    3.960 --   101 C    1.641    99 C    1.186   115 H    0.973
   101   6 C    3.958 --   100 C    1.641   102 C    1.178   116 H    0.975
   102   6 C    3.915 --   104 C    1.366   103 N    1.195   101 C    1.178
   103   7 N    3.341 --    99 C    1.240   102 C    1.195    85 Co   0.623
   104   6 C    3.930 --   105 C    1.368   102 C    1.366   117 H    0.970
   105   6 C    3.915 --   104 C    1.368   109 N    1.193   106 C    1.177
   106   6 C    3.958 --   107 C    1.641   105 C    1.177   118 H    0.975
   107   6 C    3.960 --   106 C    1.641   108 C    1.186   119 H    0.973
   108   6 C    3.903 --    86 C    1.255   109 N    1.242   107 C    1.186
   109   7 N    3.341 --   108 C    1.242   105 C    1.193    85 Co   0.622
   110   1 H    1.001 --    88 C    0.973
   111   1 H    0.997 --    89 C    0.975
   112   1 H    1.000 --    92 C    0.970
   113   1 H    0.997 --    94 C    0.975
   114   1 H    1.001 --    95 C    0.973
   115   1 H    1.001 --   100 C    0.973
   116   1 H    0.997 --   101 C    0.975
   117   1 H    1.000 --   104 C    0.970
   118   1 H    0.997 --   106 C    0.975
   119   1 H    1.001 --   107 C    0.973
 ---------------------------------------------------------------------------

           -------------------------------------------------
          | TOTAL ENERGY             -217.983944604194 Eh   |
          | GRADIENT NORM               0.000385118836 Eh/α |
          | HOMO-LUMO GAP               0.000522210043 eV   |
           -------------------------------------------------

 * finished run on 2022/07/29 at 22:14:10.702
