   * xtb version 6.5.1 (b24c23e) compiled by 'conda@728c89f4b128' on 2022-07-12
          program call               : xtb Ni_PhOH_C8_3.xyz --gfn 1 --opt -T 48

   ID    Z sym.   atoms
    1   28 Ni     1, 59, 133
    2    6 C      2-6, 8-12, 14-18, 20-25, 27-31, 33-38, 60-64, 66-70, 72-76,
                  78-83, 85-89, 91-96, 117-132, 134-138, 140-144, 146-150,
                  152-157, 159-163, 165-170
    3    7 N      7, 19, 26, 39, 65, 77, 84, 97, 139, 151, 158, 171
    4    8 O      13, 32, 71, 90, 145, 164
    5    1 H      40-58, 98-116, 172-189

          :  Hamiltonian                  GFN1-xTB          :
 * total energy  :  -344.4450283 Eh     change        0.1171543E-08 Eh
 * total energy  :  -344.8912795 Eh     change       -0.4462512E+00 Eh
 * total energy  :  -345.0421207 Eh     change       -0.1508411E+00 Eh
 * total energy  :  -345.1217567 Eh     change       -0.7963602E-01 Eh
 * total energy  :  -345.1882662 Eh     change       -0.6650949E-01 Eh
 * total energy  :  -345.2566782 Eh     change       -0.6841207E-01 Eh
 * total energy  :  -345.3176410 Eh     change       -0.6096279E-01 Eh
 * total energy  :  -345.3540206 Eh     change       -0.3637954E-01 Eh
 * total energy  :  -345.3815193 Eh     change       -0.2749876E-01 Eh
 * total energy  :  -345.4010743 Eh     change       -0.1955500E-01 Eh
 * total energy  :  -345.5011981 Eh     change       -0.2494989E-04 Eh
 * total energy  :  -345.5012244 Eh     change       -0.2622349E-04 Eh
 * total energy  :  -345.5012112 Eh     change        0.1320416E-04 Eh
 * total energy  :  -345.5012338 Eh     change       -0.2265602E-04 Eh
 * total energy  :  -345.5012204 Eh     change        0.1342260E-04 Eh
 * total energy  :  -345.5012437 Eh     change       -0.2327447E-04 Eh
 * total energy  :  -345.5012426 Eh     change        0.1103978E-05 Eh
 * total energy  :  -345.5012529 Eh     change       -0.1038459E-04 Eh
 * total energy  :  -345.5012554 Eh     change       -0.2418830E-05 Eh
   *** GEOMETRY OPTIMIZATION CONVERGED AFTER 74 ITERATIONS ***

 final structure:
================
189
 xtb: 6.5.1 (b24c23e)
Ni          26.02396324693929       -0.01963938477789       -0.06477540630688
C           22.63338584352617       -0.07076338344112       -0.24256574162808
C           23.29700524797343       -1.27924407174271       -0.21405097243844
C           22.62710691770944       -2.54354686866759       -0.22478715771575
C           23.58416039442871       -3.49032426088482       -0.08617343920471
C           24.84050300584115       -2.80386439710603       -0.01079021298300
N           24.65408181372894       -1.44648149246672       -0.09452038275295
C           26.05952650946172       -3.44325091222277        0.17329672057903
C           26.07776912643140       -4.92203473102807        0.29964699140077
C           25.69641153718191       -5.73074200524958       -0.77056008511728
C           25.71775741972557       -7.11242141152707       -0.65580459891530
C           26.11765352245352       -7.70033239335693        0.54187307187574
O           26.15044132653409       -9.04879305801481        0.69868663133600
C           26.49848157075910       -6.90262847583420        1.61942193877837
C           26.48072653517891       -5.52481661813793        1.49322070045798
C           27.26562909448821       -2.75859018613213        0.22836807323525
C           28.53629577373433       -3.40774904102063        0.34426722453941
C           29.47954161090627       -2.43904953674935        0.26729896223581
N           27.43067852869212       -1.39812731575601        0.09065457243905
C           28.78411233879472       -1.20217479154335        0.10584803718762
C           29.43865346765229        0.02365404099852       -0.04313922974508
C           28.75452601851099        1.23643942464645       -0.16021941547998
C           29.41873799752841        2.49335596116488       -0.29530521874603
C           28.45304411800504        3.44296708248293       -0.31130764501727
C           27.20049478031072        2.76180984965830       -0.18391790124890
N           27.39737732468341        1.40066726247768       -0.11504067319583
C           25.97429902546219        3.41181302531545       -0.14466459156029
C           25.95621971523208        4.89472500338954       -0.16522105020237
C           26.53956683461864        5.62571006899608        0.87239340861337
C           26.52273348511876        7.00913506415055        0.86049176349743
C           25.92467237016477        7.68425198341831       -0.20216822458146
O           25.92909202141211        9.04189879680881       -0.18371313033918
C           25.34369718576745        6.96833851057267       -1.24627143280999
C           25.35879580779615        5.58224447329947       -1.22184994771231
C           24.76508251272752        2.72936805611256       -0.10721145806523
C           23.48601078569575        3.37561203710917       -0.06613454605119
C           22.55090326123875        2.39852814953075       -0.11928643441614
C           23.25877737826204        1.15626343984187       -0.16970926346023
N           24.61488804953195        1.36520174630661       -0.14064213695859
H           21.55119607266491       -0.08667530211717       -0.30009653860677
H           21.55938204274498       -2.66853758831701       -0.31060737713065
H           23.46215503799425       -4.55971549181815       -0.02867706397249
H           25.39651773030176       -5.27422837827497       -1.70727774819380
H           25.42664107400623       -7.73723754695524       -1.49338111859895
H           25.86854583398758       -9.50434187095639       -0.10589176260558
H           26.80433054202897       -7.37352736713818        2.54547101075620
H           26.76840301047625       -4.90341556622828        2.33387911419118
H           28.67835777484898       -4.47058267060946        0.45191196299912
H           30.55223776921837       -2.53759270759659        0.30868398547644
H           30.48731431294827        2.61663621265725       -0.36681257710141
H           28.56768675039929        4.50985221829011       -0.41157031861046
H           26.99595760906100        5.10028071697419        1.70381641906757
H           26.96779909217497        7.57888949111168        1.66682263496633
H           25.48990233232874        9.40683654352403       -0.96365775958100
H           24.88377912916059        7.49765765380968       -2.07391216995746
H           24.91742848495829        5.02618206892060       -2.04151116778416
H           23.33570587728281        4.44093005845418       -0.00063233303204
H           21.47633946804731        2.48975298487582       -0.11524051193872
Ni          63.16481449232042       -0.00462260729873       -0.03321938042370
C           66.55386543203673        0.03229250971904       -0.23283452095644
C           65.88408194033028        1.22769361058177       -0.38855309706127
C           66.54681367185724        2.47774337038822       -0.60184147674325
C           65.58583332612673        3.43071098380450       -0.60247023392033
C           64.33428263004809        2.75963023997601       -0.40607537053974
N           64.52715958657608        1.40607566100358       -0.28367912336045
C           63.11582935214403        3.41656352342127       -0.29265726718750
C           63.09338396744442        4.89761844101684       -0.38842809380150
C           63.44493816742498        5.53593758865363       -1.57746543738549
C           63.42078278752689        6.91907633470951       -1.67177499074006
C           63.04811157820321        7.68065483892211       -0.56673479358093
O           63.01395760794598        9.03734657481318       -0.61413557071074
C           62.69742182384670        7.05433907074904        0.62790180318913
C           62.71782130317991        5.67320945321666        0.71046332183143
C           61.91529022768690        2.74517813857157       -0.10722049545811
C           60.64431939645711        3.40130856671412       -0.04813013771891
C           59.70476750186721        2.42909622002467        0.03104315577388
N           61.75427491508541        1.37829299264614       -0.05204771274972
C           60.40265779558329        1.18320687485830        0.01952488204377
C           59.75118266053813       -0.05345318187388        0.03123005009876
C           60.43938806522934       -1.26966435907233        0.05170285702287
C           59.77964612050641       -2.53591961986315        0.07383024204748
C           60.74884207059111       -3.47690466045759        0.17361170614027
C           61.99896420036714       -2.78084226530868        0.21424917956869
N           61.79721663953459       -1.42249069546142        0.11139494257608
C           63.22701522698959       -3.41523349458212        0.34498575333434
C           63.24931896103112       -4.88749826928200        0.52215786370517
C           62.65848034672783       -5.47579795038197        1.64296567523272
C           62.67686736751180       -6.84851320692523        1.81470711081577
C           63.28388285829168       -7.65721443968564        0.85541817812771
O           63.27978480634827       -9.00051614723031        1.05304034673502
C           63.87309450695398       -7.08469340882390       -0.26942419961117
C           63.85666409908664       -5.70760676215682       -0.42891466718864
C           64.43359952868794       -2.72862084033925        0.29881387601530
C           65.71481428104833       -3.35678125185018        0.43690655001457
C           66.64649234678978       -2.39232718636079        0.25251157789337
C           65.93416316859232       -1.17298959241464        0.02298660315404
N           64.57881012328664       -1.38171394462787        0.07696936583176
H           67.63588048570628        0.04439715322900       -0.29441038490269
H           67.61294463202415        2.59222538911038       -0.71708583579169
H           65.70251164019103        4.49653384619586       -0.71295090591893
H           63.72383916519308        4.94345398658510       -2.44173332103561
H           63.68879593837018        7.41058979097734       -2.60089064206344
H           63.27324051530372        9.36633501771985       -1.48527791759360
H           62.41278538119826        7.65934009658231        1.47984032868761
H           62.45402384521446        5.18568475327363        1.64229691893560
H           60.49889893747244        4.46858315462363       -0.08200283851211
H           58.63287789106840        2.53012218648978        0.08543243441636
H           58.71139975275617       -2.67085898013647        0.02100335713830
H           60.63798272938357       -4.54836904720130        0.20689364814100
H           62.19474968184725       -4.84577363088335        2.39373500795631
H           62.22578104493434       -7.30731964281653        2.68584191677485
H           63.72492391681883       -9.46471851636157        0.33142377467816
H           64.34012376352065       -7.71810790409673       -1.01598985352304
H           64.30440525103799       -5.26408495052948       -1.31133013383847
H           65.86863433518519       -4.40184813404988        0.65138357091900
H           67.72136582342301       -2.47723439654902        0.27437053034458
C           30.84363081722890        0.03815938949148       -0.05439135899420
C           32.06766899168374        0.04309208951118       -0.06185673363411
C           33.41097369452156        0.04727847794219       -0.06586710137897
C           34.64130095622372        0.04824409917759       -0.06715745933486
C           35.97976291157929        0.04623635518889       -0.06651467644116
C           37.21021393695818        0.04483500684107       -0.06509450687398
C           38.55327745755795        0.03908247588030       -0.06452158577843
C           39.77760383333423        0.03421220730246       -0.06409909993936
C           49.41333676970812       -0.06713650056080       -0.00000726739211
C           50.63769362170671       -0.08132475208122        0.01307300901959
C           51.98036932506340       -0.09219802144470        0.02355682959689
C           53.21086429404271       -0.09938191946258        0.02988862572706
C           54.54899714580544       -0.10056281872903        0.03096211972282
C           55.77950166052276       -0.09668095239065        0.03360129978823
C           57.12245362566987       -0.08613747201939        0.03556461920763
C           58.34668491916437       -0.07358513701807        0.03421522464389
Ni          44.59602557932160        0.00080695108099       -0.05829725321223
C           41.18155025740261        0.02785155841360       -0.06559228077263
C           41.86083688072072        0.96892666608802        0.71429480919180
C           41.19936443474435        1.92110314142478        1.54735349640757
C           42.16027109138534        2.74086973220257        2.03906464943197
C           43.40529515667594        2.29022750264017        1.49675113071967
N           43.21326141242715        1.17235748296898        0.71669218328508
C           44.61631765509702        2.94294658996293        1.68850159702357
C           44.62416384545914        4.21854684950488        2.44334446079558
C           45.34846355069480        4.33599003554932        3.63226890188768
C           45.35355979367007        5.52242155166332        4.34379348529086
C           44.63639624724478        6.61818289271692        3.86622501785644
O           44.66751766006295        7.76824542526905        4.58668054298543
C           43.91379488980967        6.51701844128410        2.67946528330710
C           43.90651903893457        5.32110484198413        1.97853674428125
C           45.82018128108535        2.44623604886635        1.20582805028443
C           47.07527084987699        3.11916873204480        1.34438299019997
C           48.02545002280105        2.27679363471021        0.87038637862484
N           45.99569546912980        1.22121805115449        0.60237525282523
C           47.34712282638553        1.09925458985854        0.43290481051678
C           48.01000320175731       -0.04666971561703       -0.01824072369058
C           47.32605673358884       -1.16995621105638       -0.49376098197104
C           47.98178395093905       -2.36078675501905       -0.92957042143125
C           47.02146804008382       -3.16687062892874       -1.44444469013488
C           45.78273062340580       -2.46032237663939       -1.32811876988360
N           45.97671355974321       -1.25007941477760       -0.70141739196262
C           44.57668782510330       -2.91935264201178       -1.84206759559964
C           44.56958008120343       -4.18292144177858       -2.61653208515707
C           43.81674258810845       -5.27505075223329       -2.18382842414054
C           43.81259746498849       -6.46093797361540       -2.90153271525867
C           44.55991125100110       -6.56264405904824       -4.07278719383477
O           44.58147157243540       -7.70334758737851       -4.80838077076369
C           45.31228825695776       -5.47718679345832       -4.51851598185576
C           45.31788330105081       -4.30084739287923       -3.79046134803816
C           43.37693030006754       -2.24528914928524       -1.65382249990004
C           42.12755919378236       -2.66707626586751       -2.20923729743894
C           41.17648243781532       -1.84487895094969       -1.70266660223756
C           41.84901256487777       -0.91631112026124       -0.85215945956720
N           43.19838896748075       -1.13811102690435       -0.85521533023237
H           40.13580937589852        1.94801339962168        1.72169641938766
H           42.04619694023235        3.57465880643404        2.71238580980133
H           45.89713254077163        3.48015195632967        4.00943603525315
H           45.90741540350433        5.61452634777995        5.26998754623199
H           44.13392719378724        8.45942173771811        4.17195663489616
H           43.36067704508372        7.37363752828271        2.30926152485803
H           43.35170877231415        5.24608660432209        1.04982441828286
H           47.20309020551608        4.10931906237040        1.75035629452089
H           49.09189716555625        2.42512643158912        0.81615467276996
H           49.04154525588753       -2.54115422375406       -0.84843029069122
H           47.13212305157958       -4.15380586551189       -1.86305639068750
H           43.24414628730404       -5.20084326873509       -1.26597106195785
H           43.23241548147081       -7.30975574269220       -2.55574802393097
H           44.02709194684468       -8.38923703983600       -4.41253665905729
H           45.88466105336779       -5.56913740379215       -5.43330393373180
H           45.89451157858352       -3.45288242687525       -4.14278541632363
H           42.00366580277247       -3.48531985742218       -2.89966233716064
H           40.11313601994069       -1.85391941620115       -1.88001575502595

          :  Hamiltonian                  GFN1-xTB          :
         :: total energy            -345.501255367315 Eh    ::
         :: gradient norm              0.000907831369 Eh/a0 ::
         :: HOMO-LUMO gap              1.059023014961 eV    ::
         :: SCC energy              -351.040058181474 Eh    ::
         :: repulsion energy           5.706438617503 Eh    ::

    * Orbital Energies and Occupations

         #    Occupation            Energy/Eh            Energy/eV
      -------------------------------------------------------------
         1        2.0000           -0.8065353             -21.9469
       ...           ...                  ...                  ...
       303        2.0000           -0.3979975             -10.8301
       304        2.0000           -0.3976773             -10.8214
       305        2.0000           -0.3973577             -10.8127
       306        2.0000           -0.3968670             -10.7993
       307        2.0000           -0.3968572             -10.7990
       308        2.0000           -0.3967058             -10.7949
       309        2.0000           -0.3963212             -10.7844
       310        2.0000           -0.3962781             -10.7833
       311        2.0000           -0.3958155             -10.7707
       312        2.0000           -0.3957789             -10.7697
       313        2.0000           -0.3910046             -10.6398
       314        2.0000           -0.3873784             -10.5411
       315        2.0000           -0.3817368             -10.3876 (HOMO)
       316                         -0.3428184              -9.3286 (LUMO)
       317                         -0.3356108              -9.1324
       318                         -0.3315090              -9.0208
       319                         -0.3296761              -8.9709
       320                         -0.3294033              -8.9635
       321                         -0.3291146              -8.9557
       322                         -0.3286878              -8.9441
       323                         -0.3283788              -8.9356
       324                         -0.3278472              -8.9212
       325                         -0.3096615              -8.4263
       326                         -0.3017376              -8.2107
       ...                                ...                  ...
       659                          1.6063098              43.7099
      -------------------------------------------------------------
                  HL-Gap            0.0389184 Eh            1.0590 eV

Wiberg/Mayer (AO) data.
largest (>0.10) Wiberg bond orders for each atom

     #   Z sym  total        # sym  WBO       # sym  WBO       # sym  WBO
 ---------------------------------------------------------------------------
     1  28 Ni   3.008 --    39 N    0.664     7 N    0.663    19 N    0.662
                            26 N    0.661
     2   6 C    3.933 --     3 C    1.364    38 C    1.363    40 H    0.970
     3   6 C    3.924 --     2 C    1.364     7 N    1.214     4 C    1.175
     4   6 C    3.959 --     5 C    1.648     3 C    1.175    41 H    0.975
     5   6 C    3.963 --     4 C    1.648     6 C    1.178    42 H    0.973
     6   6 C    3.919 --     8 C    1.323     7 N    1.222     5 C    1.178
     7   7 N    3.402 --     6 C    1.222     3 C    1.214     1 Ni   0.663
     8   6 C    3.939 --    16 C    1.331     6 C    1.323     9 C    1.022
     9   6 C    3.989 --    10 C    1.396    15 C    1.386     8 C    1.022
    10   6 C    3.989 --    11 C    1.451     9 C    1.396    43 H    0.973
                            14 C    0.106
    11   6 C    3.988 --    10 C    1.451    12 C    1.373    44 H    0.970
                            15 C    0.103
    12   6 C    3.902 --    11 C    1.373    14 C    1.365    13 O    1.040
    13   8 O    2.044 --    12 C    1.040    45 H    0.865
    14   6 C    3.990 --    15 C    1.466    12 C    1.365    46 H    0.971
                            10 C    0.106
    15   6 C    3.989 --    14 C    1.466     9 C    1.386    47 H    0.973
                            11 C    0.103
    16   6 C    3.914 --     8 C    1.331    19 N    1.205    17 C    1.184
    17   6 C    3.959 --    18 C    1.636    16 C    1.184    48 H    0.973
    18   6 C    3.961 --    17 C    1.636    20 C    1.191    49 H    0.973
    19   7 N    3.407 --    20 C    1.240    16 C    1.205     1 Ni   0.662
    20   6 C    3.904 --    21 C    1.262    19 N    1.240    18 C    1.191
    21   6 C    3.944 --    22 C    1.263    20 C    1.262   117 C    1.184
    22   6 C    3.904 --    21 C    1.263    26 N    1.239    23 C    1.192
    23   6 C    3.961 --    24 C    1.635    22 C    1.192    50 H    0.973
    24   6 C    3.959 --    23 C    1.635    25 C    1.184    51 H    0.973
    25   6 C    3.914 --    27 C    1.329    26 N    1.206    24 C    1.184
    26   7 N    3.407 --    22 C    1.239    25 C    1.206     1 Ni   0.661
    27   6 C    3.939 --    25 C    1.329    35 C    1.322    28 C    1.026
    28   6 C    3.989 --    34 C    1.394    29 C    1.384    27 C    1.026
    29   6 C    3.988 --    30 C    1.467    28 C    1.384    52 H    0.973
                            33 C    0.102
    30   6 C    3.990 --    29 C    1.467    31 C    1.364    53 H    0.971
                            34 C    0.105
    31   6 C    3.902 --    33 C    1.372    30 C    1.364    32 O    1.041
    32   8 O    2.044 --    31 C    1.041    54 H    0.865
    33   6 C    3.988 --    34 C    1.452    31 C    1.372    55 H    0.970
                            29 C    0.102
    34   6 C    3.988 --    33 C    1.452    28 C    1.394    56 H    0.973
                            30 C    0.105
    35   6 C    3.919 --    27 C    1.322    39 N    1.221    36 C    1.178
    36   6 C    3.963 --    37 C    1.647    35 C    1.178    57 H    0.973
    37   6 C    3.959 --    36 C    1.647    38 C    1.176    58 H    0.975
    38   6 C    3.924 --     2 C    1.363    39 N    1.214    37 C    1.176
    39   7 N    3.402 --    35 C    1.221    38 C    1.214     1 Ni   0.664
    40   1 H    1.000 --     2 C    0.970
    41   1 H    0.998 --     4 C    0.975
    42   1 H    1.005 --     5 C    0.973
    43   1 H    1.004 --    10 C    0.973
    44   1 H    0.999 --    11 C    0.970
    45   1 H    0.887 --    13 O    0.865
    46   1 H    0.999 --    14 C    0.971
    47   1 H    1.004 --    15 C    0.973
    48   1 H    1.005 --    17 C    0.973
    49   1 H    1.002 --    18 C    0.973
    50   1 H    1.002 --    23 C    0.973
    51   1 H    1.005 --    24 C    0.973
    52   1 H    1.004 --    29 C    0.973
    53   1 H    0.999 --    30 C    0.971
    54   1 H    0.887 --    32 O    0.865
    55   1 H    0.999 --    33 C    0.970
    56   1 H    1.005 --    34 C    0.973
    57   1 H    1.005 --    36 C    0.973
    58   1 H    0.998 --    37 C    0.975
    59  28 Ni   3.009 --    65 N    0.664    97 N    0.664    77 N    0.662
                            84 N    0.662
    60   6 C    3.933 --    61 C    1.364    96 C    1.363    98 H    0.970
    61   6 C    3.924 --    60 C    1.364    65 N    1.213    62 C    1.175
    62   6 C    3.959 --    63 C    1.648    61 C    1.175    99 H    0.975
    63   6 C    3.963 --    62 C    1.648    64 C    1.178   100 H    0.973
    64   6 C    3.919 --    66 C    1.323    65 N    1.222    63 C    1.178
    65   7 N    3.402 --    64 C    1.222    61 C    1.213    59 Ni   0.664
    66   6 C    3.939 --    74 C    1.332    64 C    1.323    67 C    1.022
    67   6 C    3.989 --    68 C    1.396    73 C    1.386    66 C    1.022
    68   6 C    3.989 --    69 C    1.451    67 C    1.396   101 H    0.973
                            72 C    0.106
    69   6 C    3.988 --    68 C    1.451    70 C    1.373   102 H    0.970
                            73 C    0.103
    70   6 C    3.902 --    69 C    1.373    72 C    1.365    71 O    1.040
    71   8 O    2.044 --    70 C    1.040   103 H    0.865
    72   6 C    3.990 --    73 C    1.466    70 C    1.365   104 H    0.971
                            68 C    0.106
    73   6 C    3.989 --    72 C    1.466    67 C    1.386   105 H    0.973
                            69 C    0.103
    74   6 C    3.914 --    66 C    1.332    77 N    1.204    75 C    1.184
    75   6 C    3.959 --    76 C    1.636    74 C    1.184   106 H    0.973
    76   6 C    3.961 --    75 C    1.636    78 C    1.191   107 H    0.973
    77   7 N    3.407 --    78 C    1.241    74 C    1.204    59 Ni   0.662
    78   6 C    3.903 --    79 C    1.261    77 N    1.241    76 C    1.191
    79   6 C    3.943 --    80 C    1.262    78 C    1.261   132 C    1.186
    80   6 C    3.903 --    79 C    1.262    84 N    1.239    81 C    1.192
    81   6 C    3.961 --    82 C    1.635    80 C    1.192   108 H    0.973
    82   6 C    3.959 --    81 C    1.635    83 C    1.185   109 H    0.973
    83   6 C    3.914 --    85 C    1.329    84 N    1.205    82 C    1.185
    84   7 N    3.406 --    80 C    1.239    83 C    1.205    59 Ni   0.662
    85   6 C    3.939 --    83 C    1.329    93 C    1.322    86 C    1.026
    86   6 C    3.988 --    92 C    1.394    87 C    1.384    85 C    1.026
    87   6 C    3.988 --    88 C    1.467    86 C    1.384   110 H    0.973
                            91 C    0.102
    88   6 C    3.990 --    87 C    1.467    89 C    1.364   111 H    0.971
                            92 C    0.105
    89   6 C    3.902 --    91 C    1.372    88 C    1.364    90 O    1.041
    90   8 O    2.044 --    89 C    1.041   112 H    0.865
    91   6 C    3.988 --    92 C    1.452    89 C    1.372   113 H    0.970
                            87 C    0.102
    92   6 C    3.988 --    91 C    1.452    86 C    1.394   114 H    0.973
                            88 C    0.105
    93   6 C    3.919 --    85 C    1.322    97 N    1.221    94 C    1.178
    94   6 C    3.963 --    95 C    1.647    93 C    1.178   115 H    0.973
    95   6 C    3.959 --    94 C    1.647    96 C    1.176   116 H    0.975
    96   6 C    3.924 --    60 C    1.363    97 N    1.214    95 C    1.176
    97   7 N    3.402 --    93 C    1.221    96 C    1.214    59 Ni   0.664
    98   1 H    1.000 --    60 C    0.970
    99   1 H    0.998 --    62 C    0.975
   100   1 H    1.005 --    63 C    0.973
   101   1 H    1.004 --    68 C    0.973
   102   1 H    0.999 --    69 C    0.970
   103   1 H    0.887 --    71 O    0.865
   104   1 H    0.999 --    72 C    0.971
   105   1 H    1.004 --    73 C    0.973
   106   1 H    1.005 --    75 C    0.973
   107   1 H    1.002 --    76 C    0.973
   108   1 H    1.002 --    81 C    0.973
   109   1 H    1.005 --    82 C    0.973
   110   1 H    1.005 --    87 C    0.973
   111   1 H    0.999 --    88 C    0.971
   112   1 H    0.887 --    90 O    0.865
   113   1 H    0.999 --    91 C    0.970
   114   1 H    1.005 --    92 C    0.973
   115   1 H    1.005 --    94 C    0.973
   116   1 H    0.998 --    95 C    0.975
   117   6 C    3.877 --   118 C    2.446    21 C    1.184   120 C    0.187
   118   6 C    3.938 --   117 C    2.446   119 C    1.340
   119   6 C    3.893 --   120 C    2.341   118 C    1.340   122 C    0.183
   120   6 C    3.927 --   119 C    2.341   121 C    1.366   117 C    0.187
   121   6 C    3.925 --   122 C    2.340   120 C    1.366   124 C    0.187
   122   6 C    3.894 --   121 C    2.340   123 C    1.341   119 C    0.183
   123   6 C    3.935 --   124 C    2.443   122 C    1.341
   124   6 C    3.878 --   123 C    2.443   134 C    1.188   121 C    0.187
   125   6 C    3.878 --   126 C    2.441   153 C    1.190   128 C    0.187
   126   6 C    3.935 --   125 C    2.441   127 C    1.343
   127   6 C    3.894 --   128 C    2.338   126 C    1.343   130 C    0.183
   128   6 C    3.926 --   127 C    2.338   129 C    1.368   125 C    0.187
   129   6 C    3.927 --   130 C    2.339   128 C    1.368   132 C    0.187
   130   6 C    3.893 --   129 C    2.339   131 C    1.342   127 C    0.183
   131   6 C    3.937 --   132 C    2.444   130 C    1.342
   132   6 C    3.877 --   131 C    2.444    79 C    1.186   129 C    0.187
   133  28 Ni   3.005 --   151 N    0.661   158 N    0.661   139 N    0.660
                           171 N    0.660
   134   6 C    3.933 --   135 C    1.260   170 C    1.259   124 C    1.188
   135   6 C    3.904 --   134 C    1.260   139 N    1.239   136 C    1.194
   136   6 C    3.959 --   137 C    1.632   135 C    1.194   172 H    0.973
   137   6 C    3.960 --   136 C    1.632   138 C    1.187   173 H    0.973
   138   6 C    3.912 --   140 C    1.324   139 N    1.205   137 C    1.187
   139   7 N    3.399 --   135 C    1.239   138 C    1.205   133 Ni   0.660
   140   6 C    3.935 --   148 C    1.325   138 C    1.324   141 C    1.028
   141   6 C    3.988 --   147 C    1.393   142 C    1.383   140 C    1.028
   142   6 C    3.988 --   143 C    1.467   141 C    1.383   174 H    0.973
                           146 C    0.102
   143   6 C    3.990 --   142 C    1.467   144 C    1.363   175 H    0.971
                           147 C    0.105
   144   6 C    3.901 --   146 C    1.371   143 C    1.363   145 O    1.042
   145   8 O    2.045 --   144 C    1.042   176 H    0.864
   146   6 C    3.988 --   147 C    1.453   144 C    1.371   177 H    0.970
                           142 C    0.102
   147   6 C    3.988 --   146 C    1.453   141 C    1.393   178 H    0.973
                           143 C    0.105
   148   6 C    3.912 --   140 C    1.325   151 N    1.204   149 C    1.187
   149   6 C    3.960 --   150 C    1.632   148 C    1.187   179 H    0.973
   150   6 C    3.959 --   149 C    1.632   152 C    1.194   180 H    0.973
   151   7 N    3.399 --   152 C    1.240   148 C    1.204   133 Ni   0.661
   152   6 C    3.903 --   153 C    1.258   151 N    1.240   150 C    1.194
   153   6 C    3.933 --   154 C    1.259   152 C    1.258   125 C    1.190
   154   6 C    3.903 --   153 C    1.259   158 N    1.239   155 C    1.194
   155   6 C    3.959 --   156 C    1.632   154 C    1.194   181 H    0.973
   156   6 C    3.960 --   155 C    1.632   157 C    1.187   182 H    0.973
   157   6 C    3.912 --   159 C    1.324   158 N    1.205   156 C    1.187
   158   7 N    3.399 --   154 C    1.239   157 C    1.205   133 Ni   0.661
   159   6 C    3.935 --   167 C    1.325   157 C    1.324   160 C    1.029
   160   6 C    3.988 --   161 C    1.393   166 C    1.383   159 C    1.029
   161   6 C    3.988 --   162 C    1.453   160 C    1.393   183 H    0.972
                           165 C    0.105
   162   6 C    3.988 --   161 C    1.453   163 C    1.371   184 H    0.970
                           166 C    0.102
   163   6 C    3.901 --   162 C    1.371   165 C    1.363   164 O    1.042
   164   8 O    2.045 --   163 C    1.042   185 H    0.864
   165   6 C    3.990 --   166 C    1.467   163 C    1.363   186 H    0.971
                           161 C    0.105
   166   6 C    3.988 --   165 C    1.467   160 C    1.383   187 H    0.973
                           162 C    0.102
   167   6 C    3.912 --   159 C    1.325   171 N    1.204   168 C    1.187
   168   6 C    3.960 --   169 C    1.631   167 C    1.187   188 H    0.973
   169   6 C    3.959 --   168 C    1.631   170 C    1.194   189 H    0.973
   170   6 C    3.904 --   134 C    1.259   171 N    1.240   169 C    1.194
   171   7 N    3.399 --   170 C    1.240   167 C    1.204   133 Ni   0.660
   172   1 H    1.001 --   136 C    0.973
   173   1 H    1.005 --   137 C    0.973
   174   1 H    1.005 --   142 C    0.973
   175   1 H    0.999 --   143 C    0.971
   176   1 H    0.886 --   145 O    0.864
   177   1 H    0.999 --   146 C    0.970
   178   1 H    1.005 --   147 C    0.973
   179   1 H    1.004 --   149 C    0.973
   180   1 H    1.001 --   150 C    0.973
   181   1 H    1.001 --   155 C    0.973
   182   1 H    1.004 --   156 C    0.973
   183   1 H    1.005 --   161 C    0.972
   184   1 H    0.999 --   162 C    0.970
   185   1 H    0.886 --   164 O    0.864
   186   1 H    0.999 --   165 C    0.971
   187   1 H    1.005 --   166 C    0.973
   188   1 H    1.005 --   168 C    0.973
   189   1 H    1.002 --   169 C    0.973
 ---------------------------------------------------------------------------

           -------------------------------------------------
          | TOTAL ENERGY             -345.501255367315 Eh   |
          | GRADIENT NORM               0.000907831369 Eh/α |
          | HOMO-LUMO GAP               1.059023014961 eV   |
           -------------------------------------------------

 * finished run on 2022/07/30 at 06:16:13.005
