   * xtb version 6.5.1 (b24c23e) compiled by 'conda@728c89f4b128' on 2022-07-12
          program call               : xtb Co_PhCN_C2_3.xyz --gfn 1 --opt -T 48

   ID    Z sym.   atoms
    1   27 Co     1, 59, 121
    2    6 C      2-6, 8-13, 15-19, 21-26, 28-33, 35-40, 60-64, 66-71, 73-77,
                  79-84, 86-91, 93-98, 117-120, 122-126, 128-133, 135-139,
                  141-146, 148-153, 155-160
    3    7 N      7, 14, 20, 27, 34, 41, 65, 72, 78, 85, 92, 99, 127, 134,
                  140, 147, 154, 161
    4    1 H      42-58, 100-116, 162-177

          :  Hamiltonian                  GFN1-xTB          :
 * total energy  :  -318.2698919 Eh     change       -0.1566661E-08 Eh
 * total energy  :  -318.4147600 Eh     change       -0.1448680E+00 Eh
 * total energy  :  -318.5247456 Eh     change       -0.1099857E+00 Eh
 * total energy  :  -318.5743465 Eh     change       -0.4960089E-01 Eh
 * total energy  :  -318.5996280 Eh     change       -0.2528148E-01 Eh
 * total energy  :  -318.6198369 Eh     change       -0.2020887E-01 Eh
 * total energy  :  -318.6352674 Eh     change       -0.1543052E-01 Eh
 * total energy  :  -318.6480060 Eh     change       -0.1273858E-01 Eh
 * total energy  :  -318.6581168 Eh     change       -0.1011085E-01 Eh
 * total energy  :  -318.6660759 Eh     change       -0.7959123E-02 Eh
 * total energy  :  -318.7099317 Eh     change       -0.1326696E-04 Eh
 * total energy  :  -318.7099476 Eh     change       -0.1585016E-04 Eh
 * total energy  :  -318.7099619 Eh     change       -0.1433809E-04 Eh
 * total energy  :  -318.7099768 Eh     change       -0.1493778E-04 Eh
 * total energy  :  -318.7099940 Eh     change       -0.1719203E-04 Eh
 * total energy  :  -318.7100127 Eh     change       -0.1864601E-04 Eh
 * total energy  :  -318.7100260 Eh     change       -0.1332860E-04 Eh
 * total energy  :  -318.7100362 Eh     change       -0.1020667E-04 Eh
 * total energy  :  -318.7100399 Eh     change       -0.3644039E-05 Eh
   *** GEOMETRY OPTIMIZATION CONVERGED AFTER 68 ITERATIONS ***

 final structure:
================
177
 xtb: 6.5.1 (b24c23e)
Co          36.41584591057178        0.03316039507952        0.04995115741332
C           33.05013301119543        0.02466034994407        0.16415385168141
C           33.70057554358975        1.23625825562207        0.06126677361153
C           33.03818509408224        2.50078305314833       -0.04114458478506
C           33.99382430373771        3.45165077545318        0.08715382190012
C           35.23704553035505        2.76557943441168        0.28669965370320
N           35.05571478526191        1.40988599631216        0.19181624487591
C           36.42371672536621        3.38128046587678        0.66666007010021
C           36.42917149373138        4.83402173173092        0.94274790867328
C           35.57522172850298        5.37524936346625        1.90720970211635
C           35.58439448444469        6.73205933020275        2.17527613028242
C           36.44941989719715        7.57901586721314        1.47592487138664
C           36.45964636288875        8.97624416182007        1.74845574866878
N           36.46953948558458       10.10465146090017        1.97368417858230
C           37.30382673110755        7.04335427246400        0.50759737844614
C           37.29318525763698        5.68471611577539        0.24841911669778
C           37.60315949561141        2.66396823209226        0.81050125386143
C           38.83750844780982        3.21830313501797        1.27937081849355
C           39.78679147153847        2.26848910766845        1.09614923303026
N           37.78558727735882        1.35923566297787        0.41492801153818
C           39.12989975191542        1.13740406877269        0.52203267308582
C           39.80153245140587        0.02767404758760        0.00304307199214
C           39.11384485488721       -1.07258971383478       -0.51545745984590
C           39.75048624199957       -2.19101338555756       -1.13529767989578
C           38.78912040097934       -3.12561765443246       -1.33344191723791
C           37.56988979477241       -2.57907657563544       -0.81768012816036
N           37.77066501709243       -1.28735318751855       -0.38752890091563
C           36.39586624472479       -3.29861704923396       -0.64686230635361
C           36.38040482865647       -4.74164340090023       -0.97014913121020
C           35.47599114761621       -5.24568041205763       -1.90835248920802
C           35.46250828176111       -6.59277565433073       -2.22160584298975
C           36.35455026528957       -7.46728640156819       -1.59387591679406
C           36.34400292598138       -8.85437099418056       -1.91404854093662
N           36.33716830053410       -9.97527018102721       -2.17363136015981
C           37.25787703937699       -6.96925810527266       -0.65010666620580
C           37.26972506824984       -5.62000723533144       -0.34586327182319
C           35.23298736845084       -2.69753848920188       -0.17888390691212
C           34.00989167471056       -3.39559787213808        0.09047687382537
C           33.06478376075537       -2.45416028673807        0.32353230458105
C           33.71301499826831       -1.18354098169476        0.20514664507330
N           35.05522237871261       -1.34651797379089       -0.03284311387127
H           31.96743216615814        0.02152889265302        0.20611916584263
H           31.97695797235541        2.62471210521195       -0.18663918019026
H           33.88000057219986        4.52308339563409        0.05524241313092
H           34.91407989310795        4.72011512857777        2.46312590853291
H           34.92350753727827        7.14304227724639        2.92941213600073
H           37.97325081644015        7.69727545524508       -0.03894141611698
H           37.94821486470408        5.27548326176937       -0.51244083993847
H           38.95243731580840        4.20576690215859        1.69574887074309
H           40.84004660035156        2.31745617239318        1.32037958527382
H           40.79883503792732       -2.24077813808075       -1.38158522662338
H           38.88682678793185       -4.09911787193732       -1.78557549614282
H           34.79213486869789       -4.56870929035856       -2.40779074483558
H           34.76271621198590       -6.97465026844549       -2.95568351699394
H           37.94732263655466       -7.64512319248734       -0.15787014108113
H           37.96238111068935       -5.24046685765084        0.39680891359852
H           33.90208051200369       -4.46813519351784        0.09678514249999
H           32.01816271275905       -2.58785799066721        0.54585124259729
Co          58.04252658029715       -0.00617299836902        0.09572635905965
C           61.41572938657529        0.01776158010601        0.29909013509367
C           60.77220064944849       -1.20002104296853        0.26371234816597
C           61.45373891341139       -2.45842071443924        0.27316029729899
C           60.50111980495463       -3.41449528254175        0.37134228438229
C           59.23969312843405       -2.73622880343703        0.44187198672747
N           59.41269380480416       -1.38131779194422        0.31317937268736
C           58.03454252936443       -3.36845463758768        0.71288255012537
C           58.03008835486346       -4.82096119338900        1.00035094227053
C           58.75027715017475       -5.32590891902442        2.08553958115976
C           58.73463405105705       -6.67868236469991        2.37355247148589
C           57.99873053091074       -7.55690706986583        1.57257195218590
C           57.97655622163978       -8.94928383581055        1.86834920205857
N           57.95725842695418      -10.07414534551262        2.11043395627375
C           57.28175400314361       -7.05740020470797        0.48123422553446
C           57.29682596022415       -5.70241138993311        0.20281029009572
C           56.83473831597294       -2.67427232854958        0.75521625526096
C           55.58022675235316       -3.26952391707233        1.10664063025243
C           54.63212290459301       -2.32113120403729        0.91992021695645
N           56.66200171910526       -1.35471386139292        0.40793284028761
C           55.31038500364421       -1.14956097142266        0.46206397493570
C           54.64722911292814        0.00123132131359        0.04282245062349
C           55.32710697743718        1.13671194651131       -0.39222761540460
C           54.66907992246427        2.28765096387788       -0.92561906090646
C           55.63200674966647        3.20920555020280       -1.16374507265646
C           56.87284807504384        2.62609468076469       -0.74847014168157
N           56.67941326087275        1.32993555228800       -0.32832606965879
C           58.06978319551021        3.32204932396892       -0.68151886844009
C           58.09392997593078        4.75452633027074       -1.05588234127149
C           58.89616233120668        5.19012426638065       -2.11313429025041
C           58.91747701741767        6.52413520794623       -2.47810685078659
C           58.13803067191037        7.45323606871365       -1.78253973840136
C           58.15698012990116        8.82695772241678       -2.15565178283506
N           58.17081663390412        9.93660799448093       -2.45977325007508
C           57.33948535566189        7.02343520841505       -0.71857146111001
C           57.31783793623957        5.68658085840222       -0.36339834174643
C           59.24712508233735        2.71901207924710       -0.26063530415122
C           60.48290205699008        3.42160955305414       -0.07371033689102
C           61.41989509808990        2.49209754602167        0.22489801797430
C           60.75595163508262        1.22401117465694        0.21715957918204
N           59.41370168688901        1.37830048998461       -0.02743061229340
H           62.49649822567537        0.02651367383704        0.37602269042219
H           62.52418417070016       -2.57335652660407        0.21251581512619
H           60.62615490774288       -4.48479790575741        0.39758823535665
H           59.31032754033628       -4.64578353309596        2.71732101870205
H           59.28910916085773       -7.06174884609952        3.22221556829623
H           56.71386155242735       -7.73627022052893       -0.14410798539528
H           56.74663690571680       -5.31987433926839       -0.64943049767393
H           55.45358663146209       -4.28172332342044        1.45439654899267
H           53.56674198156932       -2.39262615734378        1.06885056379548
H           53.60686886561432        2.36171033829300       -1.09462455647790
H           55.52291805368313        4.19784680407199       -1.57867194310178
H           59.49357109588929        4.47026799582576       -2.66111524732386
H           59.53605180593348        6.85352649908579       -3.30470023990675
H           56.73853665799825        7.74206390575051       -0.17371480923296
H           56.70631756667973        5.35910145637940        0.46975658549894
H           60.60108735175349        4.48968475574335       -0.15862815433110
H           62.47085100821737        2.62964298714033        0.42311986720813
C           41.20633173089696        0.02418479869818       -0.00801046403684
C           42.42350654122954        0.02471527113597       -0.01636940726162
C           52.02093284592148        0.01151810892278        0.02898160636809
C           53.23614665356711        0.00935689303365        0.03669456932330
Co          47.22044874757658        0.01585115313816        0.00848883131465
C           43.82796100630936        0.02632468123616       -0.02660418755961
C           44.50853781123782       -1.18703227644733       -0.15826701156026
C           43.85908741131379       -2.45619333254560       -0.24115912807075
C           44.81254997528201       -3.35912820829049       -0.57791754206543
C           46.04021177084582       -2.63386519885793       -0.70231480507295
N           45.85106375524608       -1.31086130490647       -0.37967620967263
C           47.22102758225984       -3.17032884189098       -1.19781314327186
C           47.21552263018922       -4.55402170297784       -1.72013227395510
C           46.35992724918849       -4.90847944228344       -2.76629099861599
C           46.35716284846464       -6.19717263145484       -3.26847097734939
C           47.20997961377707       -7.16273942438998       -2.72542104719803
C           47.21047024035138       -8.48977338349917       -3.24107715560292
N           47.21475714402823       -9.56184150010544       -3.65907532399701
C           48.06242844711737       -6.81535490001976       -1.67317388258305
C           48.06465302818272       -5.52306870133285       -1.17996300642736
C           48.40616122895980       -2.44691426845377       -1.21251573367829
C           49.64503884120285       -2.93907573584580       -1.73570970159351
C           50.60142971733254       -2.04997727042472       -1.37411210802500
N           48.59024242104641       -1.22388061913520       -0.61190714805308
C           49.94038063136344       -1.01012220467490       -0.65096976812652
C           50.61105015187722        0.01798707525464        0.01062381510177
C           49.93124423637590        1.05495542614372        0.64885962443716
C           50.57996177579759        2.09595962717334        1.38091876280797
C           49.62352757310806        3.00412674113855        1.69319705215227
C           48.39701247745623        2.51822518995304        1.13703361407509
N           48.58776728544624        1.28957235677742        0.55223085719261
C           47.21672785245162        3.24878157986912        1.08204524144138
C           47.21318394980954        4.64216392281415        1.57776422530341
C           46.34560837829498        5.02452306375592        2.60408030796553
C           46.34801772819421        6.32245450649559        3.08194319796386
C           47.21900485908188        7.26918078830794        2.53457690040359
C           47.22589696140668        8.60563923989477        3.02522084160765
N           47.23236304194007        9.68483934187982        3.42426654051547
C           48.08500425337816        6.89334478475280        1.50337627836523
C           48.08171628575861        5.59210515068098        1.03441624382677
C           46.03992878241758        2.70392150765124        0.58767647448748
C           44.80940822826802        3.42403521741102        0.45817781750937
C           43.85434503886363        2.51124175989658        0.15575363128834
C           44.50675777842036        1.24238521049679        0.08924238985933
N           45.85288972250974        1.37554407299544        0.28173946562444
H           42.80788352377280       -2.61977869362528       -0.06728594926763
H           44.70534618221522       -4.42130928109902       -0.72604309411748
H           45.70707192515757       -4.15888441199212       -3.19902607050091
H           45.69631226894973       -6.46237597959657       -4.08536101014295
H           48.72060341357179       -7.56279707277197       -1.24595208216369
H           48.71755902758790       -5.26138517432399       -0.35499533575075
H           49.75860439958819       -3.84915019431534       -2.30168510963553
H           51.66126487538691       -2.08226331811961       -1.56887477054499
H           51.63233437085858        2.11632651099166        1.61407226961529
H           49.72897568608004        3.92099526721104        2.24977419633847
H           45.67953873576518        4.28946725036061        3.04159943056688
H           45.67750688610713        6.60927679599449        3.88352199104391
H           48.75837980498869        7.62576053636116        1.07383372553883
H           48.74621014733496        5.30789844366764        0.22633031355131
H           44.70052427498930        4.48866214651754        0.58573469836929
H           42.80065921377385        2.66843602955337       -0.00833480208927

          :  Hamiltonian                  GFN1-xTB          :
         :: total energy            -318.710039852576 Eh    ::
         :: gradient norm              0.000799760420 Eh/a0 ::
         :: HOMO-LUMO gap              0.007939337971 eV    ::
         :: SCC energy              -324.005014638451 Eh    ::
         :: repulsion energy           5.463516700539 Eh    ::

    * Orbital Energies and Occupations

         #    Occupation            Energy/Eh            Energy/eV
      -------------------------------------------------------------
         1        2.0000           -0.7877502             -21.4358
       ...           ...                  ...                  ...
       284        2.0000           -0.4096300             -11.1466
       285        2.0000           -0.4094643             -11.1421
       286        2.0000           -0.4093833             -11.1399
       287        1.9999           -0.4064522             -11.0601
       288        1.9998           -0.4063924             -11.0585
       289        1.9998           -0.4059968             -11.0477
       290        1.9998           -0.4059775             -11.0472
       291        1.9997           -0.4058338             -11.0433
       292        1.9997           -0.4058273             -11.0431
       293        1.9996           -0.4056115             -11.0373
       294        1.8191           -0.3995750             -10.8730
       295        1.1261           -0.3974986             -10.8165
       296        1.0978           -0.3974386             -10.8149 (HOMO)
       297        0.9588           -0.3971468             -10.8069 (LUMO)
       298                         -0.3558953              -9.6844
       299                         -0.3460080              -9.4154
       300                         -0.3444289              -9.3724
       301                         -0.3440990              -9.3634
       302                         -0.3422362              -9.3127
       303                         -0.3366588              -9.1610
       304                         -0.3200325              -8.7085
       305                         -0.3150406              -8.5727
       306                         -0.3138153              -8.5393
       307                         -0.3088689              -8.4047
       ...                                ...                  ...
       623                          1.3295285              36.1783
      -------------------------------------------------------------
                  HL-Gap            0.0002918 Eh            0.0079 eV

Wiberg/Mayer (AO) data.
largest (>0.10) Wiberg bond orders for each atom

     #   Z sym  total        # sym  WBO       # sym  WBO       # sym  WBO
 ---------------------------------------------------------------------------
     1  27 Co   3.037 --     7 N    0.638    41 N    0.638    20 N    0.632
                            27 N    0.632
     2   6 C    3.925 --    40 C    1.366     3 C    1.364    42 H    0.969
     3   6 C    3.923 --     2 C    1.364     7 N    1.199     4 C    1.175
     4   6 C    3.958 --     5 C    1.648     3 C    1.175    43 H    0.975
     5   6 C    3.963 --     4 C    1.648     6 C    1.176    44 H    0.973
     6   6 C    3.920 --     8 C    1.315     7 N    1.213     5 C    1.176
     7   7 N    3.344 --     6 C    1.213     3 C    1.199     1 Co   0.638
     8   6 C    3.928 --    17 C    1.328     6 C    1.315     9 C    1.036
     9   6 C    3.963 --    16 C    1.383    10 C    1.383     8 C    1.036
    10   6 C    3.985 --    11 C    1.464     9 C    1.383    45 H    0.971
                            15 C    0.102
    11   6 C    3.993 --    10 C    1.464    12 C    1.364    46 H    0.972
                            16 C    0.102
    12   6 C    3.983 --    15 C    1.364    11 C    1.364    13 C    1.098
    13   6 C    3.958 --    14 N    2.820    12 C    1.098
    14   7 N    2.973 --    13 C    2.820
    15   6 C    3.993 --    16 C    1.464    12 C    1.364    47 H    0.972
                            10 C    0.102
    16   6 C    3.985 --    15 C    1.464     9 C    1.383    48 H    0.971
                            11 C    0.102
    17   6 C    3.917 --     8 C    1.328    20 N    1.195    18 C    1.182
    18   6 C    3.958 --    19 C    1.635    17 C    1.182    49 H    0.973
    19   6 C    3.960 --    18 C    1.635    21 C    1.190    50 H    0.971
    20   7 N    3.344 --    21 C    1.229    17 C    1.195     1 Co   0.632
    21   6 C    3.907 --    22 C    1.262    20 N    1.229    19 C    1.190
    22   6 C    3.930 --    21 C    1.262    23 C    1.260   117 C    1.184
    23   6 C    3.907 --    22 C    1.260    27 N    1.231    24 C    1.191
    24   6 C    3.960 --    25 C    1.635    23 C    1.191    51 H    0.972
    25   6 C    3.957 --    24 C    1.635    26 C    1.181    52 H    0.973
    26   6 C    3.917 --    28 C    1.330    27 N    1.193    25 C    1.181
    27   7 N    3.344 --    23 C    1.231    26 C    1.193     1 Co   0.632
    28   6 C    3.928 --    26 C    1.330    37 C    1.313    29 C    1.036
    29   6 C    3.963 --    36 C    1.383    30 C    1.383    28 C    1.036
    30   6 C    3.985 --    31 C    1.464    29 C    1.383    53 H    0.971
                            35 C    0.102
    31   6 C    3.993 --    30 C    1.464    32 C    1.364    54 H    0.972
                            36 C    0.102
    32   6 C    3.983 --    35 C    1.364    31 C    1.364    33 C    1.098
    33   6 C    3.958 --    34 N    2.820    32 C    1.098
    34   7 N    2.973 --    33 C    2.820
    35   6 C    3.993 --    36 C    1.464    32 C    1.364    55 H    0.972
                            30 C    0.102
    36   6 C    3.985 --    35 C    1.464    29 C    1.383    56 H    0.971
                            31 C    0.102
    37   6 C    3.920 --    28 C    1.313    41 N    1.215    38 C    1.176
    38   6 C    3.963 --    39 C    1.648    37 C    1.176    57 H    0.973
    39   6 C    3.958 --    38 C    1.648    40 C    1.174    58 H    0.975
    40   6 C    3.923 --     2 C    1.366    41 N    1.198    39 C    1.174
    41   7 N    3.344 --    37 C    1.215    40 C    1.198     1 Co   0.638
    42   1 H    0.999 --     2 C    0.969
    43   1 H    0.997 --     4 C    0.975
    44   1 H    1.003 --     5 C    0.973
    45   1 H    1.004 --    10 C    0.971
    46   1 H    1.000 --    11 C    0.972
    47   1 H    1.000 --    15 C    0.972
    48   1 H    1.004 --    16 C    0.971
    49   1 H    1.003 --    18 C    0.973
    50   1 H    1.004 --    19 C    0.971
    51   1 H    1.003 --    24 C    0.972
    52   1 H    1.003 --    25 C    0.973
    53   1 H    1.004 --    30 C    0.971
    54   1 H    1.000 --    31 C    0.972
    55   1 H    1.000 --    35 C    0.972
    56   1 H    1.004 --    36 C    0.971
    57   1 H    1.003 --    38 C    0.973
    58   1 H    0.997 --    39 C    0.975
    59  27 Co   3.016 --    65 N    0.638    99 N    0.638    85 N    0.632
                            78 N    0.632
    60   6 C    3.933 --    98 C    1.368    61 C    1.365   100 H    0.969
    61   6 C    3.923 --    60 C    1.365    65 N    1.202    62 C    1.174
    62   6 C    3.960 --    63 C    1.650    61 C    1.174   101 H    0.975
    63   6 C    3.962 --    62 C    1.650    64 C    1.175   102 H    0.973
    64   6 C    3.920 --    66 C    1.321    65 N    1.212    63 C    1.175
    65   7 N    3.349 --    64 C    1.212    61 C    1.202    59 Co   0.638
    66   6 C    3.935 --    75 C    1.328    64 C    1.321    67 C    1.031
    67   6 C    3.963 --    74 C    1.385    68 C    1.385    66 C    1.031
    68   6 C    3.987 --    69 C    1.464    67 C    1.385   103 H    0.971
                            73 C    0.102
    69   6 C    3.993 --    68 C    1.464    70 C    1.364   104 H    0.972
                            74 C    0.102
    70   6 C    3.985 --    73 C    1.364    69 C    1.364    71 C    1.098
    71   6 C    3.958 --    72 N    2.820    70 C    1.098
    72   7 N    2.973 --    71 C    2.820
    73   6 C    3.993 --    74 C    1.463    70 C    1.364   105 H    0.972
                            68 C    0.102
    74   6 C    3.988 --    73 C    1.463    67 C    1.385   106 H    0.971
                            69 C    0.102
    75   6 C    3.917 --    66 C    1.328    78 N    1.199    76 C    1.180
    76   6 C    3.960 --    77 C    1.640    75 C    1.180   107 H    0.973
    77   6 C    3.962 --    76 C    1.640    79 C    1.187   108 H    0.973
    78   7 N    3.349 --    79 C    1.223    75 C    1.199    59 Co   0.632
    79   6 C    3.913 --    80 C    1.277    78 N    1.223    77 C    1.187
    80   6 C    3.936 --    79 C    1.277    81 C    1.274   120 C    1.156
    81   6 C    3.913 --    80 C    1.274    85 N    1.226    82 C    1.187
    82   6 C    3.962 --    83 C    1.640    81 C    1.187   109 H    0.973
    83   6 C    3.960 --    82 C    1.640    84 C    1.179   110 H    0.973
    84   6 C    3.917 --    86 C    1.332    85 N    1.196    83 C    1.179
    85   7 N    3.349 --    81 C    1.226    84 C    1.196    59 Co   0.632
    86   6 C    3.935 --    84 C    1.332    95 C    1.318    87 C    1.030
    87   6 C    3.963 --    94 C    1.386    88 C    1.385    86 C    1.030
    88   6 C    3.987 --    89 C    1.464    87 C    1.385   111 H    0.971
                            93 C    0.102
    89   6 C    3.993 --    88 C    1.464    90 C    1.364   112 H    0.972
                            94 C    0.102
    90   6 C    3.985 --    93 C    1.365    89 C    1.364    91 C    1.098
    91   6 C    3.958 --    92 N    2.820    90 C    1.098
    92   7 N    2.973 --    91 C    2.820
    93   6 C    3.993 --    94 C    1.463    90 C    1.365   113 H    0.972
                            88 C    0.102
    94   6 C    3.988 --    93 C    1.463    87 C    1.386   114 H    0.971
                            89 C    0.102
    95   6 C    3.920 --    86 C    1.318    99 N    1.215    96 C    1.175
    96   6 C    3.963 --    97 C    1.650    95 C    1.175   115 H    0.973
    97   6 C    3.960 --    96 C    1.650    98 C    1.173   116 H    0.975
    98   6 C    3.923 --    60 C    1.368    99 N    1.199    97 C    1.173
    99   7 N    3.349 --    95 C    1.215    98 C    1.199    59 Co   0.638
   100   1 H    1.000 --    60 C    0.969
   101   1 H    0.997 --    62 C    0.975
   102   1 H    1.003 --    63 C    0.973
   103   1 H    1.003 --    68 C    0.971
   104   1 H    1.000 --    69 C    0.972
   105   1 H    1.000 --    73 C    0.972
   106   1 H    1.003 --    74 C    0.971
   107   1 H    1.004 --    76 C    0.973
   108   1 H    1.001 --    77 C    0.973
   109   1 H    1.001 --    82 C    0.973
   110   1 H    1.004 --    83 C    0.973
   111   1 H    1.003 --    88 C    0.971
   112   1 H    1.000 --    89 C    0.972
   113   1 H    1.000 --    93 C    0.972
   114   1 H    1.004 --    94 C    0.971
   115   1 H    1.003 --    96 C    0.973
   116   1 H    0.997 --    97 C    0.975
   117   6 C    3.923 --   118 C    2.564    22 C    1.184
   118   6 C    3.931 --   117 C    2.564   122 C    1.186
   119   6 C    3.930 --   120 C    2.587   142 C    1.161
   120   6 C    3.921 --   119 C    2.587    80 C    1.156
   121  27 Co   3.054 --   140 N    0.633   161 N    0.633   147 N    0.628
                           127 N    0.627
   122   6 C    3.924 --   160 C    1.259   123 C    1.259   118 C    1.186
   123   6 C    3.909 --   122 C    1.259   127 N    1.231   124 C    1.192
   124   6 C    3.961 --   125 C    1.632   123 C    1.192   162 H    0.971
   125   6 C    3.959 --   124 C    1.632   126 C    1.185   163 H    0.973
   126   6 C    3.916 --   128 C    1.321   127 N    1.199   125 C    1.185
   127   7 N    3.340 --   123 C    1.231   126 C    1.199   121 Co   0.627
   128   6 C    3.927 --   126 C    1.321   137 C    1.321   129 C    1.036
   129   6 C    3.963 --   136 C    1.383   130 C    1.383   128 C    1.036
   130   6 C    3.985 --   131 C    1.464   129 C    1.383   164 H    0.971
                           135 C    0.102
   131   6 C    3.993 --   130 C    1.464   132 C    1.364   165 H    0.972
                           136 C    0.102
   132   6 C    3.983 --   135 C    1.364   131 C    1.364   133 C    1.098
   133   6 C    3.958 --   134 N    2.821   132 C    1.098
   134   7 N    2.973 --   133 C    2.821
   135   6 C    3.993 --   136 C    1.464   132 C    1.364   166 H    0.972
                           130 C    0.102
   136   6 C    3.986 --   135 C    1.464   129 C    1.383   167 H    0.971
                           131 C    0.102
   137   6 C    3.916 --   128 C    1.321   140 N    1.201   138 C    1.182
   138   6 C    3.962 --   139 C    1.636   137 C    1.182   168 H    0.973
   139   6 C    3.960 --   138 C    1.636   141 C    1.189   169 H    0.973
   140   7 N    3.340 --   141 C    1.226   137 C    1.201   121 Co   0.633
   141   6 C    3.914 --   142 C    1.271   140 N    1.226   139 C    1.189
   142   6 C    3.922 --   141 C    1.271   143 C    1.270   119 C    1.161
   143   6 C    3.914 --   142 C    1.270   147 N    1.226   144 C    1.190
   144   6 C    3.961 --   145 C    1.634   143 C    1.190   170 H    0.973
   145   6 C    3.962 --   144 C    1.634   146 C    1.184   171 H    0.973
   146   6 C    3.915 --   148 C    1.317   147 N    1.203   145 C    1.184
   147   7 N    3.340 --   143 C    1.226   146 C    1.203   121 Co   0.628
   148   6 C    3.927 --   157 C    1.325   146 C    1.317   149 C    1.036
   149   6 C    3.963 --   156 C    1.383   150 C    1.383   148 C    1.036
   150   6 C    3.986 --   151 C    1.464   149 C    1.383   172 H    0.971
                           155 C    0.102
   151   6 C    3.993 --   150 C    1.464   152 C    1.364   173 H    0.972
                           156 C    0.102
   152   6 C    3.983 --   155 C    1.364   151 C    1.364   153 C    1.098
   153   6 C    3.958 --   154 N    2.821   152 C    1.098
   154   7 N    2.973 --   153 C    2.821
   155   6 C    3.993 --   156 C    1.464   152 C    1.364   174 H    0.972
                           150 C    0.102
   156   6 C    3.985 --   155 C    1.464   149 C    1.383   175 H    0.971
                           151 C    0.102
   157   6 C    3.916 --   148 C    1.325   161 N    1.196   158 C    1.183
   158   6 C    3.960 --   159 C    1.634   157 C    1.183   176 H    0.973
   159   6 C    3.960 --   158 C    1.634   160 C    1.191   177 H    0.971
   160   6 C    3.909 --   122 C    1.259   161 N    1.233   159 C    1.191
   161   7 N    3.339 --   160 C    1.233   157 C    1.196   121 Co   0.633
   162   1 H    1.003 --   124 C    0.971
   163   1 H    1.003 --   125 C    0.973
   164   1 H    1.004 --   130 C    0.971
   165   1 H    1.000 --   131 C    0.972
   166   1 H    1.000 --   135 C    0.972
   167   1 H    1.004 --   136 C    0.971
   168   1 H    1.003 --   138 C    0.973
   169   1 H    1.001 --   139 C    0.973
   170   1 H    1.001 --   144 C    0.973
   171   1 H    1.003 --   145 C    0.973
   172   1 H    1.004 --   150 C    0.971
   173   1 H    1.000 --   151 C    0.972
   174   1 H    1.000 --   155 C    0.972
   175   1 H    1.004 --   156 C    0.971
   176   1 H    1.003 --   158 C    0.973
   177   1 H    1.004 --   159 C    0.971
 ---------------------------------------------------------------------------

           -------------------------------------------------
          | TOTAL ENERGY             -318.710039852576 Eh   |
          | GRADIENT NORM               0.000799760420 Eh/α |
          | HOMO-LUMO GAP               0.007939337971 eV   |
           -------------------------------------------------

 * finished run on 2022/07/30 at 08:17:01.669
