   * xtb version 6.5.1 (b24c23e) compiled by 'conda@728c89f4b128' on 2022-07-12
          program call               : xtb Cu_H_C8_2.xyz --gfn 1 --opt -T 48

   ID    Z sym.   atoms
    1   29 Cu     1, 37
    2    6 C      2-6, 8-11, 13-18, 20-24, 38-42, 44-47, 49-54, 56-60, 73-80
    3    7 N      7, 12, 19, 25, 43, 48, 55, 61
    4    1 H      26-36, 62-72
########################################################################
[WARNING] Please study the warnings concerning your input carefully
-1- prog_main_parseArguments: Unknown option '-T' provided
########################################################################

          :  Hamiltonian                  GFN1-xTB          :
 * total energy  :  -146.9778217 Eh     change       -0.5575913E-08 Eh
 * total energy  :  -147.4975524 Eh     change       -0.5197307E+00 Eh
 * total energy  :  -147.6007959 Eh     change       -0.1032435E+00 Eh
 * total energy  :  -147.6387933 Eh     change       -0.3799738E-01 Eh
 * total energy  :  -147.6509267 Eh     change       -0.1213340E-01 Eh
 * total energy  :  -147.6585776 Eh     change       -0.7650887E-02 Eh
 * total energy  :  -147.6634264 Eh     change       -0.4848817E-02 Eh
 * total energy  :  -147.6670342 Eh     change       -0.3607858E-02 Eh
 * total energy  :  -147.6693749 Eh     change       -0.2340655E-02 Eh
 * total energy  :  -147.6714403 Eh     change       -0.2065398E-02 Eh
 * total energy  :  -147.6748626 Eh     change        0.7828453E-07 Eh
 * total energy  :  -147.6748618 Eh     change        0.7856526E-06 Eh
 * total energy  :  -147.6748689 Eh     change       -0.7159969E-05 Eh
 * total energy  :  -147.6748518 Eh     change        0.1715301E-04 Eh
 * total energy  :  -147.6748686 Eh     change       -0.1682168E-04 Eh
 * total energy  :  -147.6748473 Eh     change        0.2126014E-04 Eh
 * total energy  :  -147.6748739 Eh     change       -0.2653435E-04 Eh
 * total energy  :  -147.6748789 Eh     change       -0.5047448E-05 Eh
 * total energy  :  -147.6748817 Eh     change       -0.2777715E-05 Eh
   *** GEOMETRY OPTIMIZATION CONVERGED AFTER 30 ITERATIONS ***

 final structure:
================
80
 xtb: 6.5.1 (b24c23e)
Cu           5.22508057209326       -0.00920519612788       -0.00984400207845
C            1.80101037003217       -0.05241873171947       -0.05086868281392
C            2.45153733472526       -0.91664566144589       -0.92022983276412
C            1.79984018549386       -1.82093444928596       -1.82796845339755
C            2.77631472419964       -2.48423821758240       -2.49571053942473
C            4.03236171907139       -1.99102243551192       -2.00109493136342
N            3.80432504025021       -1.04223505683291       -1.04759206918645
C            5.28147598541435       -2.41840776735039       -2.42870480541488
C            6.50875903123929       -1.96475260119850       -1.96933547879386
C            7.78348308817633       -2.43308018783600       -2.43332896912577
C            8.73099817116889       -1.74991379746829       -1.74225977374417
N            6.69861693227665       -1.00821319786501       -1.00839350488369
C            8.04086977171876       -0.86022802991087       -0.85314054451799
C            8.67117992165537        0.02803213342909        0.03755266838411
C            7.99826187867462        0.90588205426383        0.90636263788812
C            8.64419932612803        1.81287141269649        1.81099392584998
C            7.66331598833800        2.47843874395145        2.47219805978095
C            6.41215460402247        1.98099211332280        1.97514190153926
N            6.64913336763950        1.02606964369540        1.02319599585300
C            5.16305395031957        2.40644972288699        2.40197266052322
C            3.93548237035238        1.94673514118704        1.94619755983021
C            2.65581534363932        2.40720006084719        2.41122637264476
C            1.71262883228544        1.71689750920999        1.72331378551749
C            2.40840476384711        0.82910379642386        0.83217092683354
N            3.75418253659109        0.99036774318321        0.99027948205923
H            0.71607643344499       -0.06712392171062       -0.06307509914187
H            0.73059546459228       -1.92277339972203       -1.92908685212973
H            2.67253051012603       -3.24176800403707       -3.25680895986113
H            5.30047605135053       -3.18417340864474       -3.19747438872759
H            7.92154465403078       -3.18828865722177       -3.19103097398009
H            9.80360377683068       -1.83140304105344       -1.81904432490310
H            9.71244833930755        1.91710372441768        1.91650943554714
H            7.76370114806303        3.23916052110449        3.23034897493130
H            5.14442240729639        3.17399587989933        3.16899199390398
H            2.51443240429931        3.16285771639542        3.16812508483976
H            0.63903457306327        1.79030124864783        1.80021758870684
Cu          23.86138345511177        0.00862238213290       -0.00333038696694
C           27.28541894712881        0.07256406008449       -0.00496999412814
C           26.63325533181248        1.29600464095043       -0.06606289886672
C           27.28330780724689        2.57657239175651       -0.12945264964820
C           26.30562909123424        3.51535636932259       -0.17608886149250
C           25.05047350168767        2.81611248099724       -0.14124351017159
N           25.28022971644325        1.47290455773832       -0.07508023379062
C           23.80059723946902        3.41846857456801       -0.16907432328593
C           22.57412335848533        2.77221115753617       -0.13466526771461
C           21.29854930559693        3.42924417909342       -0.16258052824659
C           20.35227167578894        2.45760025073367       -0.11201987295980
N           22.38599848715046        1.41772609019459       -0.06848480436076
C           21.04400143879922        1.20202106925114       -0.05361403593594
C           20.41539197425972       -0.05523202246590        0.00700426188985
C           21.08991559372072       -1.28831809446541        0.05970494331055
C           20.44565744139861       -2.56877551789688        0.11933684143432
C           21.42776588903343       -3.50470884215837        0.16171721498650
C           22.67800473358811       -2.80065008586696        0.12859032047517
N           22.43927169641925       -1.45405142755337        0.06569418304967
C           23.92786610951499       -3.40098720860710        0.15832463389470
C           25.15462642136914       -2.75274645661613        0.12947812985988
C           26.43512987165365       -3.40468591526892        0.16283672464254
C           27.37706888797894       -2.42999434770625        0.11734353489711
C           26.67967373815515       -1.17450191117710        0.05564818076063
N           25.33419623815203       -1.40186966444135        0.06498931025474
H           28.37032644417493        0.09307329488489       -0.00499543434024
H           28.35237254560001        2.72125458082299       -0.13651444621327
H           26.40803433671421        4.58800732564849       -0.22923950578438
H           23.78024279798531        4.50223569084088       -0.22198802743247
H           21.15908890847419        4.49761284755168       -0.21412773129373
H           19.27952282231593        2.56815431629004       -0.11423450612206
H           19.37760062695841       -2.71827071383289        0.12696791554641
H           21.32873813432318       -4.57768469045812        0.21154227231694
H           23.94785559647989       -4.48484040834879        0.20990457743496
H           26.57787799552566       -4.47279442268825        0.21451351079753
H           28.45080243864349       -2.53468080665900        0.12400721044892
C           10.07681654547632        0.03443950803060        0.05769719654827
C           11.30093613370859        0.02046206464993        0.06555708338625
C           12.64409502867055        0.00379669462883        0.06873070128740
C           13.87412890391144       -0.02075329398383        0.06202676694111
C           15.21244281961384       -0.04299230185521        0.05312317352312
C           16.44250930692780       -0.06464516476248        0.04208069228422
C           17.78573859820129       -0.07320290742719        0.02939011756067
C           19.00986849333415       -0.07553372650727        0.01755265284274

          :  Hamiltonian                  GFN1-xTB          :
         :: total energy            -147.674881700076 Eh    ::
         :: gradient norm              0.000318553648 Eh/a0 ::
         :: HOMO-LUMO gap              0.000019669151 eV    ::
         :: SCC energy              -150.077404572687 Eh    ::
         :: repulsion energy           2.468743847837 Eh    ::

    * Orbital Energies and Occupations

         #    Occupation            Energy/Eh            Energy/eV
      -------------------------------------------------------------
         1        2.0000           -0.7643721             -20.7996
       ...           ...                  ...                  ...
       126        2.0000           -0.4112999             -11.1920
       127        2.0000           -0.4090850             -11.1318
       128        2.0000           -0.4081855             -11.1073
       129        2.0000           -0.4081851             -11.1073
       130        2.0000           -0.4081548             -11.1065
       131        2.0000           -0.4081545             -11.1064
       132        2.0000           -0.4078580             -11.0984
       133        2.0000           -0.4077532             -11.0955
       134        2.0000           -0.3956731             -10.7668
       135        2.0000           -0.3956728             -10.7668
       136        2.0000           -0.3902373             -10.6189
       137        2.0000           -0.3838801             -10.4459
       138        1.0002           -0.3551967              -9.6654 (HOMO)
       139        0.9998           -0.3551960              -9.6654 (LUMO)
       140                         -0.3370878              -9.1726
       141                         -0.3303296              -8.9887
       142                         -0.3276761              -8.9165
       143                         -0.3276754              -8.9165
       144                         -0.3003487              -8.1729
       145                         -0.2994192              -8.1476
       146                         -0.2872396              -7.8162
       147                         -0.2747558              -7.4765
       148                         -0.2264883              -6.1631
       149                         -0.2264869              -6.1630
       ...                                ...                  ...
       286                          1.6077421              43.7489
      -------------------------------------------------------------
                  HL-Gap            0.0000007 Eh            0.0000 eV

Wiberg/Mayer (AO) data.
largest (>0.10) Wiberg bond orders for each atom

     #   Z sym  total        # sym  WBO       # sym  WBO       # sym  WBO
 ---------------------------------------------------------------------------
     1  29 Cu   2.187 --    25 N    0.506     7 N    0.506    19 N    0.502
                            12 N    0.502
     2   6 C    3.935 --    24 C    1.362     3 C    1.362    26 H    0.972
     3   6 C    3.917 --     2 C    1.362     7 N    1.234     4 C    1.166
     4   6 C    3.955 --     5 C    1.662     3 C    1.166    27 H    0.976
     5   6 C    3.958 --     4 C    1.662     6 C    1.167    28 H    0.976
     6   6 C    3.914 --     8 C    1.359     7 N    1.234     5 C    1.167
     7   7 N    3.247 --     3 C    1.234     6 C    1.234     1 Cu   0.506
     8   6 C    3.940 --     9 C    1.368     6 C    1.359    29 H    0.971
     9   6 C    3.909 --     8 C    1.368    12 N    1.217    10 C    1.173
    10   6 C    3.954 --    11 C    1.650     9 C    1.173    30 H    0.976
    11   6 C    3.956 --    10 C    1.650    13 C    1.181    31 H    0.974
    12   7 N    3.251 --    13 C    1.262     9 C    1.217     1 Cu   0.502
    13   6 C    3.897 --    12 N    1.262    14 C    1.259    11 C    1.181
    14   6 C    3.945 --    15 C    1.261    13 C    1.259    73 C    1.187
    15   6 C    3.897 --    19 N    1.262    14 C    1.261    16 C    1.181
    16   6 C    3.957 --    17 C    1.650    15 C    1.181    32 H    0.974
    17   6 C    3.954 --    16 C    1.650    18 C    1.173    33 H    0.976
    18   6 C    3.909 --    20 C    1.368    19 N    1.217    17 C    1.173
    19   7 N    3.251 --    15 C    1.262    18 C    1.217     1 Cu   0.502
    20   6 C    3.940 --    18 C    1.368    21 C    1.359    34 H    0.971
    21   6 C    3.914 --    20 C    1.359    25 N    1.234    22 C    1.166
    22   6 C    3.957 --    23 C    1.662    21 C    1.166    35 H    0.976
    23   6 C    3.955 --    22 C    1.662    24 C    1.166    36 H    0.976
    24   6 C    3.917 --     2 C    1.362    25 N    1.234    23 C    1.166
    25   7 N    3.247 --    21 C    1.234    24 C    1.234     1 Cu   0.506
    26   1 H    1.001 --     2 C    0.972
    27   1 H    0.998 --     4 C    0.976
    28   1 H    0.998 --     5 C    0.976
    29   1 H    1.001 --     8 C    0.971
    30   1 H    0.998 --    10 C    0.976
    31   1 H    1.002 --    11 C    0.974
    32   1 H    1.002 --    16 C    0.974
    33   1 H    0.998 --    17 C    0.976
    34   1 H    1.001 --    20 C    0.971
    35   1 H    0.998 --    22 C    0.976
    36   1 H    0.998 --    23 C    0.976
    37  29 Cu   2.187 --    43 N    0.506    61 N    0.506    55 N    0.502
                            48 N    0.502
    38   6 C    3.935 --    60 C    1.362    39 C    1.362    62 H    0.972
    39   6 C    3.917 --    38 C    1.362    43 N    1.234    40 C    1.166
    40   6 C    3.955 --    41 C    1.662    39 C    1.166    63 H    0.976
    41   6 C    3.958 --    40 C    1.662    42 C    1.167    64 H    0.976
    42   6 C    3.914 --    44 C    1.359    43 N    1.234    41 C    1.167
    43   7 N    3.247 --    39 C    1.234    42 C    1.234    37 Cu   0.506
    44   6 C    3.940 --    45 C    1.368    42 C    1.359    65 H    0.971
    45   6 C    3.909 --    44 C    1.368    48 N    1.217    46 C    1.173
    46   6 C    3.954 --    47 C    1.650    45 C    1.173    66 H    0.976
    47   6 C    3.956 --    46 C    1.650    49 C    1.181    67 H    0.974
    48   7 N    3.251 --    49 C    1.262    45 C    1.217    37 Cu   0.502
    49   6 C    3.897 --    48 N    1.262    50 C    1.259    47 C    1.181
    50   6 C    3.945 --    51 C    1.261    49 C    1.259    80 C    1.188
    51   6 C    3.897 --    55 N    1.262    50 C    1.261    52 C    1.181
    52   6 C    3.957 --    53 C    1.650    51 C    1.181    68 H    0.974
    53   6 C    3.954 --    52 C    1.650    54 C    1.173    69 H    0.976
    54   6 C    3.909 --    56 C    1.368    55 N    1.217    53 C    1.173
    55   7 N    3.251 --    51 C    1.262    54 C    1.217    37 Cu   0.502
    56   6 C    3.940 --    54 C    1.368    57 C    1.359    70 H    0.971
    57   6 C    3.914 --    56 C    1.359    61 N    1.234    58 C    1.166
    58   6 C    3.957 --    59 C    1.662    57 C    1.166    71 H    0.976
    59   6 C    3.955 --    58 C    1.662    60 C    1.166    72 H    0.976
    60   6 C    3.917 --    38 C    1.362    61 N    1.234    59 C    1.166
    61   7 N    3.247 --    57 C    1.234    60 C    1.234    37 Cu   0.506
    62   1 H    1.001 --    38 C    0.972
    63   1 H    0.998 --    40 C    0.976
    64   1 H    0.998 --    41 C    0.976
    65   1 H    1.001 --    44 C    0.971
    66   1 H    0.998 --    46 C    0.976
    67   1 H    1.002 --    47 C    0.974
    68   1 H    1.002 --    52 C    0.974
    69   1 H    0.998 --    53 C    0.976
    70   1 H    1.001 --    56 C    0.971
    71   1 H    0.998 --    58 C    0.976
    72   1 H    0.998 --    59 C    0.976
    73   6 C    3.878 --    74 C    2.445    14 C    1.187    76 C    0.187
    74   6 C    3.937 --    73 C    2.445    75 C    1.340
    75   6 C    3.894 --    76 C    2.341    74 C    1.340    78 C    0.183
    76   6 C    3.927 --    75 C    2.341    77 C    1.365    73 C    0.187
    77   6 C    3.927 --    78 C    2.341    76 C    1.365    80 C    0.187
    78   6 C    3.894 --    77 C    2.341    79 C    1.340    75 C    0.183
    79   6 C    3.937 --    80 C    2.445    78 C    1.340
    80   6 C    3.878 --    79 C    2.445    50 C    1.188    77 C    0.187
 ---------------------------------------------------------------------------

           -------------------------------------------------
          | TOTAL ENERGY             -147.674881700076 Eh   |
          | GRADIENT NORM               0.000318553648 Eh/α |
          | HOMO-LUMO GAP               0.000019669151 eV   |
           -------------------------------------------------

 * finished run on 2022/07/30 at 04:24:03.023
