   * xtb version 6.5.1 (b24c23e) compiled by 'conda@728c89f4b128' on 2022-07-12
          program call               : xtb Zn_Ph_C8_3.xyz --gfn 1 --opt -T 48

   ID    Z sym.   atoms
    1   30 Zn     1, 57, 129
    2    6 C      2-6, 8-11, 13-29, 32-37, 58-62, 64-67, 69-85, 88-93,
                  113-128, 130-134, 136-139, 141-157, 160-165
    3    7 N      7, 12, 30, 31, 63, 68, 86, 87, 135, 140, 158, 159
    4    1 H      38-56, 94-112, 166-183

          :  Hamiltonian                  GFN1-xTB          :
 * total energy  :  -306.1758608 Eh     change        0.2580691E-09 Eh
 * total energy  :  -306.5904327 Eh     change       -0.4145719E+00 Eh
 * total energy  :  -306.7217150 Eh     change       -0.1312823E+00 Eh
 * total energy  :  -306.7820616 Eh     change       -0.6034666E-01 Eh
 * total energy  :  -306.8306331 Eh     change       -0.4857148E-01 Eh
 * total energy  :  -306.8862752 Eh     change       -0.5564208E-01 Eh
 * total energy  :  -306.9440598 Eh     change       -0.5778459E-01 Eh
 * total energy  :  -306.9979055 Eh     change       -0.5384574E-01 Eh
 * total energy  :  -307.0277230 Eh     change       -0.2981751E-01 Eh
 * total energy  :  -307.0424015 Eh     change       -0.1467849E-01 Eh
 * total energy  :  -307.1852382 Eh     change       -0.3236058E-04 Eh
 * total energy  :  -307.1852575 Eh     change       -0.1927024E-04 Eh
 * total energy  :  -307.1852669 Eh     change       -0.9362905E-05 Eh
 * total energy  :  -307.1852839 Eh     change       -0.1702885E-04 Eh
 * total energy  :  -307.1852958 Eh     change       -0.1192120E-04 Eh
 * total energy  :  -307.1853022 Eh     change       -0.6370523E-05 Eh
 * total energy  :  -307.1853083 Eh     change       -0.6121516E-05 Eh
 * total energy  :  -307.1853138 Eh     change       -0.5522851E-05 Eh
 * total energy  :  -307.1853161 Eh     change       -0.2256223E-05 Eh
   *** GEOMETRY OPTIMIZATION CONVERGED AFTER 68 ITERATIONS ***

 final structure:
================
183
 xtb: 6.5.1 (b24c23e)
Zn          23.70335348549063       -0.01045727554838       -0.00002146466947
C           20.29289974040048       -0.04146636090659       -0.02739932110784
C           20.92331505851932       -1.27844810392884       -0.09079440496307
C           20.25045985817187       -2.54658790746984       -0.13257267682883
C           21.21038182110592       -3.50439544000061       -0.17078602296919
C           22.48250467327371       -2.83201862045448       -0.16075973011905
N           22.27293420198102       -1.48509508605158       -0.10641467857528
C           23.73374436749864       -3.46032422643638       -0.17174682830192
C           24.97203355290554       -2.81244746912718       -0.12037669647980
C           26.25181971017187       -3.46333273796751       -0.17614996341185
C           27.19800022380711       -2.49178564541432       -0.11712402579125
N           25.16571120370679       -1.45872912585768       -0.03997024391032
C           26.50717702041556       -1.23856793568102       -0.03274393925074
C           27.13778445717749        0.02085608515747        0.03135225879286
C           26.48308258704797        1.26831812861400        0.08593517539044
C           27.15026007643113        2.53662946931999        0.11769035850873
C           26.18605543160422        3.49140920812583        0.15530707890653
C           24.91865297838165        2.81424338136192        0.15560043370106
C           23.66800765592791        3.44028312343707        0.17651237054850
C           23.65277236403287        4.92303050297159        0.25653990724502
C           23.09719946901678        5.68240577669331       -0.77405526980825
C           23.08568919830378        7.06710615370254       -0.69759936960623
C           23.62367961565634        7.70988270628756        0.40907459717909
C           24.17626904451014        6.96159905502885        1.43962993678279
C           24.19355014340362        5.57695082081583        1.36447929559990
C           22.42873412670099        2.78957240941836        0.13058651908496
C           21.14378929943647        3.43394610740130        0.19755690069424
C           20.20260094407853        2.45888659083628        0.13699524179256
C           20.89979700604364        1.20696113486413        0.04147287184232
N           22.24512791352289        1.44055817694180        0.04395276004494
N           25.13776398703708        1.46294475432418        0.10464006605962
C           23.74754562523498       -4.94393778621337       -0.24218944341159
C           23.23237573000394       -5.60457667893102       -1.35798221402220
C           23.25054162211398       -6.98984085073497       -1.42311276938926
C           23.77690785898459       -7.73133159530320       -0.37416250429377
C           24.28817463391938       -7.08146286219590        0.74100480195923
C           24.27701054614942       -5.69627181218324        0.80699058701387
H           19.20726957799040       -0.05197833324811       -0.02103497307556
H           19.17941188391610       -2.67589764515993       -0.12593515546533
H           21.07454475192792       -4.57390623839740       -0.19227903196455
H           26.40465815477007       -4.52707337133504       -0.26240198474310
H           28.27023727571955       -2.60560713177937       -0.13532985514173
H           28.22014813438456        2.67154905175911        0.10528965901939
H           26.31932857861815        4.56117496272764        0.16844883753526
H           22.68810236632669        5.18261759945815       -1.64517078367391
H           22.65565519164592        7.64707035965356       -1.50675868276157
H           23.61240902632350        8.79234284267280        0.46827398693746
H           24.59540208087789        7.45858795286685        2.30757930457168
H           24.61448243814747        4.99361631197133        2.17595897985838
H           20.98674112718338        4.49658900278913        0.29162363996334
H           19.12933714466763        2.56570244731065        0.16134456176955
H           22.83157421991763       -5.02644494761655       -2.18325587688654
H           22.85298677233721       -7.49262860290890       -2.29783897587434
H           23.78909682963888       -8.81417884222139       -0.42584406320419
H           24.69811566406216       -7.65613245782230        1.56426330052365
H           24.66695730365576       -5.19020054320170        1.68321716778017
Zn          60.93412794177689        0.03585570767215        0.00782043053400
C           64.34451348654896        0.06519913408177       -0.03506016423101
C           63.71510989811559        1.30429448097064       -0.04124696981344
C           64.38911110964703        2.57246185350733       -0.03068892045316
C           63.43003681328370        3.53183466697257       -0.02242835474095
C           62.15723976460313        2.86075300214832       -0.03615413502866
N           62.36564561414479        1.51258994939115       -0.04138202264683
C           60.90658429136415        3.49010150929365       -0.01540746843114
C           59.66786443795856        2.84162807434836        0.01306695116060
C           58.38845844284962        3.49520855727857       -0.01060832896375
C           57.44164691323222        2.52272651189833        0.01117815523622
N           59.47326285303178        1.48583634067536        0.03708532775518
C           58.13165863982551        1.26653993744033        0.04001064753826
C           57.49991334065884        0.00606877594548        0.05286926048905
C           58.15342753919833       -1.24315523714223        0.04964160753229
C           57.48518514170437       -2.51107299721028        0.02725528107325
C           58.44862875227835       -3.46732002933526        0.01855174613150
C           59.71666903441101       -2.79184551771945        0.04460375950508
C           60.96676727694392       -3.41926928192088        0.03307529427594
C           60.98029434357836       -4.90411618653083        0.04623352482486
C           61.53094338420435       -5.61670516991070       -1.01980771611289
C           61.53926665531296       -7.00347363948009       -1.00701031609215
C           61.00298791698552       -7.69510317024215        0.07065795949217
C           60.45574655719554       -6.99360446017709        1.13638078592730
C           60.44168883804946       -5.60692520767234        1.12491930870613
C           62.20649851364739       -2.76822857918774        0.01071331164173
C           63.49106776396989       -3.41597390805881        0.04354240084571
C           64.43297689103854       -2.43998950262074        0.02055896042943
C           63.73663492448619       -1.18452396391754       -0.01720496490712
N           62.39108823225614       -1.41686696533223       -0.01808023094202
N           59.49866000174992       -1.43946735492013        0.05476783328036
C           60.89459829036319        4.97533753164340       -0.02346707524155
C           61.40943393867471        5.68113416319906       -1.11149030927602
C           61.39456663265982        7.06791538142259       -1.11839765440656
C           60.87163383113074        7.76593320937948       -0.03834154381241
C           60.36025864462874        7.07098085227778        1.04924546482152
C           60.36824872115685        5.68419374544835        1.05707909048144
H           65.43017386408813        0.07452492510375       -0.03406417896716
H           65.46031248113589        2.70043385547985       -0.02343457964498
H           63.56696918686298        4.60112556873352        0.00264122861168
H           58.23622053961157        4.56173525294725       -0.05179754987610
H           56.36944445257101        2.63789690990956        0.00153915214521
H           56.41515120106942       -2.64458295755423        0.01239826541081
H           58.31434869056969       -4.53647831356461       -0.01594721534839
H           61.93845843697608       -5.07842193382331       -1.86843715874341
H           61.96524304783749       -7.54667525885071       -1.84337279248370
H           61.01136763567457       -8.77916897092885        0.07988080231657
H           60.03807598870549       -7.52892926447979        1.98195036538857
H           60.02479271717856       -5.06047805993160        1.96370322873274
H           63.64743717783025       -4.48181947715008        0.09093896757210
H           65.50624240031405       -2.54862394492630        0.03487137469091
H           61.80751585594267        5.13721364931450       -1.96098296797811
H           61.79204263158545        7.60602068210189       -1.97188884810954
H           60.86229657330571        8.85002287243428       -0.04434922225723
H           59.95291250887600        7.61155782798868        1.89653334794333
H           59.97849753099721        5.14278824335047        1.91201773169230
C           28.54213732149316        0.03343842322299        0.03050572887634
C           29.76703985991810        0.03621012149123        0.03123008792124
C           31.10907624242523        0.04127455194397        0.02890817471528
C           32.34007255089820        0.04411643552860        0.02260086183729
C           33.67731881707111        0.04449010679372        0.01636615882979
C           34.90832008498776        0.04451126773159        0.00766654839617
C           36.25013497031907        0.04359985181523       -0.00004196700581
C           37.47524864155685        0.04194102762902       -0.00668429707841
C           47.16248277271535        0.01892816330039        0.03886146087692
C           48.38755120094106        0.01232788237082        0.04855078497269
C           49.72935999845585        0.00589789240561        0.05693327506486
C           50.96037257594796       -0.00242207787524        0.06523373890986
C           52.29763475479399       -0.00802645550449        0.06827567779010
C           53.52862456224440       -0.00739127730705        0.07242128515248
C           54.87067760669373       -0.00671644215572        0.06933470105941
C           56.09554666033422       -0.00494566325415        0.05848512595432
Zn          42.31893606635122        0.03102095675411        0.00680779068292
C           38.87897510767152        0.03901376720648       -0.00815822784892
C           39.52016382373262       -1.21690933875045       -0.01492656186363
C           38.83971020098696       -2.47774436653852        0.00409159225041
C           39.79390070314521       -3.44369177005746       -0.01129803013653
C           41.06683259477817       -2.78009300976174       -0.04838699224671
N           40.86322215264442       -1.42575686401459       -0.04172042824482
C           42.31118933852899       -3.41892847576457       -0.06367777444462
C           43.55835439931554       -2.78543979900086       -0.05362218429957
C           44.82834283968047       -3.45274145319924       -0.11645745337300
C           45.78689942102999       -2.49135822833698       -0.09031295654615
N           43.76804684401782       -1.43293827650151       -0.00468731497421
C           45.11208500398706       -1.22932292399974       -0.01985694733361
C           45.75878070845114        0.02282884252799        0.02929642877885
C           45.11734627662752        1.27798958524589        0.06982481359972
C           45.79725042832401        2.53657135809711        0.15173210963245
C           44.84308012361691        3.50255519024025        0.16740527180544
C           43.57080643001451        2.84165870797869        0.08566399429587
C           42.32654570337402        3.48101806405430        0.08087149884014
C           42.32932957448453        4.96595920468784        0.11611233986165
C           41.76711734648410        5.64811248720029        1.19583356570993
C           41.77269685500573        7.03451307005084        1.22915184322895
C           42.33373452168756        7.75568532315463        0.18395281564677
C           42.89259595725279        7.08431993116062       -0.89503992069803
C           42.89383523502667        5.69788452181299       -0.92919744300111
C           41.07949508737856        2.84792075833033        0.04797927010238
C           39.81013373963448        3.51739511490652       -0.00401086793956
C           38.85160882505141        2.55589633523600       -0.02766694886465
C           39.52593070771673        1.29196161972610        0.00022999490668
N           40.86962408813263        1.49457272932212        0.03949698431179
N           43.77464081102854        1.48821659720879        0.03637207387448
C           42.30833711021864       -4.90409949767993       -0.09093342943701
C           41.76172759357264       -5.59106916321085       -1.17547161375956
C           41.76303008058205       -6.97771665318201       -1.19976932573101
C           42.30397183150156       -7.69408406871156       -0.14077586428845
C           42.84701769524550       -7.01777352731120        0.94318719335321
C           42.85260313023709       -5.63119506969114        0.96840094923859
H           37.76874518833193       -2.60087483346909        0.03222690621295
H           39.65007503917085       -4.51189295696390        0.01185297037199
H           44.96735997995213       -4.51970701156758       -0.18377464856171
H           46.85733679565797       -2.61812791356252       -0.12214546629983
H           46.86778374585595        2.65789057915353        0.19834876077786
H           44.98641872261170        4.56863535548413        0.23954984618060
H           41.33878161431210        5.08587863697484        2.01824308465409
H           41.33761344784779        7.55408726079274        2.07574017709048
H           42.33539842483103        8.83949315914167        0.21026468467460
H           43.32934002564364        7.64308104029577       -1.71540607654910
H           43.32040512642234        5.17498918514028       -1.77804406140877
H           39.67157196541703        4.58620488043916       -0.03098120390798
H           37.78158530160852        2.68386174757996       -0.06777175142544
H           41.34911956008378       -5.03268011383292       -2.00845985490066
H           41.34039655705704       -7.50128601904308       -2.05018803960965
H           42.30239076549994       -8.77803522406962       -0.16021647904441
H           43.26798896692119       -7.57268441170451        1.77434597225030
H           43.26689774130347       -5.10417114752856        1.82076506274054

          :  Hamiltonian                  GFN1-xTB          :
         :: total energy            -307.185316097058 Eh    ::
         :: gradient norm              0.000527318088 Eh/a0 ::
         :: HOMO-LUMO gap              0.930581798154 eV    ::
         :: SCC energy              -312.607303168985 Eh    ::
         :: repulsion energy           5.583978942086 Eh    ::

    * Orbital Energies and Occupations

         #    Occupation            Energy/Eh            Energy/eV
      -------------------------------------------------------------
         1        2.0000           -0.7606271             -20.6977
       ...           ...                  ...                  ...
       273        2.0000           -0.4202954             -11.4368
       274        2.0000           -0.4202930             -11.4368
       275        2.0000           -0.4200355             -11.4297
       276        2.0000           -0.4143265             -11.2744
       277        2.0000           -0.4068473             -11.0709
       278        2.0000           -0.4031553             -10.9704
       279        2.0000           -0.4031394             -10.9700
       280        2.0000           -0.3939892             -10.7210
       281        2.0000           -0.3928907             -10.6911
       282        2.0000           -0.3928905             -10.6911
       283        2.0000           -0.3858130             -10.4985
       284        2.0000           -0.3803553             -10.3500
       285        2.0000           -0.3740197             -10.1776 (HOMO)
       286                         -0.3398215              -9.2470 (LUMO)
       287                         -0.3314219              -9.0184
       288                         -0.3261883              -8.8760
       289                         -0.3260646              -8.8727
       290                         -0.3254080              -8.8548
       291                         -0.3253999              -8.8546
       292                         -0.3049646              -8.2985
       293                         -0.2962193              -8.0605
       294                         -0.2961928              -8.0598
       295                         -0.2950707              -8.0293
       296                         -0.2915142              -7.9325
       ...                                ...                  ...
       620                          1.6098820              43.8071
      -------------------------------------------------------------
                  HL-Gap            0.0341983 Eh            0.9306 eV

Wiberg/Mayer (AO) data.
largest (>0.10) Wiberg bond orders for each atom

     #   Z sym  total        # sym  WBO       # sym  WBO       # sym  WBO
 ---------------------------------------------------------------------------
     1  30 Zn   1.997 --     7 N    0.460    30 N    0.459    12 N    0.456
                            31 N    0.456
     2   6 C    3.926 --    29 C    1.357     3 C    1.357    38 H    0.971
     3   6 C    3.922 --     2 C    1.357     7 N    1.233     4 C    1.171
     4   6 C    3.960 --     5 C    1.658     3 C    1.171    39 H    0.976
     5   6 C    3.963 --     4 C    1.658     6 C    1.173    40 H    0.973
     6   6 C    3.918 --     8 C    1.313     7 N    1.244     5 C    1.173
     7   7 N    3.294 --     6 C    1.244     3 C    1.233     1 Zn   0.460
     8   6 C    3.933 --     9 C    1.326     6 C    1.313    32 C    1.025
     9   6 C    3.913 --     8 C    1.326    12 N    1.223    10 C    1.179
    10   6 C    3.960 --    11 C    1.647     9 C    1.179    41 H    0.973
    11   6 C    3.962 --    10 C    1.647    13 C    1.186    42 H    0.974
    12   7 N    3.297 --    13 C    1.264     9 C    1.223     1 Zn   0.456
    13   6 C    3.901 --    12 N    1.264    14 C    1.251    11 C    1.186
    14   6 C    3.938 --    15 C    1.252    13 C    1.251   113 C    1.195
    15   6 C    3.901 --    31 N    1.264    14 C    1.252    16 C    1.186
    16   6 C    3.962 --    17 C    1.646    15 C    1.186    43 H    0.974
    17   6 C    3.960 --    16 C    1.646    18 C    1.179    44 H    0.973
    18   6 C    3.913 --    19 C    1.326    31 N    1.224    17 C    1.179
    19   6 C    3.933 --    18 C    1.326    26 C    1.313    20 C    1.027
    20   6 C    3.988 --    21 C    1.395    25 C    1.395    19 C    1.027
                            23 C    0.108
    21   6 C    3.988 --    22 C    1.447    20 C    1.395    45 H    0.973
                            24 C    0.110
    22   6 C    3.995 --    21 C    1.447    23 C    1.438    46 H    0.973
                            25 C    0.110
    23   6 C    3.990 --    22 C    1.438    24 C    1.438    47 H    0.974
                            20 C    0.108
    24   6 C    3.995 --    25 C    1.447    23 C    1.438    48 H    0.973
                            21 C    0.110
    25   6 C    3.988 --    24 C    1.447    20 C    1.395    49 H    0.973
                            22 C    0.110
    26   6 C    3.918 --    19 C    1.313    30 N    1.245    27 C    1.173
    27   6 C    3.963 --    28 C    1.658    26 C    1.173    50 H    0.973
    28   6 C    3.960 --    27 C    1.658    29 C    1.171    51 H    0.976
    29   6 C    3.922 --     2 C    1.357    30 N    1.233    28 C    1.171
    30   7 N    3.294 --    26 C    1.245    29 C    1.233     1 Zn   0.459
    31   7 N    3.297 --    15 C    1.264    18 C    1.224     1 Zn   0.456
    32   6 C    3.988 --    33 C    1.396    37 C    1.396     8 C    1.025
                            35 C    0.108
    33   6 C    3.988 --    34 C    1.447    32 C    1.396    52 H    0.973
                            36 C    0.110
    34   6 C    3.995 --    33 C    1.447    35 C    1.438    53 H    0.973
                            37 C    0.110
    35   6 C    3.990 --    34 C    1.438    36 C    1.438    54 H    0.974
                            32 C    0.108
    36   6 C    3.995 --    37 C    1.447    35 C    1.438    55 H    0.973
                            33 C    0.110
    37   6 C    3.988 --    36 C    1.447    32 C    1.396    56 H    0.973
                            34 C    0.110
    38   1 H    1.002 --     2 C    0.971
    39   1 H    0.998 --     4 C    0.976
    40   1 H    1.005 --     5 C    0.973
    41   1 H    1.005 --    10 C    0.973
    42   1 H    1.002 --    11 C    0.974
    43   1 H    1.002 --    16 C    0.974
    44   1 H    1.005 --    17 C    0.973
    45   1 H    1.005 --    21 C    0.973
    46   1 H    1.003 --    22 C    0.973
    47   1 H    1.003 --    23 C    0.974
    48   1 H    1.003 --    24 C    0.973
    49   1 H    1.005 --    25 C    0.973
    50   1 H    1.005 --    27 C    0.973
    51   1 H    0.998 --    28 C    0.976
    52   1 H    1.005 --    33 C    0.973
    53   1 H    1.003 --    34 C    0.973
    54   1 H    1.003 --    35 C    0.974
    55   1 H    1.003 --    36 C    0.973
    56   1 H    1.005 --    37 C    0.973
    57  30 Zn   1.997 --    63 N    0.460    86 N    0.459    68 N    0.456
                            87 N    0.456
    58   6 C    3.926 --    59 C    1.357    85 C    1.357    94 H    0.971
    59   6 C    3.922 --    58 C    1.357    63 N    1.233    60 C    1.171
    60   6 C    3.960 --    61 C    1.658    59 C    1.171    95 H    0.976
    61   6 C    3.963 --    60 C    1.658    62 C    1.173    96 H    0.973
    62   6 C    3.918 --    64 C    1.313    63 N    1.245    61 C    1.173
    63   7 N    3.294 --    62 C    1.245    59 C    1.233    57 Zn   0.460
    64   6 C    3.933 --    65 C    1.326    62 C    1.313    88 C    1.025
    65   6 C    3.913 --    64 C    1.326    68 N    1.223    66 C    1.179
    66   6 C    3.960 --    67 C    1.647    65 C    1.179    97 H    0.973
    67   6 C    3.962 --    66 C    1.647    69 C    1.186    98 H    0.974
    68   7 N    3.297 --    69 C    1.265    65 C    1.223    57 Zn   0.456
    69   6 C    3.901 --    68 N    1.265    70 C    1.251    67 C    1.186
    70   6 C    3.938 --    71 C    1.252    69 C    1.251   128 C    1.195
    71   6 C    3.901 --    87 N    1.264    70 C    1.252    72 C    1.186
    72   6 C    3.962 --    73 C    1.646    71 C    1.186    99 H    0.974
    73   6 C    3.960 --    72 C    1.646    74 C    1.179   100 H    0.973
    74   6 C    3.913 --    75 C    1.325    87 N    1.224    73 C    1.179
    75   6 C    3.933 --    74 C    1.325    82 C    1.313    76 C    1.027
    76   6 C    3.988 --    77 C    1.395    81 C    1.395    75 C    1.027
                            79 C    0.108
    77   6 C    3.988 --    78 C    1.447    76 C    1.395   101 H    0.973
                            80 C    0.110
    78   6 C    3.995 --    77 C    1.447    79 C    1.438   102 H    0.973
                            81 C    0.110
    79   6 C    3.990 --    78 C    1.438    80 C    1.438   103 H    0.974
                            76 C    0.108
    80   6 C    3.995 --    81 C    1.447    79 C    1.438   104 H    0.973
                            77 C    0.110
    81   6 C    3.988 --    80 C    1.447    76 C    1.395   105 H    0.973
                            78 C    0.110
    82   6 C    3.918 --    75 C    1.313    86 N    1.245    83 C    1.173
    83   6 C    3.963 --    84 C    1.658    82 C    1.173   106 H    0.973
    84   6 C    3.960 --    83 C    1.658    85 C    1.171   107 H    0.976
    85   6 C    3.922 --    58 C    1.357    86 N    1.233    84 C    1.171
    86   7 N    3.294 --    82 C    1.245    85 C    1.233    57 Zn   0.459
    87   7 N    3.297 --    71 C    1.264    74 C    1.224    57 Zn   0.456
    88   6 C    3.988 --    89 C    1.396    93 C    1.396    64 C    1.025
                            91 C    0.108
    89   6 C    3.988 --    90 C    1.447    88 C    1.396   108 H    0.973
                            92 C    0.110
    90   6 C    3.995 --    89 C    1.447    91 C    1.438   109 H    0.973
                            93 C    0.110
    91   6 C    3.990 --    90 C    1.438    92 C    1.438   110 H    0.974
                            88 C    0.108
    92   6 C    3.995 --    93 C    1.447    91 C    1.438   111 H    0.973
                            89 C    0.110
    93   6 C    3.988 --    92 C    1.447    88 C    1.396   112 H    0.973
                            90 C    0.110
    94   1 H    1.002 --    58 C    0.971
    95   1 H    0.998 --    60 C    0.976
    96   1 H    1.005 --    61 C    0.973
    97   1 H    1.005 --    66 C    0.973
    98   1 H    1.002 --    67 C    0.974
    99   1 H    1.002 --    72 C    0.974
   100   1 H    1.005 --    73 C    0.973
   101   1 H    1.005 --    77 C    0.973
   102   1 H    1.003 --    78 C    0.973
   103   1 H    1.003 --    79 C    0.974
   104   1 H    1.003 --    80 C    0.973
   105   1 H    1.005 --    81 C    0.973
   106   1 H    1.005 --    83 C    0.973
   107   1 H    0.998 --    84 C    0.976
   108   1 H    1.005 --    89 C    0.973
   109   1 H    1.003 --    90 C    0.973
   110   1 H    1.003 --    91 C    0.974
   111   1 H    1.003 --    92 C    0.973
   112   1 H    1.005 --    93 C    0.973
   113   6 C    3.876 --   114 C    2.435    14 C    1.195   116 C    0.186
   114   6 C    3.933 --   113 C    2.435   115 C    1.347
   115   6 C    3.891 --   116 C    2.332   114 C    1.347   118 C    0.182
   116   6 C    3.924 --   115 C    2.332   117 C    1.372   113 C    0.186
   117   6 C    3.923 --   118 C    2.331   116 C    1.372   120 C    0.186
   118   6 C    3.892 --   117 C    2.331   119 C    1.348   115 C    0.182
   119   6 C    3.930 --   120 C    2.432   118 C    1.348
   120   6 C    3.876 --   119 C    2.432   130 C    1.198   117 C    0.186
   121   6 C    3.876 --   122 C    2.432   142 C    1.198   124 C    0.186
   122   6 C    3.930 --   121 C    2.432   123 C    1.348
   123   6 C    3.892 --   124 C    2.331   122 C    1.348   126 C    0.182
   124   6 C    3.923 --   123 C    2.331   125 C    1.372   121 C    0.186
   125   6 C    3.924 --   126 C    2.332   124 C    1.372   128 C    0.186
   126   6 C    3.891 --   125 C    2.332   127 C    1.347   123 C    0.182
   127   6 C    3.933 --   128 C    2.435   126 C    1.347
   128   6 C    3.876 --   127 C    2.435    70 C    1.195   125 C    0.186
   129  30 Zn   1.994 --   140 N    0.456   159 N    0.456   135 N    0.456
                           158 N    0.456
   130   6 C    3.926 --   131 C    1.249   157 C    1.249   120 C    1.198
   131   6 C    3.902 --   135 N    1.264   130 C    1.249   132 C    1.188
   132   6 C    3.960 --   133 C    1.643   131 C    1.188   166 H    0.974
   133   6 C    3.960 --   132 C    1.643   134 C    1.182   167 H    0.973
   134   6 C    3.910 --   136 C    1.320   135 N    1.224   133 C    1.182
   135   7 N    3.291 --   131 C    1.264   134 C    1.224   129 Zn   0.456
   136   6 C    3.929 --   134 C    1.320   137 C    1.320   160 C    1.025
   137   6 C    3.910 --   136 C    1.320   140 N    1.224   138 C    1.182
   138   6 C    3.960 --   139 C    1.643   137 C    1.182   168 H    0.973
   139   6 C    3.960 --   138 C    1.643   141 C    1.188   169 H    0.974
   140   7 N    3.291 --   141 C    1.264   137 C    1.224   129 Zn   0.456
   141   6 C    3.902 --   140 N    1.264   142 C    1.249   139 C    1.188
   142   6 C    3.926 --   143 C    1.249   141 C    1.249   121 C    1.198
   143   6 C    3.902 --   159 N    1.264   142 C    1.249   144 C    1.188
   144   6 C    3.960 --   145 C    1.643   143 C    1.188   170 H    0.974
   145   6 C    3.960 --   144 C    1.643   146 C    1.182   171 H    0.973
   146   6 C    3.910 --   147 C    1.320   159 N    1.224   145 C    1.182
   147   6 C    3.929 --   146 C    1.320   154 C    1.320   148 C    1.026
   148   6 C    3.988 --   153 C    1.396   149 C    1.396   147 C    1.026
                           151 C    0.108
   149   6 C    3.988 --   150 C    1.447   148 C    1.396   172 H    0.973
                           152 C    0.110
   150   6 C    3.995 --   149 C    1.447   151 C    1.438   173 H    0.973
                           153 C    0.110
   151   6 C    3.990 --   152 C    1.438   150 C    1.438   174 H    0.974
                           148 C    0.108
   152   6 C    3.995 --   153 C    1.447   151 C    1.438   175 H    0.973
                           149 C    0.110
   153   6 C    3.988 --   152 C    1.447   148 C    1.396   176 H    0.973
                           150 C    0.110
   154   6 C    3.910 --   147 C    1.320   158 N    1.224   155 C    1.182
   155   6 C    3.960 --   156 C    1.643   154 C    1.182   177 H    0.973
   156   6 C    3.960 --   155 C    1.643   157 C    1.188   178 H    0.974
   157   6 C    3.902 --   158 N    1.264   130 C    1.249   156 C    1.188
   158   7 N    3.291 --   157 C    1.264   154 C    1.224   129 Zn   0.456
   159   7 N    3.291 --   143 C    1.264   146 C    1.224   129 Zn   0.456
   160   6 C    3.988 --   161 C    1.396   165 C    1.396   136 C    1.025
                           163 C    0.108
   161   6 C    3.988 --   162 C    1.447   160 C    1.396   179 H    0.973
                           164 C    0.110
   162   6 C    3.995 --   161 C    1.447   163 C    1.438   180 H    0.973
                           165 C    0.110
   163   6 C    3.990 --   162 C    1.438   164 C    1.438   181 H    0.974
                           160 C    0.108
   164   6 C    3.995 --   165 C    1.447   163 C    1.438   182 H    0.973
                           161 C    0.110
   165   6 C    3.988 --   164 C    1.447   160 C    1.396   183 H    0.973
                           162 C    0.110
   166   1 H    1.002 --   132 C    0.974
   167   1 H    1.005 --   133 C    0.973
   168   1 H    1.005 --   138 C    0.973
   169   1 H    1.002 --   139 C    0.974
   170   1 H    1.002 --   144 C    0.974
   171   1 H    1.005 --   145 C    0.973
   172   1 H    1.005 --   149 C    0.973
   173   1 H    1.003 --   150 C    0.973
   174   1 H    1.003 --   151 C    0.974
   175   1 H    1.003 --   152 C    0.973
   176   1 H    1.005 --   153 C    0.973
   177   1 H    1.005 --   155 C    0.973
   178   1 H    1.002 --   156 C    0.974
   179   1 H    1.005 --   161 C    0.973
   180   1 H    1.003 --   162 C    0.973
   181   1 H    1.003 --   163 C    0.974
   182   1 H    1.003 --   164 C    0.973
   183   1 H    1.005 --   165 C    0.973
 ---------------------------------------------------------------------------

           -------------------------------------------------
          | TOTAL ENERGY             -307.185316097058 Eh   |
          | GRADIENT NORM               0.000527318088 Eh/α |
          | HOMO-LUMO GAP               0.930581798154 eV   |
           -------------------------------------------------

 * finished run on 2022/07/30 at 11:42:44.749
