   * xtb version 6.5.1 (b24c23e) compiled by 'conda@728c89f4b128' on 2022-07-12
          program call               : xtb Co_Ph3Me_C4_2.xyz --gfn 1 --opt -T 48

   ID    Z sym.   atoms
    1   27 Co     1, 75
    2    6 C      2-6, 8-20, 22-27, 29-42, 76-80, 82-94, 96-101, 103-116,
                  149-152
    3    7 N      7, 21, 28, 43, 81, 95, 102, 117
    4    1 H      44-74, 118-148
########################################################################
[WARNING] Please study the warnings concerning your input carefully
-1- prog_main_parseArguments: Unknown option '-T' provided
########################################################################

          :  Hamiltonian                  GFN1-xTB          :
 * total energy  :  -234.4564192 Eh     change        0.2535842E-08 Eh
 * total energy  :  -234.9865850 Eh     change       -0.5301658E+00 Eh
 * total energy  :  -235.0702530 Eh     change       -0.8366797E-01 Eh
 * total energy  :  -235.1129092 Eh     change       -0.4265627E-01 Eh
 * total energy  :  -235.1253569 Eh     change       -0.1244772E-01 Eh
 * total energy  :  -235.1316962 Eh     change       -0.6339221E-02 Eh
 * total energy  :  -235.1349058 Eh     change       -0.3209614E-02 Eh
 * total energy  :  -235.1362486 Eh     change       -0.1342838E-02 Eh
 * total energy  :  -235.1375171 Eh     change       -0.1268451E-02 Eh
 * total energy  :  -235.1382214 Eh     change       -0.7042915E-03 Eh
 * total energy  :  -235.1403074 Eh     change       -0.2297310E-04 Eh
 * total energy  :  -235.1403279 Eh     change       -0.2041038E-04 Eh
 * total energy  :  -235.1403519 Eh     change       -0.2406113E-04 Eh
 * total energy  :  -235.1403790 Eh     change       -0.2704917E-04 Eh
 * total energy  :  -235.1404044 Eh     change       -0.2545003E-04 Eh
 * total energy  :  -235.1404266 Eh     change       -0.2218062E-04 Eh
 * total energy  :  -235.1404409 Eh     change       -0.1432109E-04 Eh
 * total energy  :  -235.1404476 Eh     change       -0.6646807E-05 Eh
 * total energy  :  -235.1404517 Eh     change       -0.4159732E-05 Eh
   *** GEOMETRY OPTIMIZATION CONVERGED AFTER 37 ITERATIONS ***

 final structure:
================
152
 xtb: 6.5.1 (b24c23e)
Co          15.79743719030970        0.08112518674033       -0.00015531584622
C           12.40607102272921        0.13276531508566       -0.02224832780957
C           13.06990217763086        1.15641011180227        0.61770136083799
C           12.40444998121598        2.24707743949900        1.26388889791396
C           13.36867929258732        3.11369183778723        1.65216652825961
C           14.62053484386333        2.54842904737955        1.24237697917835
N           14.43145341571747        1.32830107373619        0.64518203107197
C           15.83138618294308        3.21216272886019        1.35704564308358
C           15.84303428879867        4.59306849006198        1.91546140693629
C           15.67129726620445        5.68711067684737        1.06254616353069
C           15.47480075864141        5.46589041095861       -0.41353811515583
C           15.68274104460749        6.97271890014514        1.59073430467465
C           15.86029807744517        7.18365628175301        2.95406705048184
C           15.89057065134098        8.58079771100833        3.51232732737714
C           16.03025385584161        6.08697591335887        3.79315020259772
C           16.02342519480289        4.79256020548362        3.28705671774578
C           16.20644068806149        3.60989408580019        4.20026840718391
C           17.02758018321381        2.64339587735046        0.95739993888245
C           18.28943999197156        3.31221543813628        1.05673694286676
C           19.23541158221507        2.41311868101764        0.69491317959669
N           17.19648119230023        1.35250462155271        0.50972908217050
C           18.54784450160620        1.20117242712748        0.37690170514559
C           19.20797137258003        0.01069500554833        0.06275332251379
C           18.51413557081821       -1.15827448898717       -0.25873161230291
C           19.16663966868698       -2.39367868933932       -0.56028924751042
C           18.19726833057012       -3.26430873620285       -0.92939378338343
C           16.95682842773252       -2.55303691881529       -0.85645526550605
N           17.15988036653460       -1.26837295194664       -0.40390862913023
C           15.75239461557693       -3.07958007997908       -1.28720308727908
C           15.72803181280725       -4.45927666461968       -1.84818113532911
C           15.97007777919479       -4.66493145973007       -3.20991897511212
C           16.25863887392374       -3.49118712801782       -4.10734077277543
C           15.94150834911880       -5.95684337929594       -3.71998608529392
C           15.67714179356249       -7.04631837962468       -2.89473769812727
C           15.63967157937617       -8.43612758871941       -3.47073109865121
C           15.43776408006041       -6.82941407790965       -1.54267195241426
C           15.46004951109236       -5.54497558702120       -1.01035307796180
C           15.19874194983468       -5.31747763652532        0.45465083881502
C           14.56481207566834       -2.36892369729222       -1.21395773143392
C           13.30699281709959       -2.88263563360165       -1.67028102616061
C           12.36477342464496       -1.97863533839346       -1.31389479675936
C           13.04978136501634       -0.91641646516129       -0.64149133328597
N           14.40239945454697       -1.14643383212337       -0.61445267604068
H           11.32275710962447        0.15442902806050       -0.04037424132278
H           11.33539381669585        2.32497665083876        1.38273980879664
H           13.26262910105365        4.05841511834596        2.16074783140716
H           14.57552191805316        4.87289293660931       -0.59087973433768
H           16.32218001445171        4.91932761529305       -0.83155384524953
H           15.37658236289803        6.41485491867120       -0.93978114853115
H           15.54922717311309        7.82208807310706        0.92876970922847
H           15.48707394736991        8.60298929182889        4.52501024512137
H           16.92042270992365        8.94362196195011        3.54980386403423
H           15.31327451455562        9.26217385673182        2.88703920289709
H           16.16866031562076        6.24255571204111        4.85809928939763
H           17.09102092965243        3.04026386325491        3.90914251191257
H           16.32263497631777        3.93112244566261        5.23488971220248
H           15.34439759264720        2.94338813053552        4.13497348757469
H           18.41658227767520        4.33505092266270        1.37254784250753
H           20.30526933508482        2.53863595433187        0.65061290900674
H           20.23113070295063       -2.55338833777033       -0.49949813479850
H           18.29541877618734       -4.29258343119168       -1.23778292273023
H           15.44389371313499       -2.76646205989668       -4.05852473861056
H           16.38037723469591       -3.81239721916431       -5.14134690344897
H           17.17290965434505       -2.98705319306168       -3.78818415058844
H           16.12865985882651       -6.11816073491975       -4.77662281551403
H           16.51193275373799       -8.61326866483582       -4.10161790409530
H           15.61982925232229       -9.18645637432227       -2.68045208940814
H           14.74729205070414       -8.56178592167699       -4.08772757407005
H           15.23095426263111       -7.67212715389551       -0.89113675691207
H           14.31214977761248       -4.69461253576918        0.58822832670033
H           16.04219359764174       -4.79973130362387        0.91500985037281
H           15.04229292487801       -6.26260538865079        0.97364996574594
H           13.18175218643216       -3.82051758014960       -2.18709720678337
H           11.29869112564431       -2.01251681643230       -1.47321327752582
Co          29.21868764035134       -0.05880348490593       -0.05402585578980
C           32.61006707283432       -0.08157260347345       -0.10282202431878
C           31.94613130932600       -1.26304297710002       -0.35055256743266
C           32.61151057432652       -2.49745693338560       -0.63943495439118
C           31.64735922695867       -3.39104807515340       -0.96102206444121
C           30.39560138669139       -2.69915130151859       -0.86620136134797
N           30.58463811458807       -1.40564104186373       -0.45122393656925
C           29.18495453143438       -3.25694614693375       -1.24445794049061
C           29.17363771450887       -4.63947621699570       -1.79883633137631
C           29.34738085312162       -4.83723252140142       -3.17163848798300
C           29.54539982323472       -3.65490066962460       -4.08227172587017
C           29.33653957521204       -6.13013256443927       -3.68173216073844
C           29.15763785623845       -7.22693954417772       -2.84525077124370
C           29.12814568916858       -8.62110083402029       -3.41095308670099
C           28.98564675525986       -7.01769705601896       -1.48059458058264
C           28.99183047344389       -5.73375899549297       -0.94847544636551
C           28.80670546895364       -5.51393237878037        0.52920928717297
C           27.98876711107643       -2.56982616030743       -1.13903503232124
C           26.72696256305909       -3.12075611814553       -1.53123387656790
C           25.78096200101047       -2.22180566499934       -1.16910048590614
N           27.81978510583055       -1.32898054042137       -0.56715410551167
C           26.46845675385200       -1.12775019114950       -0.55828032148312
C           25.80818917180618       -0.05169346724168        0.03994713102753
C           26.50188198635250        1.01405122100220        0.61807029877016
C           25.84943096729633        2.11409962447669        1.25611584908167
C           26.81875849699733        2.99814442063605        1.59197389527076
C           28.05912218567626        2.43469425202225        1.15160915992096
N           27.85613746616190        1.19422237885320        0.58910744948958
C           29.26337593279942        3.11326789580187        1.20447697835320
C           29.28738459832658        4.49785918268479        1.75327620874772
C           29.04458815379759        5.58781420686312        0.91168653717391
C           28.75539226851616        5.36010144257339       -0.54804773407330
C           29.07300225290857        6.87389094513252        1.43629208517947
C           29.33793223443941        7.09060940096225        2.78563446656944
C           29.37537877936854        8.49301733531509        3.33023601685271
C           29.57792256437326        5.99920933923366        3.61248587059019
C           29.55581098724550        4.70314226215324        3.10911921006712
C           29.81777276236079        3.52602789978398        4.01025945663677
C           30.45108372770940        2.54962648289586        0.76583793752444
C           31.70894104084768        3.23616239681676        0.79238822108928
C           32.65135571957367        2.33662847563545        0.42535462744517
C           31.96639466840615        1.10449924585411        0.17566808704194
N           30.61367419930369        1.25206977977324        0.35329704823344
H           33.69340586771796       -0.08496859453113       -0.12987116027358
H           33.68048879195307       -2.63630119809695       -0.60656812151573
H           31.75339652222923       -4.42467160287552       -1.24873974460320
H           30.44451336093219       -3.10478815584984       -3.79807373101841
H           28.69815663995948       -2.97089144185696       -4.00593504859736
H           29.64481156608106       -3.97441592390622       -5.11916051315276
H           29.47164460228994       -6.28379562841158       -4.74736910454936
H           29.53068753738700       -9.33883526959024       -2.69565697324458
H           28.09860151659825       -8.90867738148951       -3.63674146750960
H           29.70669204095060       -8.67906204150743       -4.33315346987643
H           28.84619093908343       -7.86782206542390       -0.82080864946967
H           27.92169470303915       -4.90175195016420        0.71281127191970
H           28.69003994433668       -6.46250943345381        1.05239249064751
H           29.66802445927962       -4.98790792190273        0.94518757445512
H           26.59987886107118       -4.07696355006729       -2.01249679603402
H           24.71110455477409       -2.28150261076566       -1.28812338187386
H           24.78501504383207        2.18699248680188        1.41116537900028
H           26.72061081334493        3.95363838254812        2.08134818671941
H           29.57004694213863        4.80291885506900       -1.01420537000471
H           28.63315699222209        6.30700505828470       -1.07302049995955
H           27.84120853994408        4.77497730892671       -0.66553210944446
H           28.88530441589954        7.72088847774393        0.78445186142565
H           28.50294220041833        9.05704411442712        2.99712479231139
H           29.39558683995809        8.48885141953231        4.41996177662563
H           30.26757795367125        9.01045618169533        2.97099129164432
H           29.78510634043286        6.15771320125012        4.66575998900036
H           30.70450511433874        2.98399105959444        3.67596625626564
H           28.97458185565987        2.83335516907427        3.98510936380081
H           29.97431598132676        3.85014584695402        5.03863030952477
H           31.83409815710694        4.27098539975228        1.06785767083148
H           33.71752220386436        2.47118652325331        0.33454280882540
C           21.83376871227574       -0.01844264081019        0.07029149353065
C           20.61112020481806       -0.00991259227190        0.06801217278814
C           23.18247753717520       -0.03038112680188        0.06513445447172
C           24.40505091019099       -0.04044855429612        0.05703862602707

          :  Hamiltonian                  GFN1-xTB          :
         :: total energy            -235.140451723850 Eh    ::
         :: gradient norm              0.000308519384 Eh/a0 ::
         :: HOMO-LUMO gap              0.011248121068 eV    ::
         :: SCC energy              -238.889839256171 Eh    ::
         :: repulsion energy           3.885718328282 Eh    ::

    * Orbital Energies and Occupations

         #    Occupation            Energy/Eh            Energy/eV
      -------------------------------------------------------------
         1        2.0000           -0.7694756             -20.9385
       ...           ...                  ...                  ...
       208        2.0000           -0.4204952             -11.4423
       209        2.0000           -0.4198358             -11.4243
       210        2.0000           -0.3964815             -10.7888
       211        2.0000           -0.3957734             -10.7695
       212        2.0000           -0.3957696             -10.7694
       213        2.0000           -0.3938340             -10.7168
       214        2.0000           -0.3938108             -10.7161
       215        1.9999           -0.3907796             -10.6337
       216        1.9999           -0.3907785             -10.6336
       217        1.9999           -0.3907070             -10.6317
       218        1.9999           -0.3907067             -10.6317
       219        1.9088           -0.3845650             -10.4645
       220        1.1540           -0.3819706             -10.3939 (HOMO)
       221        0.9378           -0.3815572             -10.3827 (LUMO)
       222                         -0.3376291              -9.1874
       223                         -0.3247184              -8.8360
       224                         -0.3247102              -8.8358
       225                         -0.3238215              -8.8116
       226                         -0.2953613              -8.0372
       227                         -0.2950153              -8.0278
       228                         -0.2948659              -8.0237
       229                         -0.2870158              -7.8101
       230                         -0.2610861              -7.1045
       231                         -0.2564571              -6.9786
       ...                                ...                  ...
       494                          1.5150517              41.2267
      -------------------------------------------------------------
                  HL-Gap            0.0004134 Eh            0.0112 eV

Wiberg/Mayer (AO) data.
largest (>0.10) Wiberg bond orders for each atom

     #   Z sym  total        # sym  WBO       # sym  WBO       # sym  WBO
 ---------------------------------------------------------------------------
     1  27 Co   3.030 --     7 N    0.637    43 N    0.635    28 N    0.632
                            21 N    0.630
     2   6 C    3.927 --     3 C    1.365    42 C    1.364    44 H    0.970
     3   6 C    3.926 --     2 C    1.365     7 N    1.204     4 C    1.174
     4   6 C    3.960 --     5 C    1.649     3 C    1.174    45 H    0.975
     5   6 C    3.963 --     4 C    1.649     6 C    1.175    46 H    0.974
     6   6 C    3.920 --     8 C    1.323     7 N    1.212     5 C    1.175
     7   7 N    3.344 --     6 C    1.212     3 C    1.204     1 Co   0.637
     8   6 C    3.931 --    18 C    1.338     6 C    1.323     9 C    1.004
     9   6 C    3.987 --    10 C    1.380    16 C    1.380     8 C    1.004
                            13 C    0.104
    10   6 C    3.984 --    12 C    1.420     9 C    1.380    11 C    1.021
                            15 C    0.103
    11   6 C    3.995 --    10 C    1.021    49 H    0.986    48 H    0.974
                            47 H    0.973
    12   6 C    3.993 --    10 C    1.420    13 C    1.414    50 H    0.970
                            16 C    0.103
    13   6 C    3.988 --    12 C    1.414    15 C    1.413    14 C    1.020
                             9 C    0.104
    14   6 C    3.996 --    13 C    1.020    53 H    0.983    51 H    0.982
                            52 H    0.971
    15   6 C    3.993 --    16 C    1.421    13 C    1.413    54 H    0.970
                            10 C    0.103
    16   6 C    3.985 --    15 C    1.421     9 C    1.380    17 C    1.020
                            12 C    0.103
    17   6 C    3.995 --    16 C    1.020    56 H    0.986    57 H    0.974
                            55 H    0.974
    18   6 C    3.917 --     8 C    1.338    21 N    1.191    19 C    1.180
    19   6 C    3.959 --    20 C    1.638    18 C    1.180    58 H    0.974
    20   6 C    3.962 --    19 C    1.638    22 C    1.190    59 H    0.973
    21   7 N    3.347 --    22 C    1.235    18 C    1.191     1 Co   0.630
    22   6 C    3.906 --    23 C    1.258    21 N    1.235    20 C    1.190
    23   6 C    3.931 --    24 C    1.259    22 C    1.258   150 C    1.191
    24   6 C    3.906 --    23 C    1.259    28 N    1.236    25 C    1.189
    25   6 C    3.962 --    26 C    1.639    24 C    1.189    60 H    0.973
    26   6 C    3.959 --    25 C    1.639    27 C    1.180    61 H    0.974
    27   6 C    3.917 --    29 C    1.340    28 N    1.191    26 C    1.180
    28   7 N    3.346 --    24 C    1.236    27 C    1.191     1 Co   0.632
    29   6 C    3.931 --    27 C    1.340    39 C    1.322    30 C    1.004
    30   6 C    3.987 --    37 C    1.383    31 C    1.377    29 C    1.004
                            34 C    0.104
    31   6 C    3.984 --    33 C    1.425    30 C    1.377    32 C    1.020
                            36 C    0.102
    32   6 C    3.995 --    31 C    1.020    63 H    0.986    62 H    0.975
                            64 H    0.973
    33   6 C    3.993 --    31 C    1.425    34 C    1.410    65 H    0.971
                            37 C    0.103
    34   6 C    3.988 --    36 C    1.418    33 C    1.410    35 C    1.020
                            30 C    0.104
    35   6 C    3.996 --    34 C    1.020    67 H    0.985    66 H    0.979
                            68 H    0.973
    36   6 C    3.992 --    34 C    1.418    37 C    1.417    69 H    0.970
                            31 C    0.102
    37   6 C    3.984 --    36 C    1.417    30 C    1.383    38 C    1.021
                            33 C    0.103
    38   6 C    3.995 --    37 C    1.021    72 H    0.986    71 H    0.974
                            70 H    0.973
    39   6 C    3.920 --    29 C    1.322    43 N    1.212    40 C    1.176
    40   6 C    3.963 --    41 C    1.648    39 C    1.176    73 H    0.974
    41   6 C    3.960 --    40 C    1.648    42 C    1.175    74 H    0.975
    42   6 C    3.926 --     2 C    1.364    43 N    1.204    41 C    1.175
    43   7 N    3.346 --    39 C    1.212    42 C    1.204     1 Co   0.635
    44   1 H    1.000 --     2 C    0.970
    45   1 H    0.998 --     4 C    0.975
    46   1 H    1.002 --     5 C    0.974
    47   1 H    1.007 --    11 C    0.973
    48   1 H    1.007 --    11 C    0.974
    49   1 H    1.004 --    11 C    0.986
    50   1 H    1.000 --    12 C    0.970
    51   1 H    1.004 --    14 C    0.982
    52   1 H    1.006 --    14 C    0.971
    53   1 H    1.004 --    14 C    0.983
    54   1 H    1.000 --    15 C    0.970
    55   1 H    1.007 --    17 C    0.974
    56   1 H    1.004 --    17 C    0.986
    57   1 H    1.007 --    17 C    0.974
    58   1 H    1.002 --    19 C    0.974
    59   1 H    1.002 --    20 C    0.973
    60   1 H    1.002 --    25 C    0.973
    61   1 H    1.001 --    26 C    0.974
    62   1 H    1.007 --    32 C    0.975
    63   1 H    1.004 --    32 C    0.986
    64   1 H    1.008 --    32 C    0.973
    65   1 H    0.999 --    33 C    0.971
    66   1 H    1.005 --    35 C    0.979
    67   1 H    1.004 --    35 C    0.985
    68   1 H    1.006 --    35 C    0.973
    69   1 H    1.000 --    36 C    0.970
    70   1 H    1.008 --    38 C    0.973
    71   1 H    1.007 --    38 C    0.974
    72   1 H    1.004 --    38 C    0.986
    73   1 H    1.002 --    40 C    0.974
    74   1 H    0.998 --    41 C    0.975
    75  27 Co   3.030 --    81 N    0.637   117 N    0.635   102 N    0.632
                            95 N    0.630
    76   6 C    3.927 --    77 C    1.365   116 C    1.364   118 H    0.970
    77   6 C    3.926 --    76 C    1.365    81 N    1.204    78 C    1.174
    78   6 C    3.960 --    79 C    1.649    77 C    1.174   119 H    0.975
    79   6 C    3.963 --    78 C    1.649    80 C    1.175   120 H    0.974
    80   6 C    3.920 --    82 C    1.323    81 N    1.212    79 C    1.175
    81   7 N    3.344 --    80 C    1.212    77 C    1.204    75 Co   0.637
    82   6 C    3.931 --    92 C    1.338    80 C    1.323    83 C    1.004
    83   6 C    3.987 --    84 C    1.380    90 C    1.380    82 C    1.004
                            87 C    0.104
    84   6 C    3.984 --    86 C    1.420    83 C    1.380    85 C    1.021
                            89 C    0.103
    85   6 C    3.995 --    84 C    1.021   123 H    0.986   122 H    0.974
                           121 H    0.973
    86   6 C    3.993 --    84 C    1.420    87 C    1.414   124 H    0.970
                            90 C    0.103
    87   6 C    3.988 --    86 C    1.414    89 C    1.413    88 C    1.020
                            83 C    0.104
    88   6 C    3.996 --    87 C    1.020   127 H    0.983   125 H    0.982
                           126 H    0.971
    89   6 C    3.993 --    90 C    1.421    87 C    1.413   128 H    0.970
                            84 C    0.103
    90   6 C    3.985 --    89 C    1.421    83 C    1.380    91 C    1.021
                            86 C    0.103
    91   6 C    3.995 --    90 C    1.021   130 H    0.986   131 H    0.974
                           129 H    0.974
    92   6 C    3.917 --    82 C    1.338    95 N    1.191    93 C    1.180
    93   6 C    3.959 --    94 C    1.638    92 C    1.180   132 H    0.974
    94   6 C    3.962 --    93 C    1.638    96 C    1.190   133 H    0.973
    95   7 N    3.347 --    96 C    1.236    92 C    1.191    75 Co   0.630
    96   6 C    3.906 --    97 C    1.258    95 N    1.236    94 C    1.190
    97   6 C    3.931 --    98 C    1.259    96 C    1.258   152 C    1.191
    98   6 C    3.906 --    97 C    1.259   102 N    1.236    99 C    1.189
    99   6 C    3.962 --   100 C    1.639    98 C    1.189   134 H    0.973
   100   6 C    3.959 --    99 C    1.639   101 C    1.180   135 H    0.974
   101   6 C    3.917 --   103 C    1.340   102 N    1.191   100 C    1.180
   102   7 N    3.345 --    98 C    1.236   101 C    1.191    75 Co   0.632
   103   6 C    3.931 --   101 C    1.340   113 C    1.322   104 C    1.004
   104   6 C    3.987 --   111 C    1.383   105 C    1.377   103 C    1.004
                           108 C    0.104
   105   6 C    3.984 --   107 C    1.425   104 C    1.377   106 C    1.020
                           110 C    0.102
   106   6 C    3.995 --   105 C    1.020   137 H    0.986   136 H    0.975
                           138 H    0.973
   107   6 C    3.993 --   105 C    1.425   108 C    1.410   139 H    0.971
                           111 C    0.103
   108   6 C    3.988 --   110 C    1.418   107 C    1.410   109 C    1.020
                           104 C    0.104
   109   6 C    3.996 --   108 C    1.020   141 H    0.985   140 H    0.979
                           142 H    0.973
   110   6 C    3.992 --   108 C    1.418   111 C    1.417   143 H    0.970
                           105 C    0.102
   111   6 C    3.984 --   110 C    1.417   104 C    1.383   112 C    1.021
                           107 C    0.103
   112   6 C    3.995 --   111 C    1.021   146 H    0.986   145 H    0.974
                           144 H    0.973
   113   6 C    3.920 --   103 C    1.322   117 N    1.212   114 C    1.176
   114   6 C    3.963 --   115 C    1.648   113 C    1.176   147 H    0.974
   115   6 C    3.960 --   114 C    1.648   116 C    1.175   148 H    0.975
   116   6 C    3.926 --    76 C    1.364   117 N    1.204   115 C    1.175
   117   7 N    3.346 --   113 C    1.212   116 C    1.204    75 Co   0.635
   118   1 H    1.000 --    76 C    0.970
   119   1 H    0.998 --    78 C    0.975
   120   1 H    1.002 --    79 C    0.974
   121   1 H    1.007 --    85 C    0.973
   122   1 H    1.007 --    85 C    0.974
   123   1 H    1.004 --    85 C    0.986
   124   1 H    1.000 --    86 C    0.970
   125   1 H    1.004 --    88 C    0.982
   126   1 H    1.006 --    88 C    0.971
   127   1 H    1.004 --    88 C    0.983
   128   1 H    1.000 --    89 C    0.970
   129   1 H    1.007 --    91 C    0.974
   130   1 H    1.004 --    91 C    0.986
   131   1 H    1.007 --    91 C    0.974
   132   1 H    1.002 --    93 C    0.974
   133   1 H    1.002 --    94 C    0.973
   134   1 H    1.002 --    99 C    0.973
   135   1 H    1.001 --   100 C    0.974
   136   1 H    1.007 --   106 C    0.975
   137   1 H    1.004 --   106 C    0.986
   138   1 H    1.008 --   106 C    0.973
   139   1 H    0.999 --   107 C    0.971
   140   1 H    1.005 --   109 C    0.979
   141   1 H    1.004 --   109 C    0.985
   142   1 H    1.006 --   109 C    0.973
   143   1 H    1.000 --   110 C    0.970
   144   1 H    1.008 --   112 C    0.973
   145   1 H    1.007 --   112 C    0.974
   146   1 H    1.004 --   112 C    0.986
   147   1 H    1.002 --   114 C    0.974
   148   1 H    0.998 --   115 C    0.975
   149   6 C    3.929 --   150 C    2.467   151 C    1.314
   150   6 C    3.920 --   149 C    2.467    23 C    1.191   152 C    0.198
   151   6 C    3.929 --   152 C    2.467   149 C    1.314
   152   6 C    3.920 --   151 C    2.467    97 C    1.191   150 C    0.198
 ---------------------------------------------------------------------------

           -------------------------------------------------
          | TOTAL ENERGY             -235.140451723850 Eh   |
          | GRADIENT NORM               0.000308519384 Eh/α |
          | HOMO-LUMO GAP               0.011248121068 eV   |
           -------------------------------------------------

 * finished run on 2022/07/30 at 03:08:03.929
