   * xtb version 6.5.1 (b24c23e) compiled by 'conda@728c89f4b128' on 2022-07-12
          program call               : xtb Fe_PhOH_C8_3.xyz --gfn 1 --opt -T 48

   ID    Z sym.   atoms
    1   26 Fe     1, 59, 133
    2    6 C      2-6, 8-12, 14-18, 20-25, 27-31, 33-38, 60-64, 66-70, 72-76,
                  78-83, 85-89, 91-96, 117-132, 134-138, 140-144, 146-150,
                  152-157, 159-163, 165-170
    3    7 N      7, 19, 26, 39, 65, 77, 84, 97, 139, 151, 158, 171
    4    8 O      13, 32, 71, 90, 145, 164
    5    1 H      40-58, 98-116, 172-189

          :  Hamiltonian                  GFN1-xTB          :
 * total energy  :  -341.0375158 Eh     change        0.4220510E-08 Eh
 * total energy  :  -341.4716873 Eh     change       -0.4341715E+00 Eh
 * total energy  :  -341.6128443 Eh     change       -0.1411570E+00 Eh
 * total energy  :  -341.6888360 Eh     change       -0.7599173E-01 Eh
 * total energy  :  -341.7524270 Eh     change       -0.6359103E-01 Eh
 * total energy  :  -341.8190216 Eh     change       -0.6659457E-01 Eh
 * total energy  :  -341.8802337 Eh     change       -0.6121206E-01 Eh
 * total energy  :  -341.9172307 Eh     change       -0.3699701E-01 Eh
 * total energy  :  -341.9453764 Eh     change       -0.2814570E-01 Eh
 * total energy  :  -341.9661016 Eh     change       -0.2072526E-01 Eh
 * total energy  :  -342.0694606 Eh     change        0.2433343E-04 Eh
 * total energy  :  -342.0694889 Eh     change       -0.2829941E-04 Eh
 * total energy  :  -342.0694435 Eh     change        0.4532816E-04 Eh
 * total energy  :  -342.0694924 Eh     change       -0.4882670E-04 Eh
 * total energy  :  -342.0693964 Eh     change        0.9599868E-04 Eh
 * total energy  :  -342.0694940 Eh     change       -0.9766393E-04 Eh
 * total energy  :  -342.0695033 Eh     change       -0.9227597E-05 Eh
 * total energy  :  -342.0695098 Eh     change       -0.6495823E-05 Eh
 * total energy  :  -342.0695141 Eh     change       -0.4376766E-05 Eh
   *** GEOMETRY OPTIMIZATION CONVERGED AFTER 80 ITERATIONS ***

 final structure:
================
189
 xtb: 6.5.1 (b24c23e)
Fe          26.04430542984597       -0.02057905326680       -0.08020522951173
C           22.65527011093275       -0.06932410700132       -0.21005660667406
C           23.31428855199805       -1.28040616138938       -0.17613821593133
C           22.64011651601150       -2.54338637726120       -0.17598648887882
C           23.59679081564131       -3.49302169206640       -0.05297203178634
C           24.85633585917619       -2.80881818392069        0.00236923494523
N           24.66939459479506       -1.45462188801356       -0.06979349801379
C           26.08032492302396       -3.45112421651379        0.15334596066782
C           26.09985035063717       -4.93052912477187        0.26069369135236
C           25.68273685136936       -5.72647332208176       -0.80596779188680
C           25.70865725269081       -7.10929902129105       -0.70903754395402
C           26.14775724075514       -7.71163099777916        0.46765591164493
O           26.18653115247555       -9.06189032714528        0.60637128368600
C           26.56339709245341       -6.92701218732603        1.54196627089315
C           26.54232288488529       -5.54790442377477        1.43286072559259
C           27.28862178689452       -2.77038591496540        0.19104637789626
C           28.56264255258188       -3.42204073262144        0.26348186044401
C           29.50353821326706       -2.45066088956732        0.19228641093347
N           27.45380786031465       -1.40936175872154        0.08529180483261
C           28.80273452894548       -1.21015979706918        0.07836310991778
C           29.45370595742040        0.02412079805132       -0.02887854532585
C           28.77198111618845        1.24355174458327       -0.10992365743713
C           29.44076079937064        2.50178256313730       -0.21968950607997
C           28.47656291651177        3.45285873745510       -0.23656197034125
C           27.22075697569484        2.77095697603914       -0.13322183337244
N           27.41921308329148        1.41194330238271       -0.07205096449505
C           25.99302940253270        3.41804581973761       -0.11516074097493
C           25.97460523742938        4.90020110291849       -0.13853708770021
C           26.54834712571741        5.63328054081787        0.90314365178401
C           26.53507336675738        7.01661590480987        0.88678973075439
C           25.95107914129058        7.68973492205217       -0.18490105890741
O           25.96024178174549        9.04742269186429       -0.17179779949042
C           25.37916591383652        6.97188330889984       -1.23275035190635
C           25.38974169464560        5.58596932487590       -1.20349389919365
C           24.78156648163867        2.73547025632720       -0.09648468243435
C           23.50095628531622        3.38141770845732       -0.07219964045685
C           22.56745561424074        2.40234185448141       -0.12113980130628
C           23.27807360434206        1.16011395562515       -0.15425191877507
N           24.63095684977842        1.37477009490282       -0.11647831156851
H           21.57234023233369       -0.08487916944267       -0.26239001093082
H           21.57097733004868       -2.66603199688140       -0.24711078426821
H           23.47226992501491       -4.56212111825132        0.00527924936196
H           25.35257693272516       -5.25872027514365       -1.72679205496738
H           25.39104343287541       -7.72413258045076       -1.54436919464034
H           25.87837136367322       -9.50749465273515       -0.19414360804867
H           26.89901354224645       -7.40906286967519        2.45182061559880
H           26.85741734802639       -4.93660481052123        2.27106288358731
H           28.70808851992731       -4.48722333628465        0.33932306572205
H           30.57691352192694       -2.54974897076190        0.20947282454163
H           30.51014666539841        2.62498744046278       -0.27913882719403
H           28.59472483487406        4.52040037004658       -0.32552288073889
H           26.99360086972382        5.10937701068195        1.74149704040769
H           26.97273506729227        7.58776760642814        1.69616408174672
H           25.53058610712018        9.41054294895939       -0.95787644578594
H           24.93030242085254        7.49986990587869       -2.06727567160998
H           24.95629851235655        5.02845881223188       -2.02633862666915
H           23.34801144220265        4.44703901796747       -0.01807417079491
H           21.49274330061687        2.49255081515155       -0.12561748793649
Fe          63.14054601102165       -0.00639899486762       -0.04262904705456
C           66.52470664284701        0.03393015015847       -0.20133159964130
C           65.85703260593738        1.22607413693666       -0.39169877941901
C           66.51860109869084        2.47128780450397       -0.63944595580314
C           65.55805528963415        3.42527122943536       -0.64871384002332
C           64.30838754028917        2.75908222809103       -0.42032370970445
N           64.50407867455517        1.41209684362279       -0.27779766710017
C           63.09218163186176        3.41903615322120       -0.27486224352422
C           63.06992712721405        4.89866992927088       -0.37761089035970
C           63.39508314411514        5.52946174888286       -1.57838721047169
C           63.36623199775752        6.91168789457280       -1.68176860763090
C           63.01687168969196        7.68043451918422       -0.57394770321090
O           62.97836987750184        9.03650826513057       -0.63024971814161
C           62.69439830984935        7.06191329440099        0.63269083616167
C           62.71789707708757        5.68148032574331        0.72413106581390
C           61.89611600283165        2.75259920224699       -0.05068475276913
C           60.62595387689053        3.40816791348224        0.05061048482846
C           59.68802576130517        2.43435242492415        0.13189591907356
N           61.73162985641562        1.38760822152159       -0.01010569160839
C           60.38636141051023        1.18850961017627        0.07745903262691
C           59.73505618716508       -0.05115168221357        0.04572618708267
C           60.42016341643399       -1.27228731621853        0.01733551183795
C           59.75847991234838       -2.53849371219435       -0.01805677887047
C           60.72508232794917       -3.48340300738619        0.07419387080403
C           61.97474617645244       -2.78914772524496        0.16889037196795
N           61.77143371760554       -1.43142327646839        0.09934516024527
C           63.20067330588999       -3.42024237632556        0.32989296442046
C           63.22190184239162       -4.89261804686631        0.49322529847723
C           62.57005181117625       -5.49466902588187        1.57263089589322
C           62.58545739070862       -6.86860221804352        1.73279021955446
C           63.24990238365135       -7.66566675952759        0.80214971156748
O           63.24026446703130       -9.01059352285896        0.98629746787111
C           63.89988284071429       -7.07983346982754       -0.28181225648215
C           63.88706127618079       -5.70153756111735       -0.42880842287266
C           64.40809442582815       -2.72874392059894        0.32861143903934
C           65.68852936556620       -3.35034632511508        0.50643924431308
C           66.62057962105214       -2.38298347655328        0.33633282049847
C           65.90834332073858       -1.16895962510532        0.07565907784253
N           64.55576241941262       -1.38603348288313        0.10722966728856
H           67.60755809994646        0.04654651558240       -0.25582356364552
H           67.58327630630494        2.58305910513472       -0.77026382630820
H           65.67511547552039        4.48842446313091       -0.78247899587763
H           63.65493055443464        4.93135253314085       -2.44467776615156
H           63.61204329690624        7.39715399601785       -2.62014510539669
H           63.21867892259795        9.36001489111937       -1.50886359465144
H           62.42841764071318        7.67249472628957        1.48666774319654
H           62.47659030819219        5.20021565062844        1.66523119468914
H           60.47876574219507        4.47573391991198        0.03959930718632
H           58.61753888052390        2.53489916584122        0.21078748065965
H           58.69184774412020       -2.67143464206451       -0.10127182082594
H           60.61242767533493       -4.55525681902270        0.06811242941628
H           62.06216518768836       -4.87375815555486        2.30208366169069
H           62.08785268860578       -7.33744463871525        2.57267981051453
H           63.72856167011882       -9.46611468547303        0.28739863846257
H           64.41095990273099       -7.70439087916801       -1.00664461314576
H           64.38147114719833       -5.24809903626293       -1.28068588536447
H           65.84237714300559       -4.39235082746336        0.73554077136660
H           67.69494145686153       -2.46369933218986        0.38508256565249
C           30.85513314915749        0.03898724176094       -0.04241352479916
C           32.08105876333494        0.04775313665534       -0.04951471903131
C           33.42116251194364        0.05280380464571       -0.05630398432545
C           34.65340961701621        0.05317750606138       -0.05911316458062
C           35.98854702615346        0.05148746435778       -0.06014049959410
C           37.22100324657607        0.04710735162840       -0.05949119383692
C           38.56070779832496        0.04151626939489       -0.05930266248251
C           39.78705190956385        0.03545620898795       -0.06018596785271
C           49.40510325580221       -0.06931065555489        0.01387944220498
C           50.63196909697155       -0.08182747793732        0.02628476134613
C           51.97025916643160       -0.09418037366657        0.03635691279919
C           53.20341722744433       -0.09827809024671        0.04377206657508
C           54.53721651597927       -0.09820613594324        0.04919712862942
C           55.77023306662229       -0.09363188731659        0.05499936653095
C           57.10885352471703       -0.08291815038958        0.05298044423742
C           58.33546607797575       -0.06934252364163        0.04972388262749
Fe          44.59722123277735       -0.00261915616406       -0.04795589043083
C           41.18695613120670        0.02781580590592       -0.06077388741444
C           41.86410368493247        0.97893557411279        0.71342637955754
C           41.20120572032107        1.93511040863755        1.54223211284255
C           42.16217690534511        2.75958521115982        2.02704427340530
C           43.40684853983184        2.30779447047477        1.48200293131753
N           43.21159758660789        1.18595356347167        0.71465911101717
C           44.61919294779125        2.96646430751258        1.65535567975220
C           44.62911658651903        4.24788195894192        2.39711634146040
C           45.38560732061018        4.38701669072087        3.56392007787141
C           45.39296173473387        5.57920829966495        4.26512216838283
C           44.64686032315060        6.66054380248232        3.79879553410432
O           44.68122578089760        7.81653818116369        4.50834882397535
C           43.89246125273277        6.53818155989750        2.63383172296940
C           43.88204420769277        5.33613070793537        1.94410340005117
C           45.82273769427140        2.47131201483332        1.16741773162933
C           47.07761588313466        3.15152042552352        1.28281306922879
C           48.02664026472272        2.30143311990134        0.81930967311419
N           46.00042377385154        1.24044515870192        0.58396469187111
C           47.34610608203657        1.11348239591422        0.41143877285317
C           48.00696807357106       -0.04944606356470       -0.00771801435876
C           47.32411627692174       -1.18949095708702       -0.45309535496359
C           47.98040879228523       -2.39175422976599       -0.85873898000904
C           47.02139536338047       -3.20278326827058       -1.36946997086080
C           45.78446139844496       -2.48700007689878       -1.27878977706605
N           45.98116755569634       -1.27167120480738       -0.67030183386661
C           44.57939887650372       -2.94242510241312       -1.80122214812836
C           44.57604262990517       -4.20872552430470       -2.56855207828244
C           43.79944180748408       -5.29102191829968       -2.15257180393798
C           43.79958567267700       -6.47849761733680       -2.86724727051676
C           44.57390914005241       -6.59190944261453       -4.01992370414555
O           44.59956318830009       -7.73365195377630       -4.75267208127331
C           45.35038159392545       -5.51652009932618       -4.44891213237807
C           45.35282025460136       -4.33922634536197       -3.72298821173822
C           43.37851558315947       -2.26288000315555       -1.63039108497367
C           42.12921221221020       -2.68651189557666       -2.18750889843362
C           41.17800891224613       -1.86039604237098       -1.68651619643089
C           41.85220324909735       -0.92732510502303       -0.84072015961363
N           43.19678308510015       -1.15101826065914       -0.84474377791260
H           40.13823317387025        1.96128194648008        1.72023699249942
H           42.04723085307912        3.59555661028128        2.69751915031113
H           45.95621305073207        3.54232324827041        3.93331133576100
H           45.97037202366855        5.68702778930526        5.17496770558945
H           44.12789762677014        8.49748786296575        4.10256923373742
H           43.31759372928914        7.38372009404479        2.27168962791081
H           43.30415159387146        5.24578770637171        1.03109147759208
H           47.20701960872741        4.15056341156612        1.66586076140247
H           49.09229245342830        2.45148613139269        0.75496369177441
H           49.03835073303957       -2.57604546299946       -0.76346143966915
H           47.13234914226416       -4.19822569591352       -1.76745275258034
H           43.20651907978905       -5.20856248247526       -1.24851157449540
H           43.20161625845505       -7.31979135791964       -2.53375639743697
H           44.02634831757263       -8.41203704017573       -4.37092151463031
H           45.94359185144451       -5.61726943669782       -5.34934186178948
H           45.94759092270561       -3.49885927334258       -4.06298803472905
H           42.00435455452777       -3.50735947989760       -2.87467257067096
H           40.11501279115253       -1.86962154991072       -1.86609500808431

          :  Hamiltonian                  GFN1-xTB          :
         :: total energy            -342.069514129702 Eh    ::
         :: gradient norm              0.000567842914 Eh/a0 ::
         :: HOMO-LUMO gap              0.058280972660 eV    ::
         :: SCC energy              -347.620353331369 Eh    ::
         :: repulsion energy           5.718728475130 Eh    ::

    * Orbital Energies and Occupations

         #    Occupation            Energy/Eh            Energy/eV
      -------------------------------------------------------------
         1        2.0000           -0.8086211             -22.0037
       ...           ...                  ...                  ...
       300        2.0000           -0.3957041             -10.7677
       301        2.0000           -0.3931213             -10.6974
       302        1.9950           -0.3886026             -10.5744
       303        1.9929           -0.3882727             -10.5654
       304        1.9919           -0.3881514             -10.5621
       305        1.9865           -0.3876607             -10.5488
       306        1.9660           -0.3867733             -10.5246
       307        1.9573           -0.3865521             -10.5186
       308        1.9509           -0.3864157             -10.5149
       309        1.9477           -0.3863547             -10.5132
       310        1.9463           -0.3863292             -10.5126
       311        1.9424           -0.3862605             -10.5107
       312        1.3610           -0.3836367             -10.4393 (HOMO)
       313        0.3654           -0.3814949             -10.3810 (LUMO)
       314        0.3172           -0.3813332             -10.3766
       315        0.2797           -0.3811925             -10.3728
       316                         -0.3447579              -9.3813
       317                         -0.3351234              -9.1192
       318                         -0.3308953              -9.0041
       319                         -0.3293676              -8.9625
       320                         -0.3266167              -8.8877
       321                         -0.3259463              -8.8695
       322                         -0.3127956              -8.5116
       323                         -0.3066579              -8.3446
       ...                                ...                  ...
       659                          1.5991161              43.5142
      -------------------------------------------------------------
                  HL-Gap            0.0021418 Eh            0.0583 eV

Wiberg/Mayer (AO) data.
largest (>0.10) Wiberg bond orders for each atom

     #   Z sym  total        # sym  WBO       # sym  WBO       # sym  WBO
 ---------------------------------------------------------------------------
     1  26 Fe   3.131 --    39 N    0.669     7 N    0.667    19 N    0.663
                            26 N    0.662
     2   6 C    3.925 --     3 C    1.364    38 C    1.363    40 H    0.970
     3   6 C    3.925 --     2 C    1.364     7 N    1.210     4 C    1.173
     4   6 C    3.959 --     5 C    1.649     3 C    1.173    41 H    0.975
     5   6 C    3.962 --     4 C    1.649     6 C    1.176    42 H    0.973
     6   6 C    3.920 --     8 C    1.314     7 N    1.225     5 C    1.176
     7   7 N    3.382 --     6 C    1.225     3 C    1.210     1 Fe   0.667
     8   6 C    3.928 --    16 C    1.335     6 C    1.314     9 C    1.025
     9   6 C    3.988 --    10 C    1.395    15 C    1.384     8 C    1.025
    10   6 C    3.987 --    11 C    1.451     9 C    1.395    43 H    0.973
                            14 C    0.105
    11   6 C    3.988 --    10 C    1.451    12 C    1.372    44 H    0.970
                            15 C    0.103
    12   6 C    3.901 --    11 C    1.372    14 C    1.364    13 O    1.040
    13   8 O    2.044 --    12 C    1.040    45 H    0.865
    14   6 C    3.990 --    15 C    1.466    12 C    1.364    46 H    0.971
                            10 C    0.105
    15   6 C    3.988 --    14 C    1.466     9 C    1.384    47 H    0.973
                            11 C    0.103
    16   6 C    3.916 --     8 C    1.335    19 N    1.200    17 C    1.179
    17   6 C    3.957 --    18 C    1.639    16 C    1.179    48 H    0.973
    18   6 C    3.960 --    17 C    1.639    20 C    1.188    49 H    0.973
    19   7 N    3.382 --    20 C    1.245    16 C    1.200     1 Fe   0.663
    20   6 C    3.904 --    21 C    1.252    19 N    1.245    18 C    1.188
    21   6 C    3.927 --    22 C    1.253    20 C    1.252   117 C    1.200
    22   6 C    3.904 --    21 C    1.253    26 N    1.244    23 C    1.188
    23   6 C    3.960 --    24 C    1.638    22 C    1.188    50 H    0.973
    24   6 C    3.958 --    23 C    1.638    25 C    1.180    51 H    0.973
    25   6 C    3.917 --    27 C    1.333    26 N    1.201    24 C    1.180
    26   7 N    3.382 --    22 C    1.244    25 C    1.201     1 Fe   0.662
    27   6 C    3.928 --    25 C    1.333    35 C    1.314    28 C    1.028
    28   6 C    3.988 --    34 C    1.393    29 C    1.383    27 C    1.028
    29   6 C    3.987 --    30 C    1.467    28 C    1.383    52 H    0.973
                            33 C    0.102
    30   6 C    3.990 --    29 C    1.467    31 C    1.364    53 H    0.971
                            34 C    0.105
    31   6 C    3.901 --    33 C    1.371    30 C    1.364    32 O    1.041
    32   8 O    2.044 --    31 C    1.041    54 H    0.865
    33   6 C    3.988 --    34 C    1.452    31 C    1.371    55 H    0.970
                            29 C    0.102
    34   6 C    3.987 --    33 C    1.452    28 C    1.393    56 H    0.973
                            30 C    0.105
    35   6 C    3.920 --    27 C    1.314    39 N    1.225    36 C    1.176
    36   6 C    3.962 --    37 C    1.648    35 C    1.176    57 H    0.973
    37   6 C    3.959 --    36 C    1.648    38 C    1.174    58 H    0.975
    38   6 C    3.925 --     2 C    1.363    39 N    1.210    37 C    1.174
    39   7 N    3.383 --    35 C    1.225    38 C    1.210     1 Fe   0.669
    40   1 H    1.001 --     2 C    0.970
    41   1 H    0.998 --     4 C    0.975
    42   1 H    1.005 --     5 C    0.973
    43   1 H    1.004 --    10 C    0.973
    44   1 H    0.999 --    11 C    0.970
    45   1 H    0.887 --    13 O    0.865
    46   1 H    0.999 --    14 C    0.971
    47   1 H    1.004 --    15 C    0.973
    48   1 H    1.005 --    17 C    0.973
    49   1 H    1.002 --    18 C    0.973
    50   1 H    1.002 --    23 C    0.973
    51   1 H    1.005 --    24 C    0.973
    52   1 H    1.004 --    29 C    0.973
    53   1 H    0.999 --    30 C    0.971
    54   1 H    0.887 --    32 O    0.865
    55   1 H    0.999 --    33 C    0.970
    56   1 H    1.005 --    34 C    0.973
    57   1 H    1.005 --    36 C    0.973
    58   1 H    0.998 --    37 C    0.975
    59  26 Fe   3.109 --    97 N    0.666    65 N    0.664    77 N    0.660
                            84 N    0.657
    60   6 C    3.918 --    61 C    1.363    96 C    1.362    98 H    0.970
    61   6 C    3.925 --    60 C    1.363    65 N    1.209    62 C    1.173
    62   6 C    3.959 --    63 C    1.649    61 C    1.173    99 H    0.975
    63   6 C    3.962 --    62 C    1.649    64 C    1.176   100 H    0.973
    64   6 C    3.919 --    66 C    1.312    65 N    1.226    63 C    1.176
    65   7 N    3.378 --    64 C    1.226    61 C    1.209    59 Fe   0.664
    66   6 C    3.922 --    74 C    1.337    64 C    1.312    67 C    1.024
    67   6 C    3.988 --    68 C    1.394    73 C    1.384    66 C    1.024
    68   6 C    3.987 --    69 C    1.452    67 C    1.394   101 H    0.973
                            72 C    0.105
    69   6 C    3.988 --    68 C    1.452    70 C    1.372   102 H    0.970
                            73 C    0.103
    70   6 C    3.901 --    69 C    1.372    72 C    1.364    71 O    1.041
    71   8 O    2.044 --    70 C    1.041   103 H    0.865
    72   6 C    3.990 --    73 C    1.466    70 C    1.364   104 H    0.971
                            68 C    0.105
    73   6 C    3.988 --    72 C    1.466    67 C    1.384   105 H    0.973
                            69 C    0.103
    74   6 C    3.917 --    66 C    1.337    77 N    1.198    75 C    1.179
    75   6 C    3.957 --    76 C    1.639    74 C    1.179   106 H    0.973
    76   6 C    3.960 --    75 C    1.639    78 C    1.188   107 H    0.973
    77   7 N    3.378 --    78 C    1.248    74 C    1.198    59 Fe   0.660
    78   6 C    3.903 --    77 N    1.248    79 C    1.248    76 C    1.188
    79   6 C    3.919 --    80 C    1.248    78 C    1.248   132 C    1.208
    80   6 C    3.903 --    79 C    1.248    84 N    1.246    81 C    1.189
    81   6 C    3.960 --    82 C    1.637    80 C    1.189   108 H    0.973
    82   6 C    3.957 --    81 C    1.637    83 C    1.181   109 H    0.973
    83   6 C    3.917 --    85 C    1.332    84 N    1.200    82 C    1.181
    84   7 N    3.377 --    80 C    1.246    83 C    1.200    59 Fe   0.657
    85   6 C    3.922 --    83 C    1.332    93 C    1.312    86 C    1.031
    86   6 C    3.987 --    92 C    1.392    87 C    1.381    85 C    1.031
    87   6 C    3.987 --    88 C    1.468    86 C    1.381   110 H    0.973
                            91 C    0.102
    88   6 C    3.990 --    87 C    1.468    89 C    1.363   111 H    0.971
                            92 C    0.105
    89   6 C    3.900 --    91 C    1.371    88 C    1.363    90 O    1.041
    90   8 O    2.044 --    89 C    1.041   112 H    0.865
    91   6 C    3.988 --    92 C    1.453    89 C    1.371   113 H    0.970
                            87 C    0.102
    92   6 C    3.987 --    91 C    1.453    86 C    1.392   114 H    0.972
                            88 C    0.105
    93   6 C    3.919 --    85 C    1.312    97 N    1.225    94 C    1.176
    94   6 C    3.962 --    95 C    1.647    93 C    1.176   115 H    0.973
    95   6 C    3.958 --    94 C    1.647    96 C    1.174   116 H    0.975
    96   6 C    3.925 --    60 C    1.362    97 N    1.209    95 C    1.174
    97   7 N    3.379 --    93 C    1.225    96 C    1.209    59 Fe   0.666
    98   1 H    1.001 --    60 C    0.970
    99   1 H    0.998 --    62 C    0.975
   100   1 H    1.005 --    63 C    0.973
   101   1 H    1.004 --    68 C    0.973
   102   1 H    0.999 --    69 C    0.970
   103   1 H    0.887 --    71 O    0.865
   104   1 H    0.999 --    72 C    0.971
   105   1 H    1.004 --    73 C    0.973
   106   1 H    1.005 --    75 C    0.973
   107   1 H    1.002 --    76 C    0.973
   108   1 H    1.001 --    81 C    0.973
   109   1 H    1.005 --    82 C    0.973
   110   1 H    1.005 --    87 C    0.973
   111   1 H    0.999 --    88 C    0.971
   112   1 H    0.886 --    90 O    0.865
   113   1 H    0.999 --    91 C    0.970
   114   1 H    1.005 --    92 C    0.972
   115   1 H    1.005 --    94 C    0.973
   116   1 H    0.998 --    95 C    0.975
   117   6 C    3.865 --   118 C    2.418    21 C    1.200   120 C    0.183
   118   6 C    3.926 --   117 C    2.418   119 C    1.358
   119   6 C    3.881 --   120 C    2.312   118 C    1.358   122 C    0.178
   120   6 C    3.916 --   119 C    2.312   121 C    1.384   117 C    0.183
   121   6 C    3.914 --   122 C    2.311   120 C    1.384   124 C    0.182
   122   6 C    3.883 --   121 C    2.311   123 C    1.360   119 C    0.178
   123   6 C    3.921 --   124 C    2.413   122 C    1.360
   124   6 C    3.866 --   123 C    2.413   134 C    1.207   121 C    0.182
   125   6 C    3.864 --   126 C    2.404   153 C    1.213   128 C    0.182
   126   6 C    3.919 --   125 C    2.404   127 C    1.367
   127   6 C    3.880 --   128 C    2.301   126 C    1.367   130 C    0.177
   128   6 C    3.912 --   127 C    2.301   129 C    1.392   125 C    0.182
   129   6 C    3.914 --   130 C    2.302   128 C    1.392   132 C    0.182
   130   6 C    3.879 --   129 C    2.302   131 C    1.366   127 C    0.177
   131   6 C    3.923 --   132 C    2.408   130 C    1.366
   132   6 C    3.863 --   131 C    2.408    79 C    1.208   129 C    0.182
   133  26 Fe   3.066 --   171 N    0.650   151 N    0.650   139 N    0.649
                           158 N    0.649
   134   6 C    3.906 --   135 C    1.248   170 C    1.247   124 C    1.207
   135   6 C    3.905 --   134 C    1.248   139 N    1.244   136 C    1.192
   136   6 C    3.959 --   137 C    1.632   135 C    1.192   172 H    0.973
   137   6 C    3.959 --   136 C    1.632   138 C    1.185   173 H    0.973
   138   6 C    3.914 --   140 C    1.318   139 N    1.207   137 C    1.185
   139   7 N    3.367 --   135 C    1.244   138 C    1.207   133 Fe   0.649
   140   6 C    3.914 --   148 C    1.322   138 C    1.318   141 C    1.033
   141   6 C    3.987 --   147 C    1.390   142 C    1.380   140 C    1.033
   142   6 C    3.987 --   143 C    1.469   141 C    1.380   174 H    0.972
                           146 C    0.101
   143   6 C    3.989 --   142 C    1.469   144 C    1.362   175 H    0.970
                           147 C    0.104
   144   6 C    3.900 --   146 C    1.370   143 C    1.362   145 O    1.043
   145   8 O    2.046 --   144 C    1.043   176 H    0.864
   146   6 C    3.988 --   147 C    1.454   144 C    1.370   177 H    0.970
                           142 C    0.101
   147   6 C    3.986 --   146 C    1.454   141 C    1.390   178 H    0.972
                           143 C    0.104
   148   6 C    3.914 --   140 C    1.322   151 N    1.204   149 C    1.184
   149   6 C    3.958 --   150 C    1.632   148 C    1.184   179 H    0.973
   150   6 C    3.959 --   149 C    1.632   152 C    1.192   180 H    0.973
   151   7 N    3.367 --   152 C    1.248   148 C    1.204   133 Fe   0.650
   152   6 C    3.904 --   151 N    1.248   153 C    1.244   150 C    1.192
   153   6 C    3.905 --   154 C    1.245   152 C    1.244   125 C    1.213
   154   6 C    3.904 --   158 N    1.246   153 C    1.245   155 C    1.192
   155   6 C    3.959 --   156 C    1.632   154 C    1.192   181 H    0.973
   156   6 C    3.958 --   155 C    1.632   157 C    1.184   182 H    0.973
   157   6 C    3.914 --   159 C    1.321   158 N    1.205   156 C    1.184
   158   7 N    3.367 --   154 C    1.246   157 C    1.205   133 Fe   0.649
   159   6 C    3.914 --   157 C    1.321   167 C    1.320   160 C    1.033
   160   6 C    3.987 --   161 C    1.390   166 C    1.380   159 C    1.033
   161   6 C    3.986 --   162 C    1.454   160 C    1.390   183 H    0.972
                           165 C    0.104
   162   6 C    3.988 --   161 C    1.454   163 C    1.370   184 H    0.970
                           166 C    0.101
   163   6 C    3.899 --   162 C    1.370   165 C    1.362   164 O    1.043
   164   8 O    2.045 --   163 C    1.043   185 H    0.864
   165   6 C    3.989 --   166 C    1.469   163 C    1.362   186 H    0.971
                           161 C    0.104
   166   6 C    3.987 --   165 C    1.469   160 C    1.380   187 H    0.973
                           162 C    0.101
   167   6 C    3.914 --   159 C    1.320   171 N    1.205   168 C    1.184
   168   6 C    3.959 --   169 C    1.632   167 C    1.184   188 H    0.973
   169   6 C    3.959 --   168 C    1.632   170 C    1.192   189 H    0.973
   170   6 C    3.905 --   134 C    1.247   171 N    1.246   169 C    1.192
   171   7 N    3.368 --   170 C    1.246   167 C    1.205   133 Fe   0.650
   172   1 H    1.001 --   136 C    0.973
   173   1 H    1.004 --   137 C    0.973
   174   1 H    1.005 --   142 C    0.972
   175   1 H    0.998 --   143 C    0.970
   176   1 H    0.886 --   145 O    0.864
   177   1 H    0.999 --   146 C    0.970
   178   1 H    1.005 --   147 C    0.972
   179   1 H    1.004 --   149 C    0.973
   180   1 H    1.001 --   150 C    0.973
   181   1 H    1.001 --   155 C    0.973
   182   1 H    1.004 --   156 C    0.973
   183   1 H    1.005 --   161 C    0.972
   184   1 H    0.999 --   162 C    0.970
   185   1 H    0.886 --   164 O    0.864
   186   1 H    0.999 --   165 C    0.971
   187   1 H    1.005 --   166 C    0.973
   188   1 H    1.005 --   168 C    0.973
   189   1 H    1.001 --   169 C    0.973
 ---------------------------------------------------------------------------

           -------------------------------------------------
          | TOTAL ENERGY             -342.069514129702 Eh   |
          | GRADIENT NORM               0.000567842914 Eh/α |
          | HOMO-LUMO GAP               0.058280972660 eV   |
           -------------------------------------------------

 * finished run on 2022/07/29 at 20:58:23.748
