   * xtb version 6.5.1 (b24c23e) compiled by 'conda@728c89f4b128' on 2022-07-12
          program call               : xtb Ni_Ph2Me_C6_3.xyz --gfn 1 --opt -T 48

   ID    Z sym.   atoms
    1   28 Ni     1, 69, 149
    2    6 C      2-6, 8-11, 13-31, 34-41, 70-74, 76-79, 81-99, 102-109,
                  137-148, 150-154, 156-159, 161-179, 182-189
    3    7 N      7, 12, 32, 33, 75, 80, 100, 101, 155, 160, 180, 181
    4    1 H      42-68, 110-136, 190-215

          :  Hamiltonian                  GFN1-xTB          :
 * total energy  :  -346.4519440 Eh     change       -0.3627292E-08 Eh
 * total energy  :  -346.9046985 Eh     change       -0.4527545E+00 Eh
 * total energy  :  -347.0424599 Eh     change       -0.1377614E+00 Eh
 * total energy  :  -347.1451793 Eh     change       -0.1027194E+00 Eh
 * total energy  :  -347.2192244 Eh     change       -0.7404506E-01 Eh
 * total energy  :  -347.2621478 Eh     change       -0.4292343E-01 Eh
 * total energy  :  -347.2884565 Eh     change       -0.2630868E-01 Eh
 * total energy  :  -347.3054075 Eh     change       -0.1695105E-01 Eh
 * total energy  :  -347.3139702 Eh     change       -0.8562664E-02 Eh
 * total energy  :  -347.3219364 Eh     change       -0.7966180E-02 Eh
 * total energy  :  -347.3659255 Eh     change       -0.3388772E-05 Eh
 * total energy  :  -347.3659250 Eh     change        0.4860830E-06 Eh
 * total energy  :  -347.3659319 Eh     change       -0.6915566E-05 Eh
 * total energy  :  -347.3659251 Eh     change        0.6818293E-05 Eh
 * total energy  :  -347.3659353 Eh     change       -0.1026863E-04 Eh
 * total energy  :  -347.3659189 Eh     change        0.1644891E-04 Eh
 * total energy  :  -347.3659402 Eh     change       -0.2132568E-04 Eh
 * total energy  :  -347.3659457 Eh     change       -0.5471555E-05 Eh
 * total energy  :  -347.3659495 Eh     change       -0.3786241E-05 Eh
   *** GEOMETRY OPTIMIZATION CONVERGED AFTER 78 ITERATIONS ***

 final structure:
================
215
 xtb: 6.5.1 (b24c23e)
Ni          28.41619279468566        0.08674929345859       -0.22617993018398
C           25.06834495981097        0.27466064946411       -0.74207288604509
C           25.70737655463756        1.38719187587526       -0.23502407409865
C           25.02459446019506        2.58905444187475        0.13478512384883
C           25.96478376389946        3.43906852336735        0.61001800789806
C           27.22664777519499        2.76804598638160        0.49687527931060
N           27.05356464126894        1.49736043844492        0.00619702208291
C           28.44806479560436        3.36015753345587        0.78974844046653
C           29.65939504716870        2.70456661989841        0.61427838441767
C           30.93229848157753        3.34036032283451        0.77031548137118
C           31.87347021507771        2.40538661549787        0.49636380132608
N           29.82104167732031        1.39046305026297        0.23740842852382
C           31.17441378520430        1.19912401038736        0.18690081680890
C           31.82159846440091       -0.01626355209658       -0.05320534879478
C           31.12692658002034       -1.21014324004564       -0.26784686621569
C           31.77517941749949       -2.47505062607990       -0.40651860582900
C           30.79863482716408       -3.39239050263562       -0.60572900192314
C           29.55605182229050       -2.68144492521170       -0.60272149536833
C           28.33658406798623       -3.27140112904775       -0.90435317821398
C           28.30512783736414       -4.73242830859698       -1.16595312476961
C           28.00692488661711       -5.21235564292841       -2.43907794579477
C           27.98602908067647       -6.58111395810119       -2.69063266978105
C           27.64922379004888       -7.08994609788803       -4.06626123159245
C           28.26107700169141       -7.46790238440955       -1.65553146097373
C           28.56035512570467       -7.00256901246284       -0.37721999931610
C           28.86977238776885       -7.97889361005092        0.72534005669116
C           28.58410876107789       -5.63353864193597       -0.13895835157284
C           27.15817759566989       -2.54534773838303       -1.01571379759687
C           25.89923361442045       -3.11776241062327       -1.39327686079245
C           24.99337976447370       -2.11210456163095       -1.38838576211613
C           25.69224057297452       -0.93269324457287       -0.97777851441477
N           27.02059146432331       -1.20306065324741       -0.76337372446529
N           29.77038959395174       -1.33948242971041       -0.37975320761109
C           28.47066593647291        4.76568327258790        1.26395356741329
C           27.99798762032484        5.79364450179867        0.44935283226275
C           28.02631188017118        7.11246453888942        0.88942478155351
C           27.53853626504868        8.22264112629673       -0.00181321139699
C           28.53183809645078        7.39879116190432        2.15424850124831
C           29.00914846289221        6.38385060416811        2.97794666707086
C           29.53602348478321        6.70263253953903        4.35100393336601
C           28.97710215484986        5.06856432274283        2.52677278122452
H           24.00141795120791        0.33902115678692       -0.92165542132729
H           23.95982229745528        2.73773351806200        0.04968137200458
H           25.82908158916367        4.43390042251366        1.00204477488519
H           31.07599565063464        4.37408990550381        1.03907697831444
H           32.94677730762517        2.50565801454445        0.50737524195434
H           32.84140689697977       -2.62550882467629       -0.35400821588759
H           30.90067695799342       -4.45366497826528       -0.76317700912157
H           27.80784311278267       -4.51049512869477       -3.24153859577076
H           28.05266355543121       -8.09057844623157       -4.22154310260481
H           26.56476973997609       -7.13610013805766       -4.18963406564341
H           28.04812846552846       -6.42507635306610       -4.83290865001451
H           28.24509252388234       -8.53630809228249       -1.84510413694426
H           28.87957057811791       -7.48269809638528        1.69560574615119
H           28.12948261103284       -8.77983146727762        0.74709949860114
H           29.84994497111154       -8.43103670821438        0.55946724154415
H           28.80820216621649       -5.25708020082118        0.85309392517239
H           25.74111938582945       -4.15826449498804       -1.62598922371707
H           23.94009133863234       -2.14969943546295       -1.61696151441041
H           27.62288575277030        5.56002221474064       -0.54104679097478
H           27.06359660620351        9.00961521520478        0.58470244273207
H           26.82396806867665        7.84803056666085       -0.73481199627268
H           28.38047509070792        8.66327918285566       -0.54064327796940
H           28.55601430908159        8.42675460503849        2.50119304808410
H           28.71810399828430        6.68864575042384        5.07501870935255
H           29.99015289856287        7.69356834353563        4.37193267211614
H           30.27779321658002        5.96710481234510        4.66275802184113
H           29.33653961089005        4.26711601903556        3.16290987930745
Ni          60.39867221707112        0.15636777639213       -0.12192096140427
C           63.74646111945748        0.58901036378692       -0.46673764080846
C           63.09762514372085       -0.19723650094048       -1.39608496735975
C           63.77044574850328       -0.87793166887053       -2.45984764127626
C           62.82387235878731       -1.56517645838578       -3.14084169414117
C           61.56811577301517       -1.27666631400434       -2.51210153048946
N           61.75094759817070       -0.45868078787925       -1.42452819876916
C           60.34369898305771       -1.72944629968427       -2.98492876428291
C           59.13768158952010       -1.38969706579452       -2.38678455549688
C           57.86025300830993       -1.73089998478726       -2.93552982319609
C           56.92547132619601       -1.21186063139228       -2.10416978370801
N           58.98524614840520       -0.65870939607732       -1.23047823456631
C           57.63296165980076       -0.56582490169749       -1.04482853774920
C           56.99458405225780        0.01610394801169        0.05299419816775
C           57.69522793215729        0.57499239290852        1.12440193009665
C           57.05376014604315        1.08080842825322        2.29604826672209
C           58.03557695337983        1.53457371740175        3.11117692146828
C           59.27463317470724        1.31701111492326        2.42759418076764
C           60.49927829167605        1.76257518267199        2.90486666770764
C           60.53922051094089        2.42930559213107        4.23086906721144
C           60.84722631966179        3.78424987624944        4.32754800919438
C           60.87472294235555        4.41519907472131        5.56784222259394
C           61.22074868611212        5.87667257346165        5.66323413672060
C           60.59740075343532        3.67742989713450        6.71341814693181
C           60.28914302725955        2.32152786117076        6.63228634487660
C           59.97753280601903        1.54467357332128        7.88287730121771
C           60.25792431551275        1.70346281657309        5.38781180093549
C           61.67528661641036        1.64976577033830        2.17560319924353
C           62.94036573912905        2.16013331087021        2.61650001059610
C           63.84084775086501        1.86555266332704        1.65002375710949
C           63.13213967978143        1.14932327574569        0.63369656819885
N           61.80386972100550        1.02967694041467        0.95758940918902
N           59.05306376447416        0.71515466823653        1.20929304640017
C           60.31129949164934       -2.57209152331764       -4.20575596263336
C           60.75748146383118       -2.06455292534319       -5.42518161609194
C           60.71870533871024       -2.84905186804993       -6.57269347302934
C           61.17677489060841       -2.28998965240659       -7.89265787787972
C           60.22992607919695       -4.14988727028333       -6.49341216888046
C           59.77972243046618       -4.66998764335973       -5.28382339789537
C           59.27122375760160       -6.08416445818249       -5.20572846209482
C           59.82168636170429       -3.87558452611600       -4.14281019659612
H           64.81344593600133        0.73891598957203       -0.58424220057708
H           64.83353967266433       -0.83566028897248       -2.63629516933097
H           62.95121271380518       -2.21108896667539       -3.99429956772763
H           57.70941394699062       -2.28271632167277       -3.84887804589450
H           55.85142287398343       -1.25975993055869       -2.18336399232158
H           55.98810042774192        1.07950110686856        2.45920841275057
H           57.93983146321504        1.99550558722014        4.08065616436197
H           61.04872602553283        4.35196331617776        3.42572379661288
H           60.81825535221618        6.31375313676113        6.57708768683048
H           62.30599111029603        6.00121747725210        5.67446389357667
H           60.82696789686129        6.42408600831960        4.80638514735103
H           60.61874134143198        4.16347095929119        7.68346831906242
H           59.97316663007311        0.47271962882775        7.68633698715122
H           60.71324618734214        1.75719040361214        8.65972956792031
H           58.99425826257409        1.82910333711507        8.26367347948581
H           60.02601054276423        0.64692109546105        5.31003445084560
H           63.10536446746484        2.67330649347416        3.54990964281450
H           64.89613096452406        2.08578590898220        1.61910751308918
H           61.11999188900612       -1.04376501800101       -5.47763527686401
H           61.65227634852803       -3.06334740733723       -8.49657843774430
H           61.88272980311234       -1.47257563436189       -7.74543823328833
H           60.31993649559432       -1.90441768020049       -8.44990512612769
H           60.19755692851752       -4.76515067913910       -7.38676081948849
H           60.09997703424794       -6.76592703767110       -5.00136791097790
H           58.81051147567401       -6.38347099943040       -6.14741508196524
H           58.53939136831233       -6.19005139969215       -4.40469723181625
H           59.48296998033916       -4.27226931623251       -3.19196604981944
C           37.02195885492679       -0.08942312748254       -0.01522946751037
C           35.79399127269325       -0.08113800817320       -0.02254016664754
C           34.44931843946302       -0.06496254313846       -0.03126752182277
C           33.22598640422157       -0.04538155614788       -0.03804490335679
C           38.36660114262784       -0.09204389061183       -0.00595441449137
C           39.59021328076422       -0.09154813727298        0.00030108439139
C           53.02043387569613       -0.01011059329846        0.14273239442586
C           51.79312855134360       -0.02036246431644        0.15083278339031
C           50.44726571412591       -0.03008946189415        0.14675064640515
C           49.22437534925569       -0.03994716255311        0.13310612058704
C           54.36629872619938       -0.00157771752311        0.12222853313356
C           55.58886631421270        0.00518307536145        0.09667229576756
Ni          44.40745850993721       -0.07151729507903        0.02562176557402
C           40.99417464766844       -0.08671177338120        0.00449501559365
C           41.66222835068774        1.14119725444869        0.04345174168678
C           40.99008185059508        2.39920588356037        0.11033777087148
C           41.94144586549302        3.35567866788164       -0.02069083163702
C           43.19168056750785        2.67666977093353       -0.17258893779957
N           43.01248067187849        1.31455318813800       -0.08686180670322
C           44.39494487762135        3.31682603263197       -0.43813886138866
C           45.60512624537637        2.63955804994426       -0.50644796445888
C           46.85526195920053        3.26475946238205       -0.81319796331995
C           47.81481971699706        2.32179064677467       -0.64969051851624
N           45.79324441152635        1.30826200558429       -0.21077354025703
C           47.14726456892235        1.12159805537381       -0.25857196708558
C           47.81918361260649       -0.04905238332916        0.10444593547112
C           47.14663467570445       -1.23174925562209        0.42398389512913
C           47.81211243421369       -2.43157352188287        0.81972542723448
C           46.86113917031817       -3.39347470310008        0.90468804546439
C           45.61805371267433       -2.77788318537464        0.55324886628612
C           44.42058537493112       -3.46859651513725        0.42003083797054
C           44.43004146309313       -4.94247496155496        0.58207239811890
C           43.68758060632238       -5.54392889569699        1.59682876420711
C           43.69488438692296       -6.92626043876144        1.75266024209947
C           42.91167647572338       -7.56681657503118        2.86655853302251
C           44.44841739833878       -7.70645833776816        0.88134952263902
C           45.19211857378703       -7.12071174082255       -0.13938213292029
C           46.01305216312107       -7.97622764848611       -1.06602968126768
C           45.18265712492099       -5.73773833100850       -0.28151116217351
C           43.21601650596121       -2.83453370097851        0.14640977844259
C           41.97384245587671       -3.52095387792779       -0.03631063267560
C           41.01366344061108       -2.57039614074954       -0.14407184733439
C           41.67328543606074       -1.30834221290802       -0.04103720480618
N           43.02400226135311       -1.47205732078852        0.09521848739500
N           45.79960957498074       -1.43680608151143        0.30277155840473
C           44.38690775399768        4.78413153505867       -0.65225943530380
C           45.09517423057527        5.62453093679846        0.20454620887452
C           45.08607931287270        7.00215150072614        0.00943218346621
C           45.86224682251343        7.90024607712324        0.93438375196426
C           44.36905574769695        7.53459172743053       -1.05699731544807
C           43.65807012808368        6.70770641968299       -1.92269514533414
C           42.90403835773495        7.29606460672450       -3.08445021367117
C           43.66804627629083        5.33338990077479       -1.71361447955354
H           39.92613047999696        2.51918187519645        0.23625766262005
H           41.81855318944356        4.42640394864784       -0.01306919557079
H           46.97316494205229        4.29288291667712       -1.11420564469605
H           48.88112082722165        2.41537178451295       -0.77807143269821
H           48.87175588851363       -2.51266814715519        1.00099954793312
H           46.98001494923535       -4.42810423237375        1.18218793000803
H           43.11285318295543       -4.92432757461198        2.27649666479749
H           42.61652888107617       -8.58197809658839        2.60059281265514
H           43.52434640875547       -7.61629791174908        3.76967206785973
H           42.01735895899537       -6.98686312335438        3.09552723032495
H           44.45421148033866       -8.78552730614151        0.99634612162468
H           46.19874027479511       -7.46197343702979       -2.00898881527018
H           45.50703526508825       -8.91993534581154       -1.27166641529312
H           46.97727398603462       -8.20268265158306       -0.60522074621597
H           45.74744524124497       -5.26974095228359       -1.08035691335373
H           41.86117806878908       -4.59205929576562       -0.07621604979859
H           39.95174371282192       -2.69683640779706       -0.28047512278231
H           45.64003971506798        5.19866500333259        1.03997999447457
H           45.46239827732548        8.91416443198923        0.91975312507453
H           46.90794866445415        7.94097067497962        0.62104998110771
H           45.83074117296371        7.52252587899340        1.95675744608244
H           44.36016395060003        8.60820750235495       -1.21480426908192
H           42.47255241463655        8.26108403746435       -2.81711250026761
H           42.10508254573070        6.62906968472720       -3.40836535066118
H           43.58221241137616        7.45034656983666       -3.92685367691282
H           43.12619049482522        4.67739110287068       -2.38607874921166

          :  Hamiltonian                  GFN1-xTB          :
         :: total energy            -347.365949482928 Eh    ::
         :: gradient norm              0.000360993989 Eh/a0 ::
         :: HOMO-LUMO gap              1.104147805188 eV    ::
         :: SCC energy              -353.101061651327 Eh    ::
         :: repulsion energy           5.919588232443 Eh    ::

    * Orbital Energies and Occupations

         #    Occupation            Energy/Eh            Energy/eV
      -------------------------------------------------------------
         1        2.0000           -0.7795818             -21.2135
       ...           ...                  ...                  ...
       313        2.0000           -0.3954534             -10.7608
       314        2.0000           -0.3954300             -10.7602
       315        2.0000           -0.3945714             -10.7368
       316        2.0000           -0.3945435             -10.7361
       317        2.0000           -0.3944120             -10.7325
       318        2.0000           -0.3942636             -10.7285
       319        2.0000           -0.3935292             -10.7085
       320        2.0000           -0.3935154             -10.7081
       321        2.0000           -0.3934960             -10.7076
       322        2.0000           -0.3934759             -10.7070
       323        2.0000           -0.3897731             -10.6063
       324        2.0000           -0.3854697             -10.4892
       325        2.0000           -0.3801621             -10.3447 (HOMO)
       326                         -0.3395854              -9.2406 (LUMO)
       327                         -0.3322348              -9.0406
       328                         -0.3282573              -8.9323
       329                         -0.3270750              -8.9002
       330                         -0.3266213              -8.8878
       331                         -0.3266025              -8.8873
       332                         -0.3259314              -8.8690
       333                         -0.3253255              -8.8526
       334                         -0.3252303              -8.8500
       335                         -0.3038159              -8.2673
       336                         -0.2958865              -8.0515
       ...                                ...                  ...
       715                          1.5819772              43.0478
      -------------------------------------------------------------
                  HL-Gap            0.0405767 Eh            1.1041 eV

Wiberg/Mayer (AO) data.
largest (>0.10) Wiberg bond orders for each atom

     #   Z sym  total        # sym  WBO       # sym  WBO       # sym  WBO
 ---------------------------------------------------------------------------
     1  28 Ni   3.011 --    32 N    0.664     7 N    0.664    12 N    0.662
                            33 N    0.662
     2   6 C    3.933 --    31 C    1.364     3 C    1.362    42 H    0.970
     3   6 C    3.924 --     2 C    1.362     7 N    1.215     4 C    1.176
     4   6 C    3.959 --     5 C    1.648     3 C    1.176    43 H    0.975
     5   6 C    3.963 --     4 C    1.648     6 C    1.177    44 H    0.972
     6   6 C    3.919 --     8 C    1.324     7 N    1.220     5 C    1.177
     7   7 N    3.402 --     6 C    1.220     3 C    1.215     1 Ni   0.664
     8   6 C    3.939 --     9 C    1.328     6 C    1.324    34 C    1.024
     9   6 C    3.915 --     8 C    1.328    12 N    1.206    10 C    1.185
    10   6 C    3.959 --    11 C    1.635     9 C    1.185    45 H    0.973
    11   6 C    3.961 --    10 C    1.635    13 C    1.192    46 H    0.973
    12   7 N    3.407 --    13 C    1.239     9 C    1.206     1 Ni   0.662
    13   6 C    3.904 --    14 C    1.262    12 N    1.239    11 C    1.192
    14   6 C    3.943 --    13 C    1.262    15 C    1.261   140 C    1.185
    15   6 C    3.904 --    14 C    1.261    33 N    1.241    16 C    1.192
    16   6 C    3.961 --    17 C    1.636    15 C    1.192    47 H    0.973
    17   6 C    3.959 --    16 C    1.636    18 C    1.184    48 H    0.973
    18   6 C    3.914 --    19 C    1.331    33 N    1.204    17 C    1.184
    19   6 C    3.938 --    18 C    1.331    28 C    1.323    20 C    1.020
    20   6 C    3.988 --    21 C    1.403    27 C    1.394    19 C    1.020
                            24 C    0.104
    21   6 C    3.987 --    22 C    1.411    20 C    1.403    49 H    0.972
                            25 C    0.104
    22   6 C    3.988 --    24 C    1.422    21 C    1.411    23 C    1.020
                            27 C    0.103
    23   6 C    3.995 --    22 C    1.020    50 H    0.984    52 H    0.981
                            51 H    0.971
    24   6 C    3.990 --    22 C    1.422    25 C    1.410    53 H    0.972
                            20 C    0.104
    25   6 C    3.988 --    27 C    1.422    24 C    1.410    26 C    1.020
                            21 C    0.104
    26   6 C    3.996 --    25 C    1.020    54 H    0.985    55 H    0.979
                            56 H    0.973
    27   6 C    3.987 --    25 C    1.422    20 C    1.394    57 H    0.972
                            22 C    0.103
    28   6 C    3.919 --    19 C    1.323    32 N    1.221    29 C    1.178
    29   6 C    3.963 --    30 C    1.649    28 C    1.178    58 H    0.972
    30   6 C    3.959 --    29 C    1.649    31 C    1.175    59 H    0.975
    31   6 C    3.924 --     2 C    1.364    32 N    1.214    30 C    1.175
    32   7 N    3.402 --    28 C    1.221    31 C    1.214     1 Ni   0.664
    33   7 N    3.407 --    15 C    1.241    18 C    1.204     1 Ni   0.662
    34   6 C    3.988 --    41 C    1.398    35 C    1.396     8 C    1.024
                            38 C    0.103
    35   6 C    3.987 --    36 C    1.418    34 C    1.396    60 H    0.972
                            39 C    0.103
    36   6 C    3.988 --    35 C    1.418    38 C    1.415    37 C    1.020
                            41 C    0.104
    37   6 C    3.995 --    36 C    1.020    62 H    0.984    61 H    0.982
                            63 H    0.971
    38   6 C    3.989 --    39 C    1.416    36 C    1.415    64 H    0.972
                            34 C    0.103
    39   6 C    3.988 --    41 C    1.416    38 C    1.416    40 C    1.020
                            35 C    0.103
    40   6 C    3.995 --    39 C    1.020    67 H    0.983    66 H    0.982
                            65 H    0.971
    41   6 C    3.987 --    39 C    1.416    34 C    1.398    68 H    0.972
                            36 C    0.104
    42   1 H    1.000 --     2 C    0.970
    43   1 H    0.998 --     4 C    0.975
    44   1 H    1.005 --     5 C    0.972
    45   1 H    1.005 --    10 C    0.973
    46   1 H    1.002 --    11 C    0.973
    47   1 H    1.002 --    16 C    0.973
    48   1 H    1.005 --    17 C    0.973
    49   1 H    1.002 --    21 C    0.972
    50   1 H    1.004 --    23 C    0.984
    51   1 H    1.006 --    23 C    0.971
    52   1 H    1.004 --    23 C    0.981
    53   1 H    1.000 --    24 C    0.972
    54   1 H    1.004 --    26 C    0.985
    55   1 H    1.005 --    26 C    0.979
    56   1 H    1.006 --    26 C    0.973
    57   1 H    1.002 --    27 C    0.972
    58   1 H    1.005 --    29 C    0.972
    59   1 H    0.998 --    30 C    0.975
    60   1 H    1.003 --    35 C    0.972
    61   1 H    1.004 --    37 C    0.982
    62   1 H    1.004 --    37 C    0.984
    63   1 H    1.006 --    37 C    0.971
    64   1 H    1.000 --    38 C    0.972
    65   1 H    1.006 --    40 C    0.971
    66   1 H    1.004 --    40 C    0.982
    67   1 H    1.004 --    40 C    0.983
    68   1 H    1.002 --    41 C    0.972
    69  28 Ni   3.012 --   100 N    0.664    75 N    0.664    80 N    0.662
                           101 N    0.662
    70   6 C    3.934 --    99 C    1.364    71 C    1.362   110 H    0.970
    71   6 C    3.924 --    70 C    1.362    75 N    1.215    72 C    1.175
    72   6 C    3.960 --    73 C    1.648    71 C    1.175   111 H    0.975
    73   6 C    3.963 --    72 C    1.648    74 C    1.177   112 H    0.972
    74   6 C    3.920 --    76 C    1.325    75 N    1.220    73 C    1.177
    75   7 N    3.403 --    74 C    1.220    71 C    1.215    69 Ni   0.664
    76   6 C    3.940 --    77 C    1.328    74 C    1.325   102 C    1.023
    77   6 C    3.915 --    76 C    1.328    80 N    1.207    78 C    1.184
    78   6 C    3.960 --    79 C    1.636    77 C    1.184   113 H    0.973
    79   6 C    3.961 --    78 C    1.636    81 C    1.191   114 H    0.973
    80   7 N    3.408 --    81 C    1.237    77 C    1.207    69 Ni   0.662
    81   6 C    3.905 --    82 C    1.266    80 N    1.237    79 C    1.191
    82   6 C    3.945 --    81 C    1.266    83 C    1.265   148 C    1.178
    83   6 C    3.906 --    82 C    1.265   101 N    1.239    84 C    1.190
    84   6 C    3.962 --    85 C    1.637    83 C    1.190   115 H    0.973
    85   6 C    3.960 --    84 C    1.637    86 C    1.183   116 H    0.973
    86   6 C    3.915 --    87 C    1.331   101 N    1.205    85 C    1.183
    87   6 C    3.939 --    86 C    1.331    96 C    1.324    88 C    1.019
    88   6 C    3.988 --    89 C    1.403    95 C    1.394    87 C    1.019
                            92 C    0.104
    89   6 C    3.987 --    90 C    1.411    88 C    1.403   117 H    0.972
                            93 C    0.104
    90   6 C    3.988 --    92 C    1.422    89 C    1.411    91 C    1.020
                            95 C    0.103
    91   6 C    3.995 --    90 C    1.020   118 H    0.984   120 H    0.981
                           119 H    0.971
    92   6 C    3.990 --    90 C    1.422    93 C    1.410   121 H    0.972
                            88 C    0.104
    93   6 C    3.988 --    95 C    1.422    92 C    1.410    94 C    1.020
                            89 C    0.104
    94   6 C    3.996 --    93 C    1.020   122 H    0.985   123 H    0.979
                           124 H    0.972
    95   6 C    3.987 --    93 C    1.422    88 C    1.394   125 H    0.972
                            90 C    0.103
    96   6 C    3.919 --    87 C    1.324   100 N    1.221    97 C    1.177
    97   6 C    3.963 --    98 C    1.649    96 C    1.177   126 H    0.972
    98   6 C    3.960 --    97 C    1.649    99 C    1.175   127 H    0.975
    99   6 C    3.924 --    70 C    1.364   100 N    1.214    98 C    1.175
   100   7 N    3.403 --    96 C    1.221    99 C    1.214    69 Ni   0.664
   101   7 N    3.408 --    83 C    1.239    86 C    1.205    69 Ni   0.662
   102   6 C    3.988 --   109 C    1.398   103 C    1.396    76 C    1.023
                           106 C    0.103
   103   6 C    3.987 --   104 C    1.418   102 C    1.396   128 H    0.972
                           107 C    0.103
   104   6 C    3.988 --   103 C    1.418   106 C    1.414   105 C    1.020
                           109 C    0.104
   105   6 C    3.995 --   104 C    1.020   130 H    0.984   129 H    0.982
                           131 H    0.971
   106   6 C    3.989 --   107 C    1.416   104 C    1.414   132 H    0.972
                           102 C    0.103
   107   6 C    3.988 --   106 C    1.416   109 C    1.416   108 C    1.020
                           103 C    0.103
   108   6 C    3.995 --   107 C    1.020   135 H    0.983   134 H    0.982
                           133 H    0.971
   109   6 C    3.987 --   107 C    1.416   102 C    1.398   136 H    0.972
                           104 C    0.104
   110   1 H    1.000 --    70 C    0.970
   111   1 H    0.998 --    72 C    0.975
   112   1 H    1.005 --    73 C    0.972
   113   1 H    1.005 --    78 C    0.973
   114   1 H    1.002 --    79 C    0.973
   115   1 H    1.002 --    84 C    0.973
   116   1 H    1.005 --    85 C    0.973
   117   1 H    1.002 --    89 C    0.972
   118   1 H    1.004 --    91 C    0.984
   119   1 H    1.006 --    91 C    0.971
   120   1 H    1.004 --    91 C    0.981
   121   1 H    1.000 --    92 C    0.972
   122   1 H    1.004 --    94 C    0.985
   123   1 H    1.005 --    94 C    0.979
   124   1 H    1.006 --    94 C    0.972
   125   1 H    1.002 --    95 C    0.972
   126   1 H    1.005 --    97 C    0.972
   127   1 H    0.998 --    98 C    0.975
   128   1 H    1.003 --   103 C    0.972
   129   1 H    1.004 --   105 C    0.982
   130   1 H    1.004 --   105 C    0.984
   131   1 H    1.006 --   105 C    0.971
   132   1 H    1.000 --   106 C    0.972
   133   1 H    1.006 --   108 C    0.971
   134   1 H    1.004 --   108 C    0.982
   135   1 H    1.004 --   108 C    0.983
   136   1 H    1.002 --   109 C    0.972
   137   6 C    3.928 --   138 C    2.373   141 C    1.333   140 C    0.191
   138   6 C    3.927 --   137 C    2.373   139 C    1.332   142 C    0.191
   139   6 C    3.937 --   140 C    2.455   138 C    1.332
   140   6 C    3.891 --   139 C    2.455    14 C    1.185   137 C    0.191
   141   6 C    3.935 --   142 C    2.453   137 C    1.333
   142   6 C    3.892 --   141 C    2.453   150 C    1.188   138 C    0.191
   143   6 C    3.924 --   144 C    2.380   147 C    1.325   146 C    0.190
   144   6 C    3.926 --   143 C    2.380   145 C    1.326   148 C    0.190
   145   6 C    3.935 --   146 C    2.460   144 C    1.326
   146   6 C    3.890 --   145 C    2.460   162 C    1.181   143 C    0.190
   147   6 C    3.937 --   148 C    2.462   143 C    1.325
   148   6 C    3.889 --   147 C    2.462    82 C    1.178   144 C    0.190
   149  28 Ni   3.009 --   181 N    0.661   155 N    0.661   180 N    0.661
                           160 N    0.661
   150   6 C    3.934 --   151 C    1.260   179 C    1.259   142 C    1.188
   151   6 C    3.904 --   150 C    1.260   155 N    1.239   152 C    1.193
   152   6 C    3.960 --   153 C    1.632   151 C    1.193   190 H    0.973
   153   6 C    3.960 --   152 C    1.632   154 C    1.187   191 H    0.973
   154   6 C    3.913 --   156 C    1.325   155 N    1.204   153 C    1.187
   155   7 N    3.400 --   151 C    1.239   154 C    1.204   149 Ni   0.661
   156   6 C    3.935 --   157 C    1.326   154 C    1.325   182 C    1.025
   157   6 C    3.913 --   156 C    1.326   160 N    1.204   158 C    1.186
   158   6 C    3.961 --   159 C    1.633   157 C    1.186   192 H    0.973
   159   6 C    3.960 --   158 C    1.633   161 C    1.193   193 H    0.973
   160   7 N    3.400 --   161 C    1.238   157 C    1.204   149 Ni   0.661
   161   6 C    3.906 --   162 C    1.263   160 N    1.238   159 C    1.193
   162   6 C    3.934 --   163 C    1.263   161 C    1.263   146 C    1.181
   163   6 C    3.906 --   162 C    1.263   181 N    1.237   164 C    1.193
   164   6 C    3.960 --   165 C    1.633   163 C    1.193   194 H    0.973
   165   6 C    3.961 --   164 C    1.633   166 C    1.186   195 H    0.973
   166   6 C    3.913 --   167 C    1.324   181 N    1.206   165 C    1.186
   167   6 C    3.935 --   176 C    1.326   166 C    1.324   168 C    1.026
   168   6 C    3.988 --   169 C    1.398   175 C    1.394   167 C    1.026
                           172 C    0.103
   169   6 C    3.987 --   170 C    1.415   168 C    1.398   196 H    0.972
                           173 C    0.104
   170   6 C    3.988 --   172 C    1.417   169 C    1.415   171 C    1.020
                           175 C    0.103
   171   6 C    3.995 --   170 C    1.020   197 H    0.983   199 H    0.982
                           198 H    0.971
   172   6 C    3.988 --   170 C    1.417   173 C    1.413   200 H    0.972
                           168 C    0.103
   173   6 C    3.988 --   175 C    1.419   172 C    1.413   174 C    1.020
                           169 C    0.104
   174   6 C    3.995 --   173 C    1.020   201 H    0.984   202 H    0.981
                           203 H    0.971
   175   6 C    3.987 --   173 C    1.419   168 C    1.394   204 H    0.972
                           170 C    0.103
   176   6 C    3.913 --   167 C    1.326   180 N    1.203   177 C    1.186
   177   6 C    3.960 --   178 C    1.632   176 C    1.186   205 H    0.973
   178   6 C    3.960 --   177 C    1.632   179 C    1.194   206 H    0.973
   179   6 C    3.904 --   150 C    1.259   180 N    1.240   178 C    1.194
   180   7 N    3.400 --   179 C    1.240   176 C    1.203   149 Ni   0.661
   181   7 N    3.400 --   163 C    1.237   166 C    1.206   149 Ni   0.661
   182   6 C    3.988 --   183 C    1.399   189 C    1.393   156 C    1.025
                           186 C    0.102
   183   6 C    3.987 --   184 C    1.414   182 C    1.399   207 H    0.972
                           187 C    0.104
   184   6 C    3.988 --   186 C    1.419   183 C    1.414   185 C    1.020
                           189 C    0.103
   185   6 C    3.995 --   184 C    1.020   208 H    0.984   210 H    0.981
                           209 H    0.971
   186   6 C    3.989 --   184 C    1.419   187 C    1.412   211 H    0.972
                           182 C    0.102
   187   6 C    3.988 --   189 C    1.420   186 C    1.412   188 C    1.020
                           183 C    0.104
   188   6 C    3.995 --   187 C    1.020   213 H    0.984   212 H    0.981
                           214 H    0.971
   189   6 C    3.987 --   187 C    1.420   182 C    1.393   215 H    0.972
                           184 C    0.103
   190   1 H    1.002 --   152 C    0.973
   191   1 H    1.005 --   153 C    0.973
   192   1 H    1.005 --   158 C    0.973
   193   1 H    1.002 --   159 C    0.973
   194   1 H    1.002 --   164 C    0.973
   195   1 H    1.005 --   165 C    0.973
   196   1 H    1.003 --   169 C    0.972
   197   1 H    1.004 --   171 C    0.983
   198   1 H    1.006 --   171 C    0.971
   199   1 H    1.004 --   171 C    0.982
   200   1 H    1.000 --   172 C    0.972
   201   1 H    1.004 --   174 C    0.984
   202   1 H    1.004 --   174 C    0.981
   203   1 H    1.006 --   174 C    0.971
   204   1 H    1.003 --   175 C    0.972
   205   1 H    1.005 --   177 C    0.973
   206   1 H    1.002 --   178 C    0.973
   207   1 H    1.003 --   183 C    0.972
   208   1 H    1.004 --   185 C    0.984
   209   1 H    1.006 --   185 C    0.971
   210   1 H    1.004 --   185 C    0.981
   211   1 H    1.000 --   186 C    0.972
   212   1 H    1.004 --   188 C    0.981
   213   1 H    1.004 --   188 C    0.984
   214   1 H    1.006 --   188 C    0.971
   215   1 H    1.003 --   189 C    0.972
 ---------------------------------------------------------------------------

           -------------------------------------------------
          | TOTAL ENERGY             -347.365949482928 Eh   |
          | GRADIENT NORM               0.000360993989 Eh/α |
          | HOMO-LUMO GAP               1.104147805188 eV   |
           -------------------------------------------------

 * finished run on 2022/07/30 at 05:06:19.534
