   * xtb version 6.5.1 (b24c23e) compiled by 'conda@728c89f4b128' on 2022-07-12
          program call               : xtb Cu_C2Py_C2_2.xyz --gfn 1 --opt -T 48

   ID    Z sym.   atoms
    1   29 Cu     1, 59
    2    6 C      2-6, 8-13, 15-19, 21-26, 28-33, 35-40, 60-64, 66-71, 73-77,
                  79-84, 86-91, 93-98, 117, 118
    3    7 N      7, 14, 20, 27, 34, 41, 65, 72, 78, 85, 92, 99
    4    1 H      42-58, 100-116
########################################################################
[WARNING] Please study the warnings concerning your input carefully
-1- prog_main_parseArguments: Unknown option '-T' provided
########################################################################

          :  Hamiltonian                  GFN1-xTB          :
 * total energy  :  -213.1098314 Eh     change       -0.7015757E-08 Eh
 * total energy  :  -213.2267046 Eh     change       -0.1168733E+00 Eh
 * total energy  :  -213.2804948 Eh     change       -0.5379015E-01 Eh
 * total energy  :  -213.2904814 Eh     change       -0.9986623E-02 Eh
 * total energy  :  -213.2948147 Eh     change       -0.4333309E-02 Eh
 * total energy  :  -213.2974010 Eh     change       -0.2586246E-02 Eh
 * total energy  :  -213.2988542 Eh     change       -0.1453242E-02 Eh
 * total energy  :  -213.2997321 Eh     change       -0.8778956E-03 Eh
 * total energy  :  -213.3003208 Eh     change       -0.5886879E-03 Eh
 * total energy  :  -213.3007771 Eh     change       -0.4562693E-03 Eh
 * total energy  :  -213.3034638 Eh     change       -0.8707196E-05 Eh
 * total energy  :  -213.3034718 Eh     change       -0.8022724E-05 Eh
 * total energy  :  -213.3034866 Eh     change       -0.1481136E-04 Eh
 * total energy  :  -213.3035048 Eh     change       -0.1815879E-04 Eh
 * total energy  :  -213.3035235 Eh     change       -0.1872662E-04 Eh
 * total energy  :  -213.3035444 Eh     change       -0.2084634E-04 Eh
 * total energy  :  -213.3035600 Eh     change       -0.1563743E-04 Eh
 * total energy  :  -213.3035674 Eh     change       -0.7453433E-05 Eh
 * total energy  :  -213.3035722 Eh     change       -0.4753821E-05 Eh
   *** GEOMETRY OPTIMIZATION CONVERGED AFTER 39 ITERATIONS ***

 final structure:
================
118
 xtb: 6.5.1 (b24c23e)
Cu          17.43082739371545        0.08509944969789        0.03089654157566
C           14.01399528627780        0.12099543904226        0.06466206422024
C           14.65575744393985        0.99849075648893        0.92544016581237
C           13.99282877620346        1.90900186702220        1.81471823027226
C           14.96210042669983        2.58727633155644        2.47956672908765
C           16.22152270004204        2.09459350112730        1.99978209734910
N           16.01035269750299        1.13358568122945        1.06106137827653
C           17.47662825604574        2.54285182991580        2.44082146904976
C           17.49599586919138        3.54641445274292        3.43531001867433
C           17.50718416379361        4.40642740473283        4.29126899733522
C           17.52742892452617        5.40643324334280        5.29032979800305
C           18.73346612188084        5.95163833552041        5.74637517336979
C           18.69979715404023        6.92728144491626        6.72653953188303
N           17.56977896064302        7.37889498320831        7.26513200414269
C           16.41911729239057        6.86549314791841        6.83725047013594
C           16.34345313599874        5.88752154441508        5.86158835024498
C           18.71320200580129        2.06916297119834        1.97523188932770
C           19.98596094774434        2.52678189978369        2.44660463449903
C           20.93263092417025        1.82907132850514        1.76719287683252
N           18.89580977084948        1.10993874258181        1.02204748221731
C           20.24210249789499        0.94569509938419        0.87620566805284
C           20.87090674091261        0.04348620929722        0.00212061163243
C           20.20615680340869       -0.84116065196024       -0.86329786017732
C           20.86055874395234       -1.73981718784673       -1.76620652859829
C           19.88629280081602       -2.41453165560391       -2.42956610349352
C           18.63297754240780       -1.92770266398236       -1.93589584351236
N           18.85424632956827       -0.97296837013162       -0.98666169646685
C           17.37767214604421       -2.37525727147480       -2.37648887848046
C           17.35768158172749       -3.38616905576676       -3.36334379767644
C           17.34321320600462       -4.25533213913824       -4.20992838293854
C           17.33164738057179       -5.27002821151203       -5.19412031264957
C           18.52110000124370       -5.85052710664716       -5.65015783734775
C           18.45700577076065       -6.84202855727701       -6.61271990931596
N           17.31252508905804       -7.27690385663272       -7.13409675642946
C           16.17751177762736       -6.72978649586562       -6.70620382480179
C           16.13223791901113       -5.73360136661382       -5.74724739671996
C           16.14160259020421       -1.89859809050853       -1.91234934841350
C           14.86299573521349       -2.36586164151699       -2.36581426935727
C           13.92148464322170       -1.66675332711848       -1.68291788624427
C           14.62075794200037       -0.76913254066634       -0.80851662873202
N           15.96934648522889       -0.93190939058938       -0.97133881171915
H           12.92889784540688        0.13155127293330        0.07553712413044
H           12.92269226126841        2.00659796700003        1.90808992846148
H           14.84805109275199        3.35451458006612        3.22888757624681
H           19.67659883915097        5.61232370645816        5.33514188269786
H           19.62031047653601        7.36796953178909        7.09853602018464
H           15.51644635732316        7.25619768950283        7.29826749264350
H           15.38453346506336        5.49706466602539        5.54273851291374
H           20.12694038961863        3.28248851032850        3.20279683060159
H           22.00454737712489        1.89681158429502        1.86006400982969
H           21.92887050535045       -1.83212360396683       -1.87756165742812
H           19.99695994465205       -3.17262108463711       -3.18843363340155
H           19.47499742289004       -5.52606236440976       -5.25212062151238
H           19.36421345975021       -7.31013899482405       -6.98397865303816
H           15.26230228179931       -7.10765675065308       -7.15289804917625
H           15.18514504249917       -5.31602489944877       -5.42738168205943
H           14.71838227766634       -3.13166673868811       -3.11131752804852
H           12.84787658686498       -1.74217895354691       -1.75411590574949
Cu          28.34950821208317       -0.07131650222912       -0.05457328250271
C           31.76639488606761       -0.11834733386515       -0.07408427868493
C           31.12417948621833       -1.30740179816779       -0.38466171408920
C           31.78660001416083       -2.53770544480569       -0.71147992320870
C           30.81695498337966       -3.45656215875398       -0.95029390742595
C           29.55779588461374       -2.79217414813659       -0.77077243312548
N           29.76948578581427       -1.49333644802704       -0.42811810202345
C           28.30251628194035       -3.40135266311080       -0.92589065665287
C           28.28428624905242       -4.77013583860943       -1.27606261869139
C           28.27715267503018       -5.94586000778725       -1.57601442913301
C           28.26447793231764       -7.31644730819206       -1.92221171045878
C           27.06148992574978       -8.00061643393541       -2.13351219813297
C           27.10336512129397       -9.34198214542527       -2.46940589119101
N           28.23857816758490      -10.02356118462495       -2.60287219285594
C           29.38634829484864       -9.38047142699193       -2.40329046996218
C           29.45386295251153       -8.04073802867130       -2.06482469506035
C           27.06609909027989       -2.75894243470892       -0.75618610004305
C           25.79309009360576       -3.39836394173167       -0.90481114161263
C           24.84680132969691       -2.45659806207187       -0.65530330892225
N           26.88400117131320       -1.44815839954043       -0.42329943547015
C           25.53783721330763       -1.23827907606296       -0.35649082344878
C           24.90952873671482       -0.02439640415966       -0.03216974566281
C           25.57470736835145        1.17215876386413        0.28292279770533
C           24.92079986191790        2.40846423240158        0.59121138185220
C           25.89540204074174        3.32366727805003        0.83001913836159
C           27.14846163271963        2.64973873767829        0.66515772738182
N           26.92669135815831        1.34522119938806        0.33260348873191
C           28.40397322251915        3.25721869646315        0.82277300314902
C           28.42478118378677        4.62337371352257        1.18245743289794
C           28.44120666457860        5.79586326607547        1.49451032664637
C           28.45632175313508        7.16156331222474        1.85921831949369
C           27.26765097308664        7.86019063225512        2.10181487018636
C           27.33558897575405        9.19541599269590        2.45723722684168
N           28.48306436867108        9.85776061912026        2.58118583101198
C           29.61732591251462        9.20088998048127        2.35156036020671
C           29.65882801045046        7.86567169568949        1.99179630775606
C           29.63982663690467        2.61419251539076        0.65032755143159
C           30.91867215696037        3.24324373345297        0.81661292079899
C           31.85982498180970        2.29859845143069        0.56479378472114
C           31.16007880164749        1.08759771453855        0.24368905153790
N           29.81157961155767        1.31068987396171        0.30249024561605
H           32.85148634995025       -0.13291639773740       -0.07978242378544
H           32.85666846408629       -2.66776579260806       -0.74977269634180
H           30.93064696740144       -4.49335160981521       -1.22466175298276
H           26.11435950494387       -7.48387103845242       -2.03498153123125
H           26.18551729632850       -9.89714758434745       -2.63999142805178
H           30.29352149331596       -9.96663964686311       -2.52037084567844
H           30.41067700871059       -7.55638441178778       -1.91131861178125
H           25.65175875139277       -4.43556101222328       -1.16376340786222
H           23.77483500056586       -2.57082484370698       -0.66464918724904
H           23.85255554872792        2.55180004694849        0.61367516223208
H           25.78514045537685        4.36396387803540        1.09166141463698
H           26.31133194793136        7.35907655252076        2.01209105898921
H           26.42909024765211        9.76141807903795        2.65196593409630
H           30.53506374059743        9.77155155753381        2.46124979865828
H           30.60536800652654        7.36952642447576        1.81422612563455
H           31.06370768742552        4.27595701807919        1.09158541823805
H           32.93347730992445        2.39848494465505        0.59103465682606
C           22.28240999250071        0.02197970553296       -0.00852441605445
C           23.49801761986848       -0.00317728942073       -0.02125273245492

          :  Hamiltonian                  GFN1-xTB          :
         :: total energy            -213.303572199394 Eh    ::
         :: gradient norm              0.000605459334 Eh/a0 ::
         :: HOMO-LUMO gap              0.000837224235 eV    ::
         :: SCC energy              -216.787236093662 Eh    ::
         :: repulsion energy           3.584229509424 Eh    ::

    * Orbital Energies and Occupations

         #    Occupation            Energy/Eh            Energy/eV
      -------------------------------------------------------------
         1        2.0000           -0.7721852             -21.0122
       ...           ...                  ...                  ...
       186        2.0000           -0.4193086             -11.4100
       187        2.0000           -0.4192732             -11.4090
       188        2.0000           -0.4162210             -11.3260
       189        2.0000           -0.4162153             -11.3258
       190        2.0000           -0.4160051             -11.3201
       191        2.0000           -0.4159172             -11.3177
       192        2.0000           -0.4157039             -11.3119
       193        2.0000           -0.4157001             -11.3118
       194        2.0000           -0.4032897             -10.9741
       195        2.0000           -0.4032865             -10.9740
       196        2.0000           -0.3980861             -10.8325
       197        2.0000           -0.3876782             -10.5493
       198        1.0081           -0.3639043              -9.9023 (HOMO)
       199        0.9919           -0.3638736              -9.9015 (LUMO)
       200                         -0.3450824              -9.3902
       201                         -0.3439854              -9.3603
       202                         -0.3439795              -9.3602
       203                         -0.3297713              -8.9735
       204                         -0.3153328              -8.5806
       205                         -0.3098714              -8.4320
       206                         -0.2885583              -7.8521
       207                         -0.2885436              -7.8517
       208                         -0.2834711              -7.7136
       209                         -0.2805164              -7.6332
       ...                                ...                  ...
       414                          1.3484458              36.6931
      -------------------------------------------------------------
                  HL-Gap            0.0000308 Eh            0.0008 eV

Wiberg/Mayer (AO) data.
largest (>0.10) Wiberg bond orders for each atom

     #   Z sym  total        # sym  WBO       # sym  WBO       # sym  WBO
 ---------------------------------------------------------------------------
     1  29 Cu   2.174 --    41 N    0.502     7 N    0.502    20 N    0.500
                            27 N    0.500
     2   6 C    3.930 --     3 C    1.364    40 C    1.364    42 H    0.971
     3   6 C    3.908 --     2 C    1.364     7 N    1.220     4 C    1.173
     4   6 C    3.955 --     5 C    1.651     3 C    1.173    43 H    0.976
     5   6 C    3.957 --     4 C    1.651     6 C    1.179    44 H    0.974
     6   6 C    3.905 --     8 C    1.270     7 N    1.258     5 C    1.179
     7   7 N    3.243 --     6 C    1.258     3 C    1.220     1 Cu   0.502
     8   6 C    3.932 --    17 C    1.275     6 C    1.270     9 C    1.159
     9   6 C    3.958 --    10 C    2.625     8 C    1.159
    10   6 C    3.933 --     9 C    2.625    11 C    1.141
    11   6 C    3.987 --    16 C    1.350    12 C    1.350    10 C    1.141
    12   6 C    3.973 --    13 C    1.457    11 C    1.350    45 H    0.974
                            15 C    0.104
    13   6 C    3.973 --    12 C    1.457    14 N    1.407    46 H    0.972
                            16 C    0.104
    14   7 N    2.994 --    15 C    1.407    13 C    1.407
    15   6 C    3.973 --    16 C    1.457    14 N    1.407    47 H    0.972
                            12 C    0.104
    16   6 C    3.973 --    15 C    1.457    11 C    1.350    48 H    0.974
                            13 C    0.104
    17   6 C    3.898 --     8 C    1.275    20 N    1.242    18 C    1.188
    18   6 C    3.954 --    19 C    1.636    17 C    1.188    49 H    0.974
    19   6 C    3.956 --    18 C    1.636    21 C    1.189    50 H    0.971
    20   7 N    3.245 --    21 C    1.244    17 C    1.242     1 Cu   0.500
    21   6 C    3.895 --    22 C    1.270    20 N    1.244    19 C    1.189
    22   6 C    3.937 --    21 C    1.270    23 C    1.269   117 C    1.167
    23   6 C    3.894 --    22 C    1.269    27 N    1.244    24 C    1.189
    24   6 C    3.956 --    25 C    1.637    23 C    1.189    51 H    0.971
    25   6 C    3.954 --    24 C    1.637    26 C    1.187    52 H    0.974
    26   6 C    3.898 --    28 C    1.275    27 N    1.242    25 C    1.187
    27   7 N    3.245 --    23 C    1.244    26 C    1.242     1 Cu   0.500
    28   6 C    3.932 --    26 C    1.275    37 C    1.271    29 C    1.159
    29   6 C    3.958 --    30 C    2.625    28 C    1.159
    30   6 C    3.933 --    29 C    2.625    31 C    1.141
    31   6 C    3.987 --    36 C    1.350    32 C    1.350    30 C    1.141
    32   6 C    3.973 --    33 C    1.457    31 C    1.350    53 H    0.974
                            35 C    0.104
    33   6 C    3.973 --    32 C    1.457    34 N    1.407    54 H    0.972
                            36 C    0.104
    34   7 N    2.994 --    35 C    1.407    33 C    1.407
    35   6 C    3.973 --    36 C    1.457    34 N    1.407    55 H    0.972
                            32 C    0.104
    36   6 C    3.973 --    35 C    1.457    31 C    1.350    56 H    0.974
                            33 C    0.104
    37   6 C    3.905 --    28 C    1.271    41 N    1.258    38 C    1.179
    38   6 C    3.957 --    39 C    1.651    37 C    1.179    57 H    0.974
    39   6 C    3.955 --    38 C    1.651    40 C    1.173    58 H    0.976
    40   6 C    3.908 --     2 C    1.364    41 N    1.220    39 C    1.173
    41   7 N    3.243 --    37 C    1.258    40 C    1.220     1 Cu   0.502
    42   1 H    1.001 --     2 C    0.971
    43   1 H    0.998 --     4 C    0.976
    44   1 H    1.002 --     5 C    0.974
    45   1 H    1.002 --    12 C    0.974
    46   1 H    1.013 --    13 C    0.972
    47   1 H    1.013 --    15 C    0.972
    48   1 H    1.002 --    16 C    0.974
    49   1 H    1.003 --    18 C    0.974
    50   1 H    1.004 --    19 C    0.971
    51   1 H    1.005 --    24 C    0.971
    52   1 H    1.003 --    25 C    0.974
    53   1 H    1.002 --    32 C    0.974
    54   1 H    1.013 --    33 C    0.972
    55   1 H    1.013 --    35 C    0.972
    56   1 H    1.002 --    36 C    0.974
    57   1 H    1.002 --    38 C    0.974
    58   1 H    0.998 --    39 C    0.976
    59  29 Cu   2.173 --    99 N    0.502    65 N    0.502    78 N    0.500
                            85 N    0.500
    60   6 C    3.930 --    61 C    1.364    98 C    1.364   100 H    0.971
    61   6 C    3.908 --    60 C    1.364    65 N    1.220    62 C    1.173
    62   6 C    3.955 --    63 C    1.651    61 C    1.173   101 H    0.976
    63   6 C    3.957 --    62 C    1.651    64 C    1.179   102 H    0.974
    64   6 C    3.905 --    66 C    1.270    65 N    1.258    63 C    1.179
    65   7 N    3.243 --    64 C    1.258    61 C    1.220    59 Cu   0.502
    66   6 C    3.932 --    75 C    1.275    64 C    1.270    67 C    1.159
    67   6 C    3.958 --    68 C    2.625    66 C    1.159
    68   6 C    3.933 --    67 C    2.625    69 C    1.141
    69   6 C    3.987 --    74 C    1.350    70 C    1.350    68 C    1.141
    70   6 C    3.973 --    71 C    1.457    69 C    1.350   103 H    0.974
                            73 C    0.104
    71   6 C    3.973 --    70 C    1.457    72 N    1.407   104 H    0.972
                            74 C    0.104
    72   7 N    2.994 --    73 C    1.407    71 C    1.407
    73   6 C    3.973 --    74 C    1.457    72 N    1.407   105 H    0.972
                            70 C    0.104
    74   6 C    3.973 --    73 C    1.457    69 C    1.350   106 H    0.974
                            71 C    0.104
    75   6 C    3.898 --    66 C    1.275    78 N    1.242    76 C    1.188
    76   6 C    3.954 --    77 C    1.636    75 C    1.188   107 H    0.974
    77   6 C    3.956 --    76 C    1.636    79 C    1.189   108 H    0.971
    78   7 N    3.245 --    79 C    1.244    75 C    1.242    59 Cu   0.500
    79   6 C    3.895 --    80 C    1.269    78 N    1.244    77 C    1.189
    80   6 C    3.937 --    79 C    1.269    81 C    1.269   118 C    1.167
    81   6 C    3.894 --    80 C    1.269    85 N    1.244    82 C    1.189
    82   6 C    3.956 --    83 C    1.637    81 C    1.189   109 H    0.971
    83   6 C    3.954 --    82 C    1.637    84 C    1.187   110 H    0.974
    84   6 C    3.898 --    86 C    1.275    85 N    1.242    83 C    1.187
    85   7 N    3.245 --    81 C    1.244    84 C    1.242    59 Cu   0.500
    86   6 C    3.932 --    84 C    1.275    95 C    1.270    87 C    1.159
    87   6 C    3.958 --    88 C    2.625    86 C    1.159
    88   6 C    3.933 --    87 C    2.625    89 C    1.141
    89   6 C    3.987 --    94 C    1.350    90 C    1.350    88 C    1.141
    90   6 C    3.973 --    91 C    1.457    89 C    1.350   111 H    0.974
                            93 C    0.104
    91   6 C    3.973 --    90 C    1.457    92 N    1.407   112 H    0.972
                            94 C    0.104
    92   7 N    2.994 --    93 C    1.407    91 C    1.407
    93   6 C    3.973 --    94 C    1.457    92 N    1.407   113 H    0.972
                            90 C    0.104
    94   6 C    3.973 --    93 C    1.457    89 C    1.350   114 H    0.974
                            91 C    0.104
    95   6 C    3.905 --    86 C    1.270    99 N    1.258    96 C    1.179
    96   6 C    3.957 --    97 C    1.651    95 C    1.179   115 H    0.974
    97   6 C    3.955 --    96 C    1.651    98 C    1.173   116 H    0.976
    98   6 C    3.908 --    60 C    1.364    99 N    1.220    97 C    1.173
    99   7 N    3.243 --    95 C    1.258    98 C    1.220    59 Cu   0.502
   100   1 H    1.001 --    60 C    0.971
   101   1 H    0.998 --    62 C    0.976
   102   1 H    1.003 --    63 C    0.974
   103   1 H    1.002 --    70 C    0.974
   104   1 H    1.013 --    71 C    0.972
   105   1 H    1.013 --    73 C    0.972
   106   1 H    1.002 --    74 C    0.974
   107   1 H    1.002 --    76 C    0.974
   108   1 H    1.004 --    77 C    0.971
   109   1 H    1.005 --    82 C    0.971
   110   1 H    1.003 --    83 C    0.974
   111   1 H    1.002 --    90 C    0.974
   112   1 H    1.013 --    91 C    0.972
   113   1 H    1.013 --    93 C    0.972
   114   1 H    1.002 --    94 C    0.974
   115   1 H    1.002 --    96 C    0.974
   116   1 H    0.998 --    97 C    0.976
   117   6 C    3.935 --   118 C    2.589    22 C    1.167
   118   6 C    3.935 --   117 C    2.589    80 C    1.167
 ---------------------------------------------------------------------------

           -------------------------------------------------
          | TOTAL ENERGY             -213.303572199394 Eh   |
          | GRADIENT NORM               0.000605459334 Eh/α |
          | HOMO-LUMO GAP               0.000837224235 eV   |
           -------------------------------------------------

 * finished run on 2022/07/30 at 06:56:35.055
