   * xtb version 6.5.1 (b24c23e) compiled by 'conda@728c89f4b128' on 2022-07-12
          program call               : xtb Ph2Me_C4_3.xyz --gfn 1 --opt -T 48

   ID    Z sym.   atoms
    1    6 C      1-5, 7-10, 12-30, 33-40, 70-74, 76-79, 81-99, 102-109,
                  139-151, 153-156, 158-176, 179-186
    2    7 N      6, 11, 31, 32, 75, 80, 100, 101, 152, 157, 177, 178
    3    1 H      41-69, 110-138, 187-214

          :  Hamiltonian                  GFN1-xTB          :
 * total energy  :  -328.8682371 Eh     change        0.5477659E-08 Eh
 * total energy  :  -329.1192205 Eh     change       -0.2509834E+00 Eh
 * total energy  :  -329.2303291 Eh     change       -0.1111086E+00 Eh
 * total energy  :  -329.2808377 Eh     change       -0.5050861E-01 Eh
 * total energy  :  -329.3193631 Eh     change       -0.3852545E-01 Eh
 * total energy  :  -329.3678237 Eh     change       -0.4846063E-01 Eh
 * total energy  :  -329.4144113 Eh     change       -0.4658758E-01 Eh
 * total energy  :  -329.4486023 Eh     change       -0.3419100E-01 Eh
 * total energy  :  -329.4768184 Eh     change       -0.2821611E-01 Eh
 * total energy  :  -329.4958921 Eh     change       -0.1907365E-01 Eh
 * total energy  :  -329.7026776 Eh     change       -0.1827274E-04 Eh
 * total energy  :  -329.7026994 Eh     change       -0.2175849E-04 Eh
 * total energy  :  -329.7027218 Eh     change       -0.2243741E-04 Eh
 * total energy  :  -329.7027397 Eh     change       -0.1793948E-04 Eh
 * total energy  :  -329.7027523 Eh     change       -0.1260198E-04 Eh
 * total energy  :  -329.7027596 Eh     change       -0.7239895E-05 Eh
 * total energy  :  -329.7027649 Eh     change       -0.5301464E-05 Eh
 * total energy  :  -329.7027700 Eh     change       -0.5132376E-05 Eh
 * total energy  :  -329.7027744 Eh     change       -0.4396009E-05 Eh
   *** GEOMETRY OPTIMIZATION CONVERGED AFTER 88 ITERATIONS ***

 final structure:
================
214
 xtb: 6.5.1 (b24c23e)
C           26.80505865679919        0.08315776012085       -0.00861031619096
C           27.41861731458386        1.28142116232357        0.33318873804146
C           26.77257954535258        2.49398207464049        0.70434362959127
C           27.73926901417326        3.42745392884643        0.95265190180559
C           29.00722719252580        2.81842877426669        0.72989338058827
N           28.76283516812455        1.52363640925105        0.36894130030036
C           30.27218445513588        3.40217772697079        0.86009464178080
C           31.48491813293850        2.73966521741825        0.65748109276058
C           32.78270024832410        3.38648180873748        0.73046641539226
C           33.70133388623055        2.43014666080671        0.48200839310552
N           31.63682703888176        1.42151427548629        0.35135908305911
C           32.96356717142871        1.20303428256078        0.25149146876109
C           33.59785924166977       -0.02753931652281       -0.01388324732961
C           32.95847499391847       -1.25312850726623       -0.27878559711165
C           33.59702625641525       -2.49764014875994       -0.52436958657394
C           32.62598380325490       -3.42981432496473       -0.76597972872820
C           31.36335500093092       -2.77990274065236       -0.68334305899179
C           30.09980259960189       -3.35241505580933       -0.86138675459502
C           30.06100144347455       -4.78943975265875       -1.22895766648521
C           29.43857069507268       -5.71291125294829       -0.39016299039630
C           29.39828908016700       -7.06119799533009       -0.72939387407248
C           28.71219552054202       -8.04740549464551        0.17698394632742
C           29.98119013367577       -7.48255671531553       -1.92069830376218
C           30.60656422933300       -6.57333339320312       -2.76851812781826
C           31.21688578186545       -7.03322534415164       -4.06497171757644
C           30.64516948410601       -5.22827316688861       -2.41652300239650
C           28.88601871074503       -2.67157276117540       -0.72229500172694
C           27.58161604555670       -3.26884028268603       -0.96304884278318
C           26.66951084682749       -2.30585951019462       -0.72088485297679
C           27.41568616399715       -1.11846640175352       -0.34343642861669
N           28.74695220089854       -1.37284637668662       -0.36449543744740
N           31.61626201451116       -1.46894396309746       -0.37574295803190
C           30.30853889798191        4.83519746147893        1.24466456871390
C           30.92239958778137        5.22593365944481        2.43314109777881
C           30.95264432390706        6.56610490030180        2.80658861954154
C           31.62879001194911        6.97515559216959        4.08729664791628
C           30.36745868792538        7.51754521365923        1.97809388875424
C           29.75114899042456        7.14329878640987        0.78665242962580
C           29.13872126083594        8.18742455186705       -0.10753443309271
C           29.72333660263564        5.80122254419114        0.42595197268548
H           25.71975098426282        0.09638205125228       -0.01119967122840
H           25.70395016482934        2.62048490609300        0.77495589173809
H           27.59338824352502        4.44742877249470        1.26948066250229
H           29.48435502596978        0.84125558465549        0.16162432550823
H           32.94567883764243        4.43316231838469        0.93040080070613
H           34.77515684552886        2.52157600256338        0.44628551390675
H           34.66418666213180       -2.65079596626516       -0.51157296712224
H           32.76738099366539       -4.47764548737340       -0.97537705843431
H           29.00044881811025       -5.37519221507319        0.54266772065084
H           27.63896161252492       -8.05420577857764       -0.02694385934075
H           29.09547204601958       -9.05538176598357        0.01795846107891
H           28.85522943909488       -7.77573426357253        1.22326523568586
H           29.95031736937329       -8.53325085050757       -2.19045736346669
H           32.09797590089693       -6.43963684475612       -4.31039294803170
H           31.50253008154750       -8.08376771905225       -4.00973760283930
H           30.49466236437426       -6.91873154835607       -4.87655583096732
H           31.11756164400018       -4.50893652367907       -3.07668668315498
H           27.41280673770673       -4.28387804433962       -1.28502199981608
H           25.59429125126281       -2.36063608802728       -0.79044597996016
H           30.89821533811716       -0.76512030412470       -0.23912897958324
H           31.36233159575151        4.47355439987491        3.07855953570344
H           31.42326931169382        6.25420582475479        4.87929427291512
H           31.29124536872783        7.95998160511701        4.41009696267603
H           32.71038406856546        7.01507249928049        3.93981407896756
H           30.38798356181368        8.56428121382583        2.26372794933387
H           28.62983698834280        8.95031884427829        0.48266611013357
H           29.91835746898277        8.67863401756846       -0.69405043233610
H           28.42340083199871        7.73954479923966       -0.79732159089080
H           29.25872937731128        5.49961539527053       -0.50654533098007
C           60.47459946720088       -0.07069648847370       -0.04506097261716
C           59.86419787092514       -1.28641120035797       -0.32516207712176
C           60.51367187813211       -2.52504940295051       -0.58846112221815
C           59.54940000449387       -3.46572495523574       -0.81819781843591
C           58.27954425963023       -2.82986430169206       -0.71167260101035
N           58.52043504908617       -1.52045310336623       -0.40551051287425
C           57.01633584842378       -3.41239109538288       -0.86255009726604
C           55.80091421503467       -2.74253853244929       -0.70693609371176
C           54.50357844797502       -3.35833201967496       -0.92059020524060
C           53.58224992645830       -2.40208231547205       -0.68214354326481
N           55.64556114866973       -1.43386860458936       -0.36335157315750
C           54.31782250330173       -1.20167427299028       -0.33378604065704
C           53.68084560948551        0.01710807957445       -0.02355756154296
C           54.31681939446926        1.23384033882204        0.28687508366422
C           53.67355923379547        2.45170099405715        0.63309736249528
C           54.64173613572532        3.38761510551760        0.87148402119536
C           55.90758995031423        2.77156316580978        0.66770421670701
C           57.17030563822909        3.35534719227315        0.81218743829503
C           57.20810301337075        4.79012293605866        1.18829234900762
C           57.81215433986981        5.18400837985682        2.38169572018464
C           57.85262307754048        6.52589948965813        2.74493834827665
C           58.52064270709429        6.94112237948335        4.02794506355342
C           57.28730722798350        7.47773953840638        1.90180564759041
C           56.68054972990132        7.10089013738414        0.70745203045711
C           56.08995695867669        8.13860757832194       -0.20862460198751
C           56.64262651022004        5.75551692010500        0.35631506609156
C           58.38619431305427        2.68770882667269        0.63190296249743
C           59.69005860635345        3.32581202880043        0.72712047342822
C           60.60470051426301        2.36470851633229        0.48716067611163
C           59.86090543357101        1.14284244668794        0.23671501228140
N           58.52846844697429        1.37671095348429        0.32384548110006
N           55.65881108991478        1.46918311610549        0.32193394501275
C           56.98761397095988       -4.85337431498372       -1.21786013226415
C           56.40219118715204       -5.77879229518766       -0.35617229080626
C           56.38068995130470       -7.13185162017550       -0.68047417365463
C           55.73463556728118       -8.11989866001526        0.25280781854760
C           56.94570856416378       -7.55458729127394       -1.87897407143254
C           57.53378549777645       -6.64205328312341       -2.75106466768949
C           58.12444887949297       -7.11251092596553       -4.05285170815263
C           57.55330882291764       -5.29351204750927       -2.41455994743761
H           61.55995193488566       -0.07934355930590       -0.04895467875822
H           61.58282633329978       -2.66595078504896       -0.59232778998946
H           59.69789943941413       -4.51125412983716       -1.03462488958910
H           57.79715934148405       -0.82523618970099       -0.25463107285768
H           54.34231073585345       -4.37992429227903       -1.22456753238663
H           52.50783261779342       -2.47401714974365       -0.73841308702845
H           52.60528921920697        2.58283753777659        0.69655472972387
H           54.49574546159823        4.41254077174538        1.17136400531920
H           58.23603406247339        4.43178694042392        3.03795346944706
H           59.59472194150310        7.05741497123495        3.86574524276556
H           58.12517923298075        7.89266665911422        4.38344800307312
H           58.37579574567874        6.18667564755827        4.80169809620954
H           57.31725554186945        8.52616279488703        2.18027503156770
H           55.22229967120350        7.74137878161594       -0.73606378337050
H           55.78877929703899        9.02479841002502        0.35022869264322
H           56.83003655714627        8.44077279221435       -0.95317673736746
H           56.18585181569411        5.45267424266103       -0.57964572589357
H           59.85710265187154        4.37037715111838        0.93551125679182
H           61.68034013994721        2.44547732520667        0.46673889444116
H           56.37964088106727        0.78054920644988        0.13267294722772
H           55.97804466926473       -5.43958325180275        0.58253784020003
H           55.93354163089533       -7.85652462691399        1.29212032895159
H           56.10173309121640       -9.12939191694798        0.06773068843933
H           54.65234023609877       -8.11700428180731        0.10489139982889
H           56.93153994048417       -8.60851640899866       -2.13724059059881
H           58.63168656165008       -8.06915281326477       -3.92341586926039
H           57.33265859423110       -7.24744354913291       -4.79315068551189
H           58.83647933233748       -6.38545861854479       -4.44344038454069
H           57.99669336061335       -4.57169676403088       -3.09191591224016
C           36.22671390063944       -0.05300048011930       -0.02129485434290
C           35.00462384257970       -0.04477065211558       -0.01794424854635
C           37.57667142205285       -0.05332660124378       -0.02540133179917
C           38.79885440255888       -0.04508851611465       -0.02868310424328
C           49.70189855027876        0.03625057269445       -0.02015606863220
C           48.47968703441640        0.02561609740739       -0.02390929725207
C           51.05183810154879        0.03639563918740       -0.01920338662213
C           52.27401536708738        0.03163474001996       -0.02100914390233
C           40.20478544187441       -0.03743013457719       -0.03241928645048
C           40.83924144224045       -1.22249002775061        0.38577824466366
C           40.19992450762816       -2.40382957545995        0.84274231980718
C           41.17208000561904       -3.31723959085045        1.14709429349398
C           42.43413462008025       -2.72232062959776        0.87449123061774
N           42.18191212152346       -1.45345982453354        0.42551478127556
C           43.69717710654643       -3.30298952658317        1.03958110765832
C           44.91876167417753       -2.67282138974681        0.79795509772327
C           46.20588731537499       -3.33410783134430        0.91789119341728
C           47.14097878146623       -2.40888364802032        0.61804953796920
N           45.09254911915247       -1.37874891548693        0.41211798774575
C           46.42356664599113       -1.18796831445078        0.30868970527509
C           47.07385463354360        0.01569536884886       -0.02895701424549
C           46.43877548665579        1.22212068532009       -0.38032529497921
C           47.07722648374269        2.44427837664459       -0.71490743662266
C           46.10498848710776        3.35430787817548       -1.02932675157207
C           44.84387514823548        2.71081964329718       -0.90164227491883
C           43.58168601324013        3.27164934263518       -1.12975540358732
C           43.56310680950951        4.67367516410189       -1.61862097655765
C           42.96708715525073        5.67875080014623       -0.85779828025077
C           42.94389225441846        6.99100650486567       -1.31628089847012
C           42.31864727501622        8.07775962939751       -0.48405756108546
C           43.52030139811712        7.29457860242857       -2.54682401956874
C           44.11661362760357        6.30256070111966       -3.31838113725070
C           44.74904581634819        6.63883146875883       -4.64193091767859
C           44.13889566378960        4.99386910186432       -2.84680540478145
C           42.35942227998255        2.62450173469858       -0.94371290295653
C           41.07196299517278        3.22837827347112       -1.23756620512690
C           40.13690413039475        2.30779745409599       -0.92389880210770
C           40.85475210434979        1.14041584142351       -0.45160278881859
N           42.18563978179049        1.35531370943923       -0.48215636418363
N           45.09634277165046        1.42760313558781       -0.49585139301682
C           43.71826826301018       -4.70899410911408        1.51615300263947
C           43.13769190614802       -5.72084321195307        0.75375925257042
C           43.15498087660140       -7.03919169799849        1.19839377430115
C           42.51372427254501       -8.12142428179222        0.37232811234333
C           43.75246654781370       -7.33936714279316        2.41810265984247
C           44.33608546456917       -6.33940303535375        3.19154466334558
C           44.96183514158269       -6.67465189029801        4.51842331543154
C           44.31711233950297       -5.02655216459035        2.73494666339263
H           39.13258780024358       -2.52794789783262        0.93059039391617
H           41.02986631452292       -4.31279399675211        1.53469096842955
H           42.89668135511688       -0.78075503207081        0.16897929836678
H           46.35105658081127       -4.36913052837046        1.18173842100367
H           48.21348616703990       -2.51797026647798        0.59423191686808
H           48.14415179634315        2.59913870412453       -0.71077946142501
H           46.24589503458639        4.38339100307321       -1.31713705546281
H           42.53061642051086        5.43122914028200        0.10358009337470
H           43.09065288363234        8.60042093905714        0.08529171392061
H           41.81378728139931        8.80776059407060       -1.11749179556676
H           41.59777941794032        7.66278504250879        0.22038338653154
H           43.50000926888091        8.31709033209283       -2.90973549859146
H           44.63696081184899        5.81328135427813       -5.34529934300610
H           45.81688600665985        6.82527837129225       -4.50623438553036
H           44.29942526383304        7.53357554495158       -5.07260900891121
H           44.58752058163574        4.20936139181232       -3.44653646114431
H           40.92591755002358        4.21752225744136       -1.64032587995941
H           39.06421974224214        2.38240803501014       -1.00467321357390
H           44.38219261930488        0.73164943366934       -0.30905586546581
H           42.68809015291978       -5.47768841270679       -0.20285740685503
H           42.92764651690064       -9.09873345033458        0.62044630883907
H           42.66180453510252       -7.93458096166724       -0.69170774104828
H           41.43864107058934       -8.14696116120834        0.56461609391988
H           43.76763850732532       -8.36575589539549        2.77011656775376
H           45.70594047335034       -5.92857125508413        4.79742105497940
H           45.43886373690339       -7.65456790163856        4.48510169711979
H           44.19430689648932       -6.69797636598309        5.29545080901370
H           44.75791228416538       -4.23681470329926        3.33332769261777

          :  Hamiltonian                  GFN1-xTB          :
         :: total energy            -329.702774416481 Eh    ::
         :: gradient norm              0.000404462421 Eh/a0 ::
         :: HOMO-LUMO gap              0.871334531274 eV    ::
         :: SCC energy              -335.238899792894 Eh    ::
         :: repulsion energy           5.710913119828 Eh    ::

    * Orbital Energies and Occupations

         #    Occupation            Energy/Eh            Energy/eV
      -------------------------------------------------------------
         1        2.0000           -0.8010029             -21.7964
       ...           ...                  ...                  ...
       293        2.0000           -0.4140043             -11.2656
       294        2.0000           -0.4133270             -11.2472
       295        2.0000           -0.4129782             -11.2377
       296        2.0000           -0.4126976             -11.2301
       297        2.0000           -0.4114405             -11.1959
       298        2.0000           -0.4114173             -11.1952
       299        2.0000           -0.4110654             -11.1857
       300        2.0000           -0.3955240             -10.7628
       301        2.0000           -0.3950362             -10.7495
       302        2.0000           -0.3949292             -10.7466
       303        2.0000           -0.3849486             -10.4750
       304        2.0000           -0.3793856             -10.3236
       305        2.0000           -0.3721911             -10.1278 (HOMO)
       306                         -0.3401702              -9.2565 (LUMO)
       307                         -0.3313015              -9.0152
       308                         -0.3271604              -8.9025
       309                         -0.3269338              -8.8963
       310                         -0.3268284              -8.8935
       311                         -0.3242455              -8.8232
       312                         -0.2993692              -8.1463
       313                         -0.2922650              -7.9529
       314                         -0.2895071              -7.8779
       315                         -0.2580706              -7.0225
       316                         -0.2578263              -7.0158
       ...                                ...                  ...
       684                          1.5190833              41.3364
      -------------------------------------------------------------
                  HL-Gap            0.0320210 Eh            0.8713 eV

Wiberg/Mayer (AO) data.
largest (>0.10) Wiberg bond orders for each atom

     #   Z sym  total        # sym  WBO       # sym  WBO       # sym  WBO
 ---------------------------------------------------------------------------
     1   6 C    3.925 --    30 C    1.365     2 C    1.346    41 H    0.971
     2   6 C    3.903 --     1 C    1.346     3 C    1.230     6 N    1.170
     3   6 C    3.953 --     4 C    1.595     2 C    1.230    42 H    0.977
     4   6 C    3.959 --     3 C    1.595     5 C    1.235    43 H    0.974
     5   6 C    3.896 --     7 C    1.303     4 C    1.235     6 N    1.176
     6   7 N    3.469 --     5 C    1.176     2 C    1.170    44 H    0.873
     7   6 C    3.939 --     8 C    1.336     5 C    1.303    33 C    1.027
     8   6 C    3.915 --     7 C    1.336    11 N    1.286     9 C    1.125
     9   6 C    3.966 --    10 C    1.710     8 C    1.125    45 H    0.974
    10   6 C    3.964 --     9 C    1.710    12 C    1.128    46 H    0.974
    11   7 N    3.022 --    12 C    1.344     8 C    1.286
    12   6 C    3.911 --    11 N    1.344    13 C    1.255    10 C    1.128
    13   6 C    3.936 --    12 C    1.255    14 C    1.253   140 C    1.186
    14   6 C    3.887 --    13 C    1.253    15 C    1.249    32 N    1.189
    15   6 C    3.959 --    16 C    1.583    14 C    1.249    47 H    0.975
    16   6 C    3.955 --    15 C    1.583    17 C    1.241    48 H    0.974
    17   6 C    3.898 --    18 C    1.310    16 C    1.241    32 N    1.164
    18   6 C    3.925 --    27 C    1.322    17 C    1.310    19 C    1.028
    19   6 C    3.988 --    20 C    1.396    26 C    1.396    18 C    1.028
                            23 C    0.102
    20   6 C    3.986 --    21 C    1.417    19 C    1.396    49 H    0.972
                            24 C    0.104
    21   6 C    3.988 --    20 C    1.417    23 C    1.415    22 C    1.020
                            26 C    0.103
    22   6 C    3.996 --    21 C    1.020    51 H    0.984    52 H    0.981
                            50 H    0.971
    23   6 C    3.987 --    21 C    1.415    24 C    1.415    53 H    0.972
                            19 C    0.102
    24   6 C    3.988 --    26 C    1.417    23 C    1.415    25 C    1.020
                            20 C    0.104
    25   6 C    3.996 --    24 C    1.020    55 H    0.983    54 H    0.982
                            56 H    0.971
    26   6 C    3.985 --    24 C    1.417    19 C    1.396    57 H    0.972
                            21 C    0.103
    27   6 C    3.929 --    18 C    1.322    31 N    1.316    28 C    1.118
    28   6 C    3.967 --    29 C    1.722    27 C    1.118    58 H    0.974
    29   6 C    3.966 --    28 C    1.722    30 C    1.117    59 H    0.976
    30   6 C    3.930 --     1 C    1.365    31 N    1.301    29 C    1.117
    31   7 N    3.012 --    27 C    1.316    30 C    1.301
    32   7 N    3.474 --    14 C    1.189    17 C    1.164    60 H    0.873
    33   6 C    3.988 --    34 C    1.400    40 C    1.392     7 C    1.027
                            37 C    0.102
    34   6 C    3.987 --    35 C    1.413    33 C    1.400    61 H    0.972
                            38 C    0.104
    35   6 C    3.988 --    37 C    1.420    34 C    1.413    36 C    1.020
                            40 C    0.103
    36   6 C    3.996 --    35 C    1.020    63 H    0.984    62 H    0.980
                            64 H    0.971
    37   6 C    3.988 --    35 C    1.420    38 C    1.410    65 H    0.972
                            33 C    0.102
    38   6 C    3.988 --    40 C    1.422    37 C    1.410    39 C    1.020
                            34 C    0.104
    39   6 C    3.996 --    38 C    1.020    68 H    0.984    66 H    0.981
                            67 H    0.971
    40   6 C    3.986 --    38 C    1.422    33 C    1.392    69 H    0.972
                            35 C    0.103
    41   1 H    1.002 --     1 C    0.971
    42   1 H    0.998 --     3 C    0.977
    43   1 H    1.005 --     4 C    0.974
    44   1 H    0.986 --     6 N    0.873
    45   1 H    1.005 --     9 C    0.974
    46   1 H    1.003 --    10 C    0.974
    47   1 H    1.002 --    15 C    0.975
    48   1 H    1.005 --    16 C    0.974
    49   1 H    1.003 --    20 C    0.972
    50   1 H    1.006 --    22 C    0.971
    51   1 H    1.004 --    22 C    0.984
    52   1 H    1.004 --    22 C    0.981
    53   1 H    1.000 --    23 C    0.972
    54   1 H    1.004 --    25 C    0.982
    55   1 H    1.004 --    25 C    0.983
    56   1 H    1.006 --    25 C    0.971
    57   1 H    1.003 --    26 C    0.972
    58   1 H    1.006 --    28 C    0.974
    59   1 H    0.999 --    29 C    0.976
    60   1 H    0.987 --    32 N    0.873
    61   1 H    1.003 --    34 C    0.972
    62   1 H    1.005 --    36 C    0.980
    63   1 H    1.004 --    36 C    0.984
    64   1 H    1.006 --    36 C    0.971
    65   1 H    1.000 --    37 C    0.972
    66   1 H    1.005 --    39 C    0.981
    67   1 H    1.006 --    39 C    0.971
    68   1 H    1.004 --    39 C    0.984
    69   1 H    1.003 --    40 C    0.972
    70   6 C    3.925 --    99 C    1.366    71 C    1.346   110 H    0.971
    71   6 C    3.903 --    70 C    1.346    72 C    1.230    75 N    1.170
    72   6 C    3.953 --    73 C    1.595    71 C    1.230   111 H    0.977
    73   6 C    3.959 --    72 C    1.595    74 C    1.235   112 H    0.974
    74   6 C    3.896 --    76 C    1.303    73 C    1.235    75 N    1.176
    75   7 N    3.469 --    74 C    1.176    71 C    1.170   113 H    0.873
    76   6 C    3.939 --    77 C    1.337    74 C    1.303   102 C    1.026
    77   6 C    3.915 --    76 C    1.337    80 N    1.285    78 C    1.125
    78   6 C    3.966 --    79 C    1.710    77 C    1.125   114 H    0.974
    79   6 C    3.964 --    78 C    1.710    81 C    1.128   115 H    0.974
    80   7 N    3.022 --    81 C    1.344    77 C    1.285
    81   6 C    3.910 --    80 N    1.344    82 C    1.255    79 C    1.128
    82   6 C    3.936 --    81 C    1.255    83 C    1.253   146 C    1.187
    83   6 C    3.887 --    82 C    1.253    84 C    1.249   101 N    1.189
    84   6 C    3.959 --    85 C    1.583    83 C    1.249   116 H    0.975
    85   6 C    3.955 --    84 C    1.583    86 C    1.241   117 H    0.974
    86   6 C    3.898 --    87 C    1.310    85 C    1.241   101 N    1.164
    87   6 C    3.925 --    96 C    1.321    86 C    1.310    88 C    1.028
    88   6 C    3.988 --    95 C    1.396    89 C    1.396    87 C    1.028
                            92 C    0.102
    89   6 C    3.986 --    90 C    1.417    88 C    1.396   118 H    0.972
                            93 C    0.104
    90   6 C    3.988 --    89 C    1.417    92 C    1.415    91 C    1.020
                            95 C    0.103
    91   6 C    3.996 --    90 C    1.020   120 H    0.984   121 H    0.982
                           119 H    0.971
    92   6 C    3.987 --    90 C    1.415    93 C    1.415   122 H    0.972
                            88 C    0.102
    93   6 C    3.988 --    95 C    1.417    92 C    1.415    94 C    1.020
                            89 C    0.104
    94   6 C    3.996 --    93 C    1.020   124 H    0.983   123 H    0.982
                           125 H    0.971
    95   6 C    3.985 --    93 C    1.417    88 C    1.396   126 H    0.972
                            90 C    0.103
    96   6 C    3.929 --    87 C    1.321   100 N    1.317    97 C    1.118
    97   6 C    3.967 --    98 C    1.722    96 C    1.118   127 H    0.974
    98   6 C    3.966 --    97 C    1.722    99 C    1.117   128 H    0.976
    99   6 C    3.930 --    70 C    1.366   100 N    1.300    98 C    1.117
   100   7 N    3.012 --    96 C    1.317    99 C    1.300
   101   7 N    3.474 --    83 C    1.189    86 C    1.164   129 H    0.873
   102   6 C    3.988 --   103 C    1.401   109 C    1.393    76 C    1.026
                           106 C    0.103
   103   6 C    3.987 --   104 C    1.413   102 C    1.401   130 H    0.972
                           107 C    0.104
   104   6 C    3.988 --   106 C    1.420   103 C    1.413   105 C    1.020
                           109 C    0.103
   105   6 C    3.996 --   104 C    1.020   132 H    0.984   131 H    0.981
                           133 H    0.971
   106   6 C    3.988 --   104 C    1.420   107 C    1.411   134 H    0.972
                           102 C    0.103
   107   6 C    3.988 --   109 C    1.421   106 C    1.411   108 C    1.020
                           103 C    0.104
   108   6 C    3.996 --   107 C    1.020   137 H    0.984   135 H    0.981
                           136 H    0.971
   109   6 C    3.986 --   107 C    1.421   102 C    1.393   138 H    0.972
                           104 C    0.103
   110   1 H    1.002 --    70 C    0.971
   111   1 H    0.998 --    72 C    0.977
   112   1 H    1.005 --    73 C    0.974
   113   1 H    0.986 --    75 N    0.873
   114   1 H    1.005 --    78 C    0.974
   115   1 H    1.003 --    79 C    0.974
   116   1 H    1.002 --    84 C    0.975
   117   1 H    1.005 --    85 C    0.974
   118   1 H    1.003 --    89 C    0.972
   119   1 H    1.006 --    91 C    0.971
   120   1 H    1.004 --    91 C    0.984
   121   1 H    1.004 --    91 C    0.982
   122   1 H    1.000 --    92 C    0.972
   123   1 H    1.004 --    94 C    0.982
   124   1 H    1.004 --    94 C    0.983
   125   1 H    1.006 --    94 C    0.971
   126   1 H    1.003 --    95 C    0.972
   127   1 H    1.006 --    97 C    0.974
   128   1 H    0.999 --    98 C    0.976
   129   1 H    0.987 --   101 N    0.873
   130   1 H    1.003 --   103 C    0.972
   131   1 H    1.004 --   105 C    0.981
   132   1 H    1.004 --   105 C    0.984
   133   1 H    1.006 --   105 C    0.971
   134   1 H    1.000 --   106 C    0.972
   135   1 H    1.005 --   108 C    0.981
   136   1 H    1.006 --   108 C    0.971
   137   1 H    1.004 --   108 C    0.984
   138   1 H    1.003 --   109 C    0.972
   139   6 C    3.932 --   140 C    2.476   141 C    1.307
   140   6 C    3.922 --   139 C    2.476    13 C    1.186   142 C    0.198
   141   6 C    3.929 --   142 C    2.474   139 C    1.307
   142   6 C    3.923 --   141 C    2.474   147 C    1.189   140 C    0.198
   143   6 C    3.929 --   144 C    2.474   145 C    1.307
   144   6 C    3.923 --   143 C    2.474   159 C    1.189   146 C    0.198
   145   6 C    3.932 --   146 C    2.475   143 C    1.307
   146   6 C    3.922 --   145 C    2.475    82 C    1.187   144 C    0.198
   147   6 C    3.924 --   176 C    1.255   148 C    1.249   142 C    1.189
   148   6 C    3.888 --   149 C    1.253   147 C    1.249   152 N    1.189
   149   6 C    3.956 --   150 C    1.577   148 C    1.253   187 H    0.975
   150   6 C    3.956 --   149 C    1.577   151 C    1.246   188 H    0.974
   151   6 C    3.894 --   153 C    1.300   150 C    1.246   152 N    1.166
   152   7 N    3.471 --   148 C    1.189   151 C    1.166   189 H    0.874
   153   6 C    3.927 --   154 C    1.338   151 C    1.300   179 C    1.026
   154   6 C    3.917 --   153 C    1.338   157 N    1.284   155 C    1.125
   155   6 C    3.966 --   156 C    1.709   154 C    1.125   190 H    0.974
   156   6 C    3.964 --   155 C    1.709   158 C    1.130   191 H    0.974
   157   7 N    3.009 --   158 C    1.343   154 C    1.284
   158   6 C    3.911 --   157 N    1.343   159 C    1.255   156 C    1.130
   159   6 C    3.924 --   158 C    1.255   160 C    1.249   144 C    1.189
   160   6 C    3.888 --   161 C    1.253   159 C    1.249   178 N    1.189
   161   6 C    3.956 --   162 C    1.577   160 C    1.253   192 H    0.975
   162   6 C    3.956 --   161 C    1.577   163 C    1.246   193 H    0.974
   163   6 C    3.894 --   164 C    1.300   162 C    1.246   178 N    1.166
   164   6 C    3.927 --   173 C    1.339   163 C    1.300   165 C    1.025
   165   6 C    3.988 --   172 C    1.399   166 C    1.394   164 C    1.025
                           169 C    0.103
   166   6 C    3.987 --   167 C    1.420   165 C    1.394   194 H    0.972
                           170 C    0.103
   167   6 C    3.988 --   166 C    1.420   169 C    1.412   168 C    1.020
                           172 C    0.104
   168   6 C    3.995 --   167 C    1.020   197 H    0.984   196 H    0.981
                           195 H    0.971
   169   6 C    3.988 --   170 C    1.418   167 C    1.412   198 H    0.972
                           165 C    0.103
   170   6 C    3.988 --   169 C    1.418   172 C    1.414   171 C    1.020
                           166 C    0.103
   171   6 C    3.995 --   170 C    1.020   201 H    0.984   199 H    0.982
                           200 H    0.971
   172   6 C    3.986 --   170 C    1.414   165 C    1.399   202 H    0.972
                           167 C    0.104
   173   6 C    3.917 --   164 C    1.339   177 N    1.284   174 C    1.125
   174   6 C    3.966 --   175 C    1.709   173 C    1.125   203 H    0.974
   175   6 C    3.964 --   174 C    1.709   176 C    1.129   204 H    0.974
   176   6 C    3.911 --   177 N    1.344   147 C    1.255   175 C    1.129
   177   7 N    3.009 --   176 C    1.344   173 C    1.284
   178   7 N    3.471 --   160 C    1.189   163 C    1.166   205 H    0.874
   179   6 C    3.988 --   180 C    1.400   186 C    1.393   153 C    1.026
                           183 C    0.103
   180   6 C    3.986 --   181 C    1.414   179 C    1.400   206 H    0.972
                           184 C    0.104
   181   6 C    3.988 --   183 C    1.419   180 C    1.414   182 C    1.020
                           186 C    0.103
   182   6 C    3.996 --   181 C    1.020   207 H    0.984   208 H    0.981
                           209 H    0.971
   183   6 C    3.988 --   181 C    1.419   184 C    1.412   210 H    0.972
                           179 C    0.103
   184   6 C    3.988 --   186 C    1.420   183 C    1.412   185 C    1.020
                           180 C    0.104
   185   6 C    3.995 --   184 C    1.020   211 H    0.984   212 H    0.982
                           213 H    0.971
   186   6 C    3.987 --   184 C    1.420   179 C    1.393   214 H    0.972
                           181 C    0.103
   187   1 H    1.002 --   149 C    0.975
   188   1 H    1.005 --   150 C    0.974
   189   1 H    0.987 --   152 N    0.874
   190   1 H    1.005 --   155 C    0.974
   191   1 H    1.003 --   156 C    0.974
   192   1 H    1.002 --   161 C    0.975
   193   1 H    1.005 --   162 C    0.974
   194   1 H    1.003 --   166 C    0.972
   195   1 H    1.006 --   168 C    0.971
   196   1 H    1.004 --   168 C    0.981
   197   1 H    1.004 --   168 C    0.984
   198   1 H    1.000 --   169 C    0.972
   199   1 H    1.004 --   171 C    0.982
   200   1 H    1.006 --   171 C    0.971
   201   1 H    1.004 --   171 C    0.984
   202   1 H    1.003 --   172 C    0.972
   203   1 H    1.005 --   174 C    0.974
   204   1 H    1.003 --   175 C    0.974
   205   1 H    0.987 --   178 N    0.874
   206   1 H    1.003 --   180 C    0.972
   207   1 H    1.004 --   182 C    0.984
   208   1 H    1.004 --   182 C    0.981
   209   1 H    1.006 --   182 C    0.971
   210   1 H    1.000 --   183 C    0.972
   211   1 H    1.004 --   185 C    0.984
   212   1 H    1.004 --   185 C    0.982
   213   1 H    1.006 --   185 C    0.971
   214   1 H    1.003 --   186 C    0.972
 ---------------------------------------------------------------------------

           -------------------------------------------------
          | TOTAL ENERGY             -329.702774416481 Eh   |
          | GRADIENT NORM               0.000404462421 Eh/α |
          | HOMO-LUMO GAP               0.871334531274 eV   |
           -------------------------------------------------

 * finished run on 2022/07/27 at 17:36:34.325
