   * xtb version 6.5.1 (b24c23e) compiled by 'conda@728c89f4b128' on 2022-07-12
          program call               : xtb PhOH_C6_3.xyz --gfn 1 --opt -T 48

   ID    Z sym.   atoms
    1    6 C      1-5, 7-11, 13-17, 19-24, 26-30, 32-37, 60-64, 66-70, 72-76,
                  78-83, 85-89, 91-96, 119-135, 137-141, 143-147, 149-154,
                  156-160, 162-167
    2    7 N      6, 18, 25, 38, 65, 77, 84, 97, 136, 148, 155, 168
    3    8 O      12, 31, 71, 90, 142, 161
    4    1 H      39-59, 98-118, 169-188

          :  Hamiltonian                  GFN1-xTB          :
 * total energy  :  -325.8153970 Eh     change       -0.5941217E-08 Eh
 * total energy  :  -327.1626897 Eh     change       -0.1347293E+01 Eh
 * total energy  :  -327.3931529 Eh     change       -0.2304632E+00 Eh
 * total energy  :  -327.5322931 Eh     change       -0.1391403E+00 Eh
 * total energy  :  -327.6292204 Eh     change       -0.9692728E-01 Eh
 * total energy  :  -327.6943137 Eh     change       -0.6509327E-01 Eh
 * total energy  :  -327.7320045 Eh     change       -0.3769087E-01 Eh
 * total energy  :  -327.7585820 Eh     change       -0.2657741E-01 Eh
 * total energy  :  -327.7764659 Eh     change       -0.1788391E-01 Eh
 * total energy  :  -327.7868922 Eh     change       -0.1042637E-01 Eh
 * total energy  :  -327.8366713 Eh     change       -0.1144094E-04 Eh
 * total energy  :  -327.8366819 Eh     change       -0.1056111E-04 Eh
 * total energy  :  -327.8366948 Eh     change       -0.1294982E-04 Eh
 * total energy  :  -327.8367067 Eh     change       -0.1191910E-04 Eh
 * total energy  :  -327.8367197 Eh     change       -0.1299974E-04 Eh
 * total energy  :  -327.8367332 Eh     change       -0.1350137E-04 Eh
 * total energy  :  -327.8367422 Eh     change       -0.8976004E-05 Eh
 * total energy  :  -327.8367475 Eh     change       -0.5297159E-05 Eh
 * total energy  :  -327.8367517 Eh     change       -0.4230102E-05 Eh
   *** GEOMETRY OPTIMIZATION CONVERGED AFTER 60 ITERATIONS ***

 final structure:
================
188
 xtb: 6.5.1 (b24c23e)
C           24.72892779367951        0.11006026857786        0.02459629299113
C           25.34603048911044        1.24046521788607       -0.49570611262844
C           24.70181464319488        2.38701946907820       -1.03938044697480
C           25.66990502209842        3.27162784463894       -1.42401946965482
C           26.93699957058161        2.69867262360619       -1.11735607521674
N           26.69071454929264        1.47087414932457       -0.57110928094397
C           28.20381875355697        3.25379004603979       -1.33272811233626
C           28.24626125042677        4.61952006222024       -1.90950947791389
C           28.88093970134133        4.85261061843684       -3.13026300874224
C           28.91960454380268        6.12553525060745       -3.67741932495501
C           28.32520251727435        7.18755237835592       -2.99976109983491
O           28.34187650860185        8.45068403119497       -3.49784164917718
C           27.69107913596356        6.96945341102458       -1.77806426562229
C           27.65124266531210        5.69384690388695       -1.24347360854853
C           29.41356082292520        2.61706858654210       -1.04439796549804
C           30.71565456852343        3.23828723554064       -1.20740866045929
C           31.62850940328363        2.31602621405320       -0.83795999004784
N           29.55730290953417        1.35121164594345       -0.56408322295395
C           30.88285004638652        1.13737307988756       -0.44145174337619
C           31.50976763724335       -0.04964251028564       -0.01144582831679
C           30.86556526642339       -1.21936877323296        0.43326680815432
C           31.50039611384341       -2.42352593021028        0.83754890122300
C           30.52803177486980       -3.30397371770430        1.22381760716533
C           29.26842861449302       -2.65990563049607        1.07552609052223
N           29.52409267363278       -1.40711787117393        0.58322098283343
C           28.00423958673190       -3.19022346493926        1.35501732141716
C           27.96441996587339       -4.55594275575292        1.93026954702528
C           28.59726619521977       -4.83451256944315        3.14463601647247
C           28.56118113076927       -6.10622375247422        3.68817532029113
C           27.89240885154237       -7.12694414360908        3.01489771659205
O           27.88004124162180       -8.36417087443846        3.57424956701421
C           27.26034779502778       -6.86568286034541        1.80137615091500
C           27.29573800087188       -5.58656402523526        1.26839098397860
C           26.79381714729262       -2.52449552662199        1.13176524133931
C           25.48732093059162       -3.06161958992246        1.47852263225520
C           24.58105594104361       -2.13800938734360        1.09916667352231
C           25.33317186225738       -1.03188939825186        0.53402995989077
N           26.66230320393563       -1.29504933930053        0.57972335134193
H           23.64372652646493        0.13142289970850        0.03171621998986
H           23.63335789920486        2.50470555525138       -1.12563470016895
H           25.52469646618291        4.23374771672338       -1.88793516777981
H           27.41207271554282        0.82455165158733       -0.26921385151478
H           29.33297326358707        4.02460256652722       -3.66483686730175
H           29.40847901611746        6.29901476596215       -4.63008322502411
H           28.81170065873782        8.49056560151951       -4.34164670593448
H           27.23776331012563        7.80523319871942       -1.25953444441096
H           27.17094798289355        5.52833888196364       -0.28548143201842
H           30.88613655163374        4.24848910753778       -1.54278835749058
H           32.70307871029674        2.40326101142198       -0.81824560495216
H           32.56582804267276       -2.58781376826911        0.82546451977127
H           30.66764609870005       -4.31475859230902        1.57082521730929
H           28.80724041045938       -0.72415787683181        0.36120884636483
H           29.10499675979666       -4.03776465473075        3.67683090595385
H           29.04433689388201       -6.32222924568963        4.63304860658168
H           27.38365386192510       -8.99144502149974        3.03178232309261
H           26.74526214360965       -7.66424247908677        1.27822667053874
H           26.81542304161352       -5.38858382888102        0.31665813052169
H           25.31234967165929       -4.01053871543509        1.95958131242922
H           23.50646916254166       -2.16907726671852        1.18969697510074
C           63.48977903155302       -0.03264850453280        0.08796269162261
C           62.86493848757878       -1.07650048715126        0.75817802988593
C           63.50119062557523       -2.16243851216670        1.42235885284556
C           62.52733514344389       -2.95788470180520        1.95757065020048
C           61.26452490448160       -2.37786555049099        1.64640815845819
N           61.51904737659324       -1.25249910956986        0.91474886918510
C           59.99427929563564       -2.85391898954601        1.99138262507417
C           59.94386287492140       -4.08499596672211        2.81722067945576
C           59.30654934602986       -5.23148280176824        2.34117793900202
C           59.26049808762410       -6.38632574695914        3.10635969865686
C           59.85038423830273       -6.40350821778325        4.36814576235601
O           59.82641223463062       -7.51204007366287        5.15204110644173
C           60.48754181271187       -5.26455226461526        4.85702861726577
C           60.53447791791862       -4.11868245423088        4.08286168867131
C           58.78855666400101       -2.25609900775477        1.61597104457100
C           57.48286407210473       -2.73025906689109        2.03843505634948
C           56.57571414642943       -1.90560812705722        1.47530117504188
N           58.65251131654545       -1.15254711538083        0.83032034645723
C           57.32834321127967       -0.92317821762849        0.71955109994780
C           56.70853592576408        0.10778076518177       -0.01492832270567
C           57.35899423179457        1.12730636097067       -0.73435683981885
C           56.72988813142844        2.14290650671462       -1.50218519004652
C           57.70804553051060        2.93556723068709       -2.03558286151732
C           58.96606802724940        2.43326265795617       -1.60106330235084
N           58.70293734622005        1.33514960355632       -0.82506703873271
C           60.23496228522161        2.93326401419604       -1.91283153961587
C           60.28579668523956        4.15806017331934       -2.74664136641940
C           59.68507027130190        5.34211496757333       -2.31113778269712
C           59.73249528287499        6.48798728099593       -3.08503248922489
C           60.38049508936214        6.46271591269430       -4.31865885712939
O           60.40485656152050        7.60368785982697       -5.05447820715507
C           60.98059184888520        5.28874228852402       -4.76816616602380
C           60.93399765740514        4.14773608122509       -3.98247727551065
C           61.44193146167279        2.36051748429492       -1.49616960916175
C           62.75416503161809        2.92231686128852       -1.77593891369814
C           63.65447516163721        2.08736935877931       -1.21870800649817
C           62.89335956435168        1.02351556128397       -0.58829089499347
N           61.56483677736741        1.22576280110899       -0.76777785835154
H           64.57496635886088       -0.05185409333602        0.10112442024260
H           64.56852200857389       -2.30837959861561        1.47138200906796
H           62.66585699918573       -3.87188915912819        2.51200285106474
H           60.80212756031014       -0.64087974338491        0.53896848653638
H           58.85820449197068       -5.22351492402295        1.35395326945845
H           58.76933796655179       -7.27638773124030        2.72793220243191
H           59.35506423274900       -8.23788485472451        4.72156028027622
H           60.93759195418649       -5.29040852779083        5.84175272283059
H           61.01717245131150       -3.22853522727902        4.47076568349647
H           57.30618171338997       -3.57027637543256        2.69050287889553
H           55.50083825691621       -1.93228028133014        1.55639753676235
H           55.66398116977731        2.24169580005266       -1.63022074136745
H           57.57321666734239        3.78672439831434       -2.68281879012025
H           59.41675563116492        0.75858870668586       -0.39185861842991
H           59.19396104128769        5.36732013067292       -1.34471387262059
H           59.27427419342451        7.40876127101668       -2.74578488540484
H           60.88502833798788        7.47817856015700       -5.88380826150052
H           61.47969431968653        5.27212550017782       -5.73114244540787
H           61.38935937411987        3.23107894098312       -4.34039297236444
H           62.93691798685040        3.83926937431035       -2.31283703604657
H           64.73062281523551        2.16298835676103       -1.20951250867948
C           36.71173371517692       -0.13493309045837       -0.03127178771932
C           35.48364077465111       -0.12410569326290       -0.02906728835476
C           34.13911431702157       -0.10792387857296       -0.02588040093446
C           32.91569044305989       -0.08020944244219       -0.01980836011599
C           38.05624509288547       -0.13465009264041       -0.02782849126561
C           39.28010362354539       -0.12673354246512       -0.02171487417937
C           52.73334621282434        0.14197868506947       -0.06675295319819
C           51.50541585664680        0.13537114951450       -0.07160298647724
C           50.16043781239870        0.11919414888836       -0.07675539009520
C           48.93700833507561        0.09405547329510       -0.07975148926138
C           54.07848156581832        0.14042269048742       -0.05369424499614
C           55.30188788520970        0.12920440627047       -0.03950648964691
C           40.68549088175859       -0.10974935268910       -0.01070654707502
C           41.33008735299523       -1.20780985069422       -0.61103237206796
C           40.69773334622779       -2.30733097065142       -1.24698372252740
C           41.67564124474814       -3.13568086029102       -1.72568641462638
C           42.93492268969877       -2.56937778539063       -1.38738412234341
N           42.67470386419761       -1.40370061417736       -0.71738678031357
C           44.20290891157536       -3.07337975412140       -1.70219144646334
C           44.23875284293628       -4.37264463475975       -2.41774858938112
C           44.81583979372085       -4.46854760844666       -3.68457198804913
C           44.84634877241815       -5.67886960062011       -4.35954776921544
C           44.30167440359010       -6.81536517368264       -3.76618067679636
O           44.31248461381720       -8.02110134496135       -4.39042607530778
C           43.72499192328046       -6.73419458251356       -2.50000764484342
C           43.69282200844991       -5.52016648061373       -1.83712341587664
C           45.41655141866048       -2.45284255162249       -1.39901297961586
C           46.71588803201753       -3.03452727841718       -1.68497705270602
C           47.63586016949539       -2.15527650492152       -1.23712023273114
N           45.56924357514931       -1.25149568254870       -0.77711123611773
C           46.89765589786625       -1.04413398690834       -0.67002839157186
C           47.53101734730511        0.06765911511800       -0.08044840907416
C           46.88659265667602        1.15734930691342        0.53512935113450
C           47.51982100577410        2.24845132914149        1.18494080617943
C           46.54272554825263        3.06648757824286        1.68244412804844
C           45.28302598320253        2.50375000116291        1.34009176210460
N           45.54218819990545        1.34928358767758        0.65040443769914
C           44.01521579565276        3.00303922336440        1.66211201887501
C           43.97581213202820        4.28478208799246        2.40836499238807
C           44.52025594171502        5.44879185192294        1.86049842052773
C           44.48078870461676        6.64467371316274        2.55538084714897
C           43.89852699237784        6.69042326172720        3.82076553457066
O           43.88052834280074        7.87920391646618        4.47631646041283
C           43.35515475839951        5.53688944054045        4.38156382382937
C           43.39257863183165        4.34528810478698        3.67465370876755
C           42.80159532651300        2.39194967964834        1.34067575419414
C           41.50310913212019        2.97838426902379        1.62002815866936
C           40.58250301884559        2.11032757211929        1.15207099436404
C           41.31984477923074        0.99956518480151        0.58323668353223
N           42.64811765627397        1.19821535706700        0.70429295202518
H           39.63061027624176       -2.43546215473871       -1.33089146031423
H           41.53804277708281       -4.05140636268931       -2.27707043994872
H           43.38668570716119       -0.77292006958655       -0.36444855963933
H           45.22829248692931       -3.58210188819110       -4.15333021045294
H           45.29018893149401       -5.74562139393131       -5.34706394763278
H           44.74136726215033       -7.96676774757642       -5.25490233016346
H           43.30926447753862       -7.62652342294085       -2.04863117622514
H           43.25685123372984       -5.46112599841687       -0.84605964969349
H           46.88093405204415       -3.99364331040112       -2.14847332544778
H           48.71100149330100       -2.23192531829160       -1.26634499374749
H           48.58704909960506        2.37733217911883        1.26593568628708
H           46.68094876043534        3.97330641520005        2.24815907603120
H           44.82965377824931        0.72192631643851        0.29259337070581
H           44.96013461938985        5.41775679832335        0.86991922316557
H           44.89473522033260        7.55030938194278        2.12962817381493
H           43.44972574664489        7.80029127255813        5.33800310700367
H           42.90653546227335        5.57586874002698        5.36835174953270
H           42.98012512042232        3.44534804237605        4.11698568662110
H           41.33954846280778        3.93368642744521        2.09182786591481
H           39.50766649614415        2.19368251615643        1.17069597075929

          :  Hamiltonian                  GFN1-xTB          :
         :: total energy            -327.836751728863 Eh    ::
         :: gradient norm              0.000563296433 Eh/a0 ::
         :: HOMO-LUMO gap              0.958300456508 eV    ::
         :: SCC energy              -333.178340796732 Eh    ::
         :: repulsion energy           5.499181399142 Eh    ::

    * Orbital Energies and Occupations

         #    Occupation            Energy/Eh            Energy/eV
      -------------------------------------------------------------
         1        2.0000           -0.8059241             -21.9303
       ...           ...                  ...                  ...
       283        2.0000           -0.4152762             -11.3002
       284        2.0000           -0.4150853             -11.2950
       285        2.0000           -0.4143524             -11.2751
       286        2.0000           -0.4139037             -11.2629
       287        2.0000           -0.4134161             -11.2496
       288        2.0000           -0.4132206             -11.2443
       289        2.0000           -0.4109098             -11.1814
       290        2.0000           -0.3983639             -10.8400
       291        2.0000           -0.3974860             -10.8161
       292        2.0000           -0.3973774             -10.8132
       293        2.0000           -0.3832840             -10.4297
       294        2.0000           -0.3804944             -10.3538
       295        2.0000           -0.3764804             -10.2446 (HOMO)
       296                         -0.3412635              -9.2863 (LUMO)
       297                         -0.3349072              -9.1133
       298                         -0.3323703              -9.0443
       299                         -0.3298186              -8.9748
       300                         -0.3293507              -8.9621
       301                         -0.3292587              -8.9596
       302                         -0.3052341              -8.3058
       303                         -0.2977176              -8.1013
       304                         -0.2969676              -8.0809
       305                         -0.2786024              -7.5812
       306                         -0.2748069              -7.4779
       ...                                ...                  ...
       628                          1.5806000              43.0103
      -------------------------------------------------------------
                  HL-Gap            0.0352169 Eh            0.9583 eV

Wiberg/Mayer (AO) data.
largest (>0.10) Wiberg bond orders for each atom

     #   Z sym  total        # sym  WBO       # sym  WBO       # sym  WBO
 ---------------------------------------------------------------------------
     1   6 C    3.925 --    37 C    1.366     2 C    1.346    39 H    0.971
     2   6 C    3.903 --     1 C    1.346     3 C    1.230     6 N    1.169
     3   6 C    3.953 --     4 C    1.594     2 C    1.230    40 H    0.977
     4   6 C    3.959 --     3 C    1.594     5 C    1.235    41 H    0.974
     5   6 C    3.896 --     7 C    1.302     4 C    1.235     6 N    1.177
     6   7 N    3.470 --     5 C    1.177     2 C    1.169    42 H    0.873
     7   6 C    3.940 --    15 C    1.335     5 C    1.302     8 C    1.031
     8   6 C    3.989 --     9 C    1.392    14 C    1.384     7 C    1.031
     9   6 C    3.988 --    10 C    1.453     8 C    1.392    43 H    0.972
                            13 C    0.105
    10   6 C    3.988 --     9 C    1.453    11 C    1.371    44 H    0.970
                            14 C    0.102
    11   6 C    3.900 --    10 C    1.371    13 C    1.364    12 O    1.041
    12   8 O    2.043 --    11 C    1.041    45 H    0.865
    13   6 C    3.990 --    14 C    1.466    11 C    1.364    46 H    0.971
                             9 C    0.105
    14   6 C    3.987 --    13 C    1.466     8 C    1.384    47 H    0.973
                            10 C    0.102
    15   6 C    3.915 --     7 C    1.335    18 N    1.286    16 C    1.126
    16   6 C    3.966 --    17 C    1.709    15 C    1.126    48 H    0.974
    17   6 C    3.964 --    16 C    1.709    19 C    1.129    49 H    0.974
    18   7 N    3.022 --    19 C    1.343    15 C    1.286
    19   6 C    3.910 --    18 N    1.343    20 C    1.255    17 C    1.129
    20   6 C    3.937 --    19 C    1.255    21 C    1.252   122 C    1.188
    21   6 C    3.886 --    20 C    1.252    22 C    1.249    25 N    1.189
    22   6 C    3.959 --    23 C    1.583    21 C    1.249    50 H    0.975
    23   6 C    3.956 --    22 C    1.583    24 C    1.241    51 H    0.974
    24   6 C    3.898 --    26 C    1.309    23 C    1.241    25 N    1.165
    25   7 N    3.474 --    21 C    1.189    24 C    1.165    52 H    0.873
    26   6 C    3.926 --    34 C    1.319    24 C    1.309    27 C    1.033
    27   6 C    3.988 --    33 C    1.392    28 C    1.382    26 C    1.033
    28   6 C    3.986 --    29 C    1.467    27 C    1.382    53 H    0.973
                            32 C    0.102
    29   6 C    3.990 --    28 C    1.467    30 C    1.364    54 H    0.971
                            33 C    0.105
    30   6 C    3.900 --    32 C    1.371    29 C    1.364    31 O    1.041
    31   8 O    2.043 --    30 C    1.041    55 H    0.865
    32   6 C    3.988 --    33 C    1.453    30 C    1.371    56 H    0.970
                            28 C    0.102
    33   6 C    3.987 --    32 C    1.453    27 C    1.392    57 H    0.972
                            29 C    0.105
    34   6 C    3.928 --    26 C    1.319    38 N    1.318    35 C    1.119
    35   6 C    3.967 --    36 C    1.721    34 C    1.119    58 H    0.974
    36   6 C    3.966 --    35 C    1.721    37 C    1.118    59 H    0.976
    37   6 C    3.930 --     1 C    1.366    38 N    1.300    36 C    1.118
    38   7 N    3.013 --    34 C    1.318    37 C    1.300
    39   1 H    1.002 --     1 C    0.971
    40   1 H    0.998 --     3 C    0.977
    41   1 H    1.005 --     4 C    0.974
    42   1 H    0.986 --     6 N    0.873
    43   1 H    1.005 --     9 C    0.972
    44   1 H    0.999 --    10 C    0.970
    45   1 H    0.887 --    12 O    0.865
    46   1 H    0.999 --    13 C    0.971
    47   1 H    1.005 --    14 C    0.973
    48   1 H    1.005 --    16 C    0.974
    49   1 H    1.003 --    17 C    0.974
    50   1 H    1.002 --    22 C    0.975
    51   1 H    1.005 --    23 C    0.974
    52   1 H    0.987 --    25 N    0.873
    53   1 H    1.005 --    28 C    0.973
    54   1 H    0.999 --    29 C    0.971
    55   1 H    0.887 --    31 O    0.865
    56   1 H    0.999 --    32 C    0.970
    57   1 H    1.005 --    33 C    0.972
    58   1 H    1.005 --    35 C    0.974
    59   1 H    0.998 --    36 C    0.976
    60   6 C    3.926 --    96 C    1.366    61 C    1.346    98 H    0.971
    61   6 C    3.903 --    60 C    1.346    62 C    1.230    65 N    1.170
    62   6 C    3.954 --    63 C    1.594    61 C    1.230    99 H    0.977
    63   6 C    3.959 --    62 C    1.594    64 C    1.235   100 H    0.974
    64   6 C    3.896 --    66 C    1.302    63 C    1.235    65 N    1.177
    65   7 N    3.470 --    64 C    1.177    61 C    1.170   101 H    0.873
    66   6 C    3.940 --    74 C    1.335    64 C    1.302    67 C    1.031
    67   6 C    3.989 --    68 C    1.392    73 C    1.384    66 C    1.031
    68   6 C    3.988 --    69 C    1.453    67 C    1.392   102 H    0.972
                            72 C    0.105
    69   6 C    3.988 --    68 C    1.453    70 C    1.371   103 H    0.970
                            73 C    0.102
    70   6 C    3.900 --    69 C    1.371    72 C    1.364    71 O    1.040
    71   8 O    2.043 --    70 C    1.040   104 H    0.865
    72   6 C    3.990 --    73 C    1.466    70 C    1.364   105 H    0.971
                            68 C    0.105
    73   6 C    3.987 --    72 C    1.466    67 C    1.384   106 H    0.973
                            69 C    0.102
    74   6 C    3.915 --    66 C    1.335    77 N    1.287    75 C    1.125
    75   6 C    3.966 --    76 C    1.710    74 C    1.125   107 H    0.974
    76   6 C    3.964 --    75 C    1.710    78 C    1.128   108 H    0.974
    77   7 N    3.023 --    78 C    1.342    74 C    1.287
    78   6 C    3.910 --    77 N    1.342    79 C    1.256    76 C    1.128
    79   6 C    3.938 --    78 C    1.256    80 C    1.254   130 C    1.185
    80   6 C    3.887 --    79 C    1.254    81 C    1.248    84 N    1.188
    81   6 C    3.959 --    82 C    1.584    80 C    1.248   109 H    0.975
    82   6 C    3.956 --    81 C    1.584    83 C    1.241   110 H    0.974
    83   6 C    3.898 --    85 C    1.310    82 C    1.241    84 N    1.165
    84   7 N    3.474 --    80 C    1.188    83 C    1.165   111 H    0.873
    85   6 C    3.927 --    93 C    1.319    83 C    1.310    86 C    1.032
    86   6 C    3.989 --    92 C    1.391    87 C    1.382    85 C    1.032
    87   6 C    3.986 --    88 C    1.467    86 C    1.382   112 H    0.973
                            91 C    0.102
    88   6 C    3.990 --    87 C    1.467    89 C    1.364   113 H    0.971
                            92 C    0.105
    89   6 C    3.900 --    91 C    1.371    88 C    1.364    90 O    1.041
    90   8 O    2.043 --    89 C    1.041   114 H    0.865
    91   6 C    3.988 --    92 C    1.453    89 C    1.371   115 H    0.970
                            87 C    0.102
    92   6 C    3.987 --    91 C    1.453    86 C    1.391   116 H    0.972
                            88 C    0.105
    93   6 C    3.928 --    85 C    1.319    97 N    1.318    94 C    1.119
    94   6 C    3.967 --    95 C    1.721    93 C    1.119   117 H    0.974
    95   6 C    3.966 --    94 C    1.721    96 C    1.118   118 H    0.976
    96   6 C    3.930 --    60 C    1.366    97 N    1.299    95 C    1.118
    97   7 N    3.014 --    93 C    1.318    96 C    1.299
    98   1 H    1.002 --    60 C    0.971
    99   1 H    0.998 --    62 C    0.977
   100   1 H    1.005 --    63 C    0.974
   101   1 H    0.986 --    65 N    0.873
   102   1 H    1.005 --    68 C    0.972
   103   1 H    0.999 --    69 C    0.970
   104   1 H    0.887 --    71 O    0.865
   105   1 H    0.999 --    72 C    0.971
   106   1 H    1.005 --    73 C    0.973
   107   1 H    1.005 --    75 C    0.974
   108   1 H    1.003 --    76 C    0.974
   109   1 H    1.002 --    81 C    0.975
   110   1 H    1.005 --    82 C    0.974
   111   1 H    0.987 --    84 N    0.873
   112   1 H    1.005 --    87 C    0.973
   113   1 H    0.999 --    88 C    0.971
   114   1 H    0.887 --    90 O    0.865
   115   1 H    0.999 --    91 C    0.970
   116   1 H    1.005 --    92 C    0.972
   117   1 H    1.005 --    94 C    0.974
   118   1 H    0.998 --    95 C    0.976
   119   6 C    3.923 --   120 C    2.369   123 C    1.333   122 C    0.189
   120   6 C    3.922 --   119 C    2.369   121 C    1.332   124 C    0.189
   121   6 C    3.932 --   122 C    2.450   120 C    1.332
   122   6 C    3.888 --   121 C    2.450    20 C    1.188   119 C    0.189
   123   6 C    3.929 --   124 C    2.449   119 C    1.333
   124   6 C    3.889 --   123 C    2.449   131 C    1.190   120 C    0.189
   125   6 C    3.921 --   126 C    2.373   129 C    1.330   128 C    0.189
   126   6 C    3.923 --   125 C    2.373   127 C    1.330   130 C    0.189
   127   6 C    3.929 --   128 C    2.452   126 C    1.330
   128   6 C    3.889 --   127 C    2.452   150 C    1.188   125 C    0.189
   129   6 C    3.932 --   130 C    2.453   125 C    1.330
   130   6 C    3.888 --   129 C    2.453    79 C    1.185   126 C    0.189
   131   6 C    3.926 --   167 C    1.255   132 C    1.249   124 C    1.190
   132   6 C    3.887 --   133 C    1.253   131 C    1.249   136 N    1.189
   133   6 C    3.956 --   134 C    1.577   132 C    1.253   169 H    0.975
   134   6 C    3.956 --   133 C    1.577   135 C    1.246   170 H    0.974
   135   6 C    3.893 --   137 C    1.300   134 C    1.246   136 N    1.166
   136   7 N    3.471 --   132 C    1.189   135 C    1.166   171 H    0.874
   137   6 C    3.929 --   145 C    1.336   135 C    1.300   138 C    1.030
   138   6 C    3.988 --   139 C    1.392   144 C    1.383   137 C    1.030
   139   6 C    3.987 --   140 C    1.453   138 C    1.392   172 H    0.972
                           143 C    0.105
   140   6 C    3.988 --   139 C    1.453   141 C    1.371   173 H    0.970
                           144 C    0.102
   141   6 C    3.900 --   140 C    1.371   143 C    1.364   142 O    1.041
   142   8 O    2.044 --   141 C    1.041   174 H    0.865
   143   6 C    3.990 --   144 C    1.467   141 C    1.364   175 H    0.971
                           139 C    0.105
   144   6 C    3.987 --   143 C    1.467   138 C    1.383   176 H    0.973
                           140 C    0.102
   145   6 C    3.916 --   137 C    1.336   148 N    1.286   146 C    1.125
   146   6 C    3.967 --   147 C    1.709   145 C    1.125   177 H    0.974
   147   6 C    3.964 --   146 C    1.709   149 C    1.129   178 H    0.974
   148   7 N    3.011 --   149 C    1.342   145 C    1.286
   149   6 C    3.910 --   148 N    1.342   150 C    1.256   147 C    1.129
   150   6 C    3.926 --   149 C    1.256   151 C    1.250   128 C    1.188
   151   6 C    3.887 --   152 C    1.252   150 C    1.250   155 N    1.189
   152   6 C    3.956 --   153 C    1.578   151 C    1.252   179 H    0.975
   153   6 C    3.957 --   152 C    1.578   154 C    1.246   180 H    0.974
   154   6 C    3.893 --   156 C    1.300   153 C    1.246   155 N    1.166
   155   7 N    3.471 --   151 C    1.189   154 C    1.166   181 H    0.874
   156   6 C    3.929 --   164 C    1.336   154 C    1.300   157 C    1.030
   157   6 C    3.988 --   163 C    1.392   158 C    1.384   156 C    1.030
   158   6 C    3.987 --   159 C    1.466   157 C    1.384   182 H    0.973
                           162 C    0.102
   159   6 C    3.990 --   158 C    1.466   160 C    1.364   183 H    0.971
                           163 C    0.105
   160   6 C    3.900 --   162 C    1.371   159 C    1.364   161 O    1.041
   161   8 O    2.044 --   160 C    1.041   184 H    0.865
   162   6 C    3.988 --   163 C    1.453   160 C    1.371   185 H    0.970
                           158 C    0.102
   163   6 C    3.987 --   162 C    1.453   157 C    1.392   186 H    0.972
                           159 C    0.105
   164   6 C    3.916 --   156 C    1.336   168 N    1.286   165 C    1.126
   165   6 C    3.966 --   166 C    1.709   164 C    1.126   187 H    0.974
   166   6 C    3.964 --   165 C    1.709   167 C    1.130   188 H    0.974
   167   6 C    3.910 --   168 N    1.343   131 C    1.255   166 C    1.130
   168   7 N    3.011 --   167 C    1.343   164 C    1.286
   169   1 H    1.002 --   133 C    0.975
   170   1 H    1.005 --   134 C    0.974
   171   1 H    0.987 --   136 N    0.874
   172   1 H    1.005 --   139 C    0.972
   173   1 H    0.999 --   140 C    0.970
   174   1 H    0.887 --   142 O    0.865
   175   1 H    0.999 --   143 C    0.971
   176   1 H    1.005 --   144 C    0.973
   177   1 H    1.005 --   146 C    0.974
   178   1 H    1.003 --   147 C    0.974
   179   1 H    1.002 --   152 C    0.975
   180   1 H    1.005 --   153 C    0.974
   181   1 H    0.987 --   155 N    0.874
   182   1 H    1.005 --   158 C    0.973
   183   1 H    0.999 --   159 C    0.971
   184   1 H    0.886 --   161 O    0.865
   185   1 H    0.999 --   162 C    0.970
   186   1 H    1.005 --   163 C    0.972
   187   1 H    1.005 --   165 C    0.974
   188   1 H    1.003 --   166 C    0.974
 ---------------------------------------------------------------------------

           -------------------------------------------------
          | TOTAL ENERGY             -327.836751728863 Eh   |
          | GRADIENT NORM               0.000563296433 Eh/α |
          | HOMO-LUMO GAP               0.958300456508 eV   |
           -------------------------------------------------

 * finished run on 2022/07/28 at 20:43:17.893
