   * xtb version 6.5.1 (b24c23e) compiled by 'conda@728c89f4b128' on 2022-07-12
          program call               : xtb PhNH2_C4_2.xyz --gfn 1 --opt -T 48

   ID    Z sym.   atoms
    1    6 C      1-5, 7-11, 13-17, 19-24, 26-30, 32-37, 62-66, 68-72, 74-78,
                  80-85, 87-91, 93-98, 123-126
    2    7 N      6, 12, 18, 25, 31, 38, 67, 73, 79, 86, 92, 99
    3    1 H      39-61, 100-122
########################################################################
[WARNING] Please study the warnings concerning your input carefully
-1- prog_main_parseArguments: Unknown option '-T' provided
########################################################################

          :  Hamiltonian                  GFN1-xTB          :
 * total energy  :  -205.1525529 Eh     change        0.8255370E-09 Eh
 * total energy  :  -206.4965437 Eh     change       -0.1343991E+01 Eh
 * total energy  :  -206.6295714 Eh     change       -0.1330277E+00 Eh
 * total energy  :  -206.7021786 Eh     change       -0.7260712E-01 Eh
 * total energy  :  -206.7251514 Eh     change       -0.2297281E-01 Eh
 * total energy  :  -206.7397755 Eh     change       -0.1462411E-01 Eh
 * total energy  :  -206.7468752 Eh     change       -0.7099689E-02 Eh
 * total energy  :  -206.7503095 Eh     change       -0.3434371E-02 Eh
 * total energy  :  -206.7527873 Eh     change       -0.2477784E-02 Eh
 * total energy  :  -206.7546015 Eh     change       -0.1814161E-02 Eh
 * total energy  :  -206.7669926 Eh     change       -0.8812287E-04 Eh
 * total energy  :  -206.7670021 Eh     change       -0.9516741E-05 Eh
 * total energy  :  -206.7670101 Eh     change       -0.7976630E-05 Eh
 * total energy  :  -206.7670176 Eh     change       -0.7490620E-05 Eh
 * total energy  :  -206.7670246 Eh     change       -0.6974035E-05 Eh
 * total energy  :  -206.7670343 Eh     change       -0.9760806E-05 Eh
 * total energy  :  -206.7670478 Eh     change       -0.1346564E-04 Eh
 * total energy  :  -206.7670554 Eh     change       -0.7604408E-05 Eh
 * total energy  :  -206.7670594 Eh     change       -0.3956263E-05 Eh
   *** GEOMETRY OPTIMIZATION CONVERGED AFTER 54 ITERATIONS ***

 final structure:
================
126
 xtb: 6.5.1 (b24c23e)
C           12.06452512682274       -0.12916812471243        0.09468402773828
C           12.67625557080180       -0.99786175108810        0.98963762498905
C           12.02589491746033       -1.90576411660755        1.87120100809124
C           12.98888851349064       -2.56533686265093        2.58254964051574
C           14.25855186582463       -2.07343685001864        2.16657438658384
N           14.01915295647007       -1.13896604488583        1.19871223917865
C           15.52204240854481       -2.46519538553246        2.62610115138195
C           15.55458226879508       -3.47246468999411        3.71242966525257
C           16.20623741981537       -4.69520403914086        3.53237471778505
C           16.23460826782461       -5.63992368321007        4.54266480744119
C           15.62008230321189       -5.37414340631806        5.76906882096006
N           15.61281184356644       -6.33182430015071        6.76861475125968
C           14.96179094821928       -4.15599374460563        5.95579275465810
C           14.93039207053724       -3.22054104848698        4.93677176752762
C           16.73506277012041       -1.97350702213698        2.13597184176420
C           18.03397621699983       -2.34130365034070        2.66907814676729
C           18.95093090876006       -1.66996982511313        1.94112690993171
N           16.88465387538659       -1.07872541606358        1.12014193131795
C           18.21071582624462       -0.88446582203106        0.97342574713263
C           18.84381983142904       -0.05228781267558        0.02745783485101
C           18.20583555396575        0.78221050248118       -0.91047034162358
C           18.84920065695296        1.59884411884406       -1.87728073573884
C           17.88172942960166        2.26393668831906       -2.57914562741282
C           16.61683157054543        1.87953588378230       -2.05538187405299
N           16.86471799524227        0.97558707699605       -1.05569591038749
C           15.35442411774222        2.30855094210235       -2.48126717647668
C           15.32022296007188        3.32800926723330       -3.55546034289650
C           14.67472136435636        3.06711352437961       -4.76687713648699
C           14.64079082936018        4.01710972730734       -5.77206475864566
C           15.24243324762240        5.26349251011572       -5.57988894977552
N           15.24215199498495        6.20312660485124       -6.59651999979982
C           15.89551041566287        5.53042582066881       -4.37389363589075
C           15.93339571099463        4.57092693152915       -3.37779678811063
C           14.14026720180611        1.84393873828642       -1.96277972981257
C           12.83381180573812        2.33348977784228       -2.37329875935152
C           11.92369808609769        1.64478995780021       -1.65477672337899
C           12.67317310572549        0.74574803047955       -0.79578952986638
N           14.00424614528712        0.89881114167078       -1.00241046725335
H           10.97909702624046       -0.14090259819232        0.10037836582484
H           10.95714885451615       -2.03383641669757        1.93779928656972
H           12.83809191104658       -3.33389852261558        3.32317944106030
H           14.74468840077139       -0.63100352712788        0.70387202027856
H           16.67717542894417       -4.91327620572704        2.58013043730427
H           16.73458119542862       -6.58965742780613        4.38681215112512
H           15.45776864197872       -5.97520845706573        7.69803416397125
H           16.35463718944065       -7.01122904843808        6.71228649663519
H           14.48000927223566       -3.94495620083402        6.90432499117476
H           14.43504370776248       -2.26911250108906        5.09774552704572
H           18.20103338676583       -3.00959556948302        3.49832334622907
H           20.02498106331824       -1.68065540711797        2.03715920307762
H           19.91677792999668        1.65876965780832       -2.01527645180456
H           18.02871395653906        2.95109061817987       -3.39636878014687
H           16.14225399829662        0.51401278656077       -0.51288022975899
H           14.21377642866863        2.09872935847498       -4.92777962616814
H           14.14615313546128        3.79836940564287       -6.71216029615620
H           14.50411131116896        6.09622479267810       -7.27405981946769
H           15.38357537641065        7.15448087421816       -6.29631934984327
H           16.36788126051092        6.49457762490300       -4.22011848406182
H           16.42484347383026        4.79405965103779       -2.43697650296776
H           12.66043195676798        3.10897290702088       -3.10209367521283
H           10.84779487765265        1.72338082876520       -1.67452970419915
C           32.22876617271665        0.06531407387401       -0.14506351498920
C           31.61725871759887        0.73935240416732       -1.19459924569250
C           32.26780507317936        1.39307800614957       -2.27803562382355
C           31.30477484902561        1.93283324032948       -3.08403108516535
C           30.03489665158969        1.63607878606283       -2.51274609126510
N           30.27424183186732        0.90740389805443       -1.38180761144480
C           28.77145199348530        1.99014846636133       -3.00185467123107
C           28.73951160435486        2.81686556103412       -4.23137134704950
C           28.09630215494967        2.35793595318003       -5.38360238844804
C           28.06895302743849        3.12532049930570       -6.53445819103330
C           28.67559418278948        4.38387849485953       -6.55298351233853
N           28.68387011694948        5.13818578647283       -7.71373691588359
C           29.32526617871686        4.84830686390638       -5.40654607456373
C           29.35606670325874        4.07019875459199       -4.26284459016712
C           27.55814102034456        1.62359103544540       -2.41309357866338
C           26.25931963687774        2.05478962229699       -2.89660464455396
C           25.34198038220930        1.50152389725667       -2.07577409389165
N           27.40805353630101        0.84235757507576       -1.30761880946264
C           26.08184236486823        0.74340171156445       -1.08618689019139
C           25.44842627606432        0.01616497908573       -0.05755047419395
C           26.08616908630309       -0.70364385443061        0.97114118889227
C           25.44263874374675       -1.45457876905458        1.98973568628402
C           26.41012077414466       -1.98643460766063        2.79720978505137
C           27.67524430601871       -1.56838073639728        2.30041672092006
N           27.42740607380013       -0.80302359402793        1.19103513230458
C           28.93757804185141       -1.88808490225063        2.81353981760229
C           28.97108286217410       -2.70004165693320        4.05220717585407
C           29.60963368819568       -3.94255707483336        4.07478297567706
C           29.64248783066456       -4.70270333923091        5.23031275252044
C           29.04701441458359       -4.22576030055467        6.40089745953081
N           29.04624230932648       -4.99912743448118        7.54913882475654
C           28.40092027591066       -2.98702684176916        6.38540310600034
C           28.36385675009097       -2.23799150694678        5.22271716847068
C           30.15203079539407       -1.49232039156513        2.24152355753460
C           31.45835595711310       -1.78398179743378        2.81027176479969
C           32.36882243066260       -1.24024099950747        1.97706025545045
C           31.61974057801952       -0.60520509708634        0.90770910539921
N           30.28853852703869       -0.77080308065976        1.10361813121573
H           33.31419824348701        0.06960525696886       -0.15659552040618
H           33.33670287063264        1.43186693826456       -2.41590354865760
H           31.45562572038597        2.47961059737439       -4.00067142240652
H           29.54865805848866        0.53943087821401       -0.77566642350467
H           27.63122415047982        1.37823877510415       -5.38037494121812
H           27.57584418280518        2.75333986209591       -7.42593926975713
H           28.83175577365772        6.12548491684087       -7.57801774001483
H           27.94654807977337        4.92343016790816       -8.36589366252292
H           29.80085121240476        5.82303577664913       -5.41550526233079
H           29.84489437309636        4.44719584373063       -3.37098446077338
H           26.09274897179377        2.70558610918274       -3.73975196745661
H           24.26785611996898        1.59109506665553       -2.10979234723054
H           24.37492407989633       -1.57251739157385        2.08154821879443
H           26.26306575100231       -2.62282689529763        3.65454235612634
H           28.14992193797579       -0.38255901472279        0.61585779185991
H           30.06592745397626       -4.32426136572367        3.16801837607179
H           30.13151791635737       -5.67076149370401        5.23208652661019
H           29.78059983683268       -5.68718890128316        7.59871568414039
H           28.91054529232375       -4.48726424560979        8.40632274040804
H           27.93329310704233       -2.61306434692454        7.28975108501554
H           27.87774112881504       -1.26837920721269        5.22487670775735
H           31.63136782190683       -2.31996751648103        3.72970663103274
H           33.44476381371667       -1.24325824260326        2.05755235785701
C           21.47166796645461       -0.02855710645909       -0.00783305737200
C           20.24943149443419       -0.04087926858652        0.00934842099820
C           22.82064295507129       -0.01389913355484       -0.02544487031280
C           24.04281888179211        0.00133604443931       -0.04259545556769

          :  Hamiltonian                  GFN1-xTB          :
         :: total energy            -206.767059362484 Eh    ::
         :: gradient norm              0.000354590826 Eh/a0 ::
         :: HOMO-LUMO gap              0.961517868634 eV    ::
         :: SCC energy              -210.164434589686 Eh    ::
         :: repulsion energy           3.501592276385 Eh    ::

    * Orbital Energies and Occupations

         #    Occupation            Energy/Eh            Energy/eV
      -------------------------------------------------------------
         1        2.0000           -0.7946034             -21.6223
       ...           ...                  ...                  ...
       177        2.0000           -0.4088024             -11.1241
       178        2.0000           -0.4074908             -11.0884
       179        2.0000           -0.4073861             -11.0855
       180        2.0000           -0.4060159             -11.0483
       181        2.0000           -0.4059402             -11.0462
       182        2.0000           -0.3983309             -10.8391
       183        2.0000           -0.3976437             -10.8204
       184        2.0000           -0.3957439             -10.7687
       185        2.0000           -0.3956104             -10.7651
       186        2.0000           -0.3897122             -10.6046
       187        2.0000           -0.3890111             -10.5855
       188        2.0000           -0.3773277             -10.2676
       189        2.0000           -0.3672093              -9.9923 (HOMO)
       190                         -0.3318742              -9.0308 (LUMO)
       191                         -0.3210857              -8.7372
       192                         -0.3209421              -8.7333
       193                         -0.3184514              -8.6655
       194                         -0.2900798              -7.8935
       195                         -0.2824530              -7.6859
       196                         -0.2562067              -6.9717
       197                         -0.2562015              -6.9716
       198                         -0.2559490              -6.9647
       199                         -0.2559403              -6.9645
       200                         -0.2503511              -6.8124
       ...                                ...                  ...
       412                          1.5252520              41.5042
      -------------------------------------------------------------
                  HL-Gap            0.0353351 Eh            0.9615 eV

Wiberg/Mayer (AO) data.
largest (>0.10) Wiberg bond orders for each atom

     #   Z sym  total        # sym  WBO       # sym  WBO       # sym  WBO
 ---------------------------------------------------------------------------
     1   6 C    3.922 --    37 C    1.365     2 C    1.345    39 H    0.971
     2   6 C    3.904 --     1 C    1.345     3 C    1.232     6 N    1.170
     3   6 C    3.951 --     4 C    1.592     2 C    1.232    40 H    0.977
     4   6 C    3.959 --     3 C    1.592     5 C    1.237    41 H    0.974
     5   6 C    3.894 --     7 C    1.300     4 C    1.237     6 N    1.176
     6   7 N    3.468 --     5 C    1.176     2 C    1.170    42 H    0.873
     7   6 C    3.939 --    15 C    1.333     5 C    1.300     8 C    1.035
     8   6 C    3.988 --    14 C    1.381     9 C    1.380     7 C    1.035
     9   6 C    3.987 --    10 C    1.469     8 C    1.380    43 H    0.972
    10   6 C    3.990 --     9 C    1.469    11 C    1.354    44 H    0.972
    11   6 C    3.951 --    13 C    1.354    10 C    1.354    12 N    1.115
    12   7 N    3.133 --    11 C    1.115    45 H    0.934    46 H    0.933
    13   6 C    3.989 --    14 C    1.468    11 C    1.354    47 H    0.972
    14   6 C    3.987 --    13 C    1.468     8 C    1.381    48 H    0.973
    15   6 C    3.914 --     7 C    1.333    18 N    1.286    16 C    1.128
    16   6 C    3.966 --    17 C    1.706    15 C    1.128    49 H    0.974
    17   6 C    3.963 --    16 C    1.706    19 C    1.130    50 H    0.974
    18   7 N    3.021 --    19 C    1.344    15 C    1.286
    19   6 C    3.910 --    18 N    1.344    20 C    1.253    17 C    1.130
    20   6 C    3.934 --    19 C    1.253    21 C    1.250   124 C    1.191
    21   6 C    3.886 --    22 C    1.251    20 C    1.250    25 N    1.190
    22   6 C    3.959 --    23 C    1.580    21 C    1.251    51 H    0.975
    23   6 C    3.955 --    22 C    1.580    24 C    1.244    52 H    0.974
    24   6 C    3.897 --    26 C    1.307    23 C    1.244    25 N    1.164
    25   7 N    3.473 --    21 C    1.190    24 C    1.164    53 H    0.873
    26   6 C    3.925 --    34 C    1.318    24 C    1.307    27 C    1.036
    27   6 C    3.988 --    33 C    1.380    28 C    1.380    26 C    1.036
    28   6 C    3.987 --    29 C    1.469    27 C    1.380    54 H    0.973
    29   6 C    3.989 --    28 C    1.469    30 C    1.354    55 H    0.972
    30   6 C    3.951 --    32 C    1.354    29 C    1.354    31 N    1.115
    31   7 N    3.133 --    30 C    1.115    57 H    0.934    56 H    0.934
    32   6 C    3.990 --    33 C    1.469    30 C    1.354    58 H    0.972
    33   6 C    3.986 --    32 C    1.469    27 C    1.380    59 H    0.973
    34   6 C    3.928 --    26 C    1.318    38 N    1.318    35 C    1.120
    35   6 C    3.967 --    36 C    1.719    34 C    1.120    60 H    0.974
    36   6 C    3.965 --    35 C    1.719    37 C    1.119    61 H    0.976
    37   6 C    3.930 --     1 C    1.365    38 N    1.300    36 C    1.119
    38   7 N    3.010 --    34 C    1.318    37 C    1.300
    39   1 H    1.002 --     1 C    0.971
    40   1 H    0.998 --     3 C    0.977
    41   1 H    1.005 --     4 C    0.974
    42   1 H    0.986 --     6 N    0.873
    43   1 H    1.005 --     9 C    0.972
    44   1 H    0.999 --    10 C    0.972
    45   1 H    0.961 --    12 N    0.934
    46   1 H    0.961 --    12 N    0.933
    47   1 H    0.999 --    13 C    0.972
    48   1 H    1.005 --    14 C    0.973
    49   1 H    1.006 --    16 C    0.974
    50   1 H    1.003 --    17 C    0.974
    51   1 H    1.003 --    22 C    0.975
    52   1 H    1.005 --    23 C    0.974
    53   1 H    0.988 --    25 N    0.873
    54   1 H    1.005 --    28 C    0.973
    55   1 H    0.999 --    29 C    0.972
    56   1 H    0.961 --    31 N    0.934
    57   1 H    0.961 --    31 N    0.934
    58   1 H    0.999 --    32 C    0.972
    59   1 H    1.005 --    33 C    0.973
    60   1 H    1.006 --    35 C    0.974
    61   1 H    0.999 --    36 C    0.976
    62   6 C    3.922 --    98 C    1.365    63 C    1.345   100 H    0.971
    63   6 C    3.904 --    62 C    1.345    64 C    1.232    67 N    1.170
    64   6 C    3.953 --    65 C    1.592    63 C    1.232   101 H    0.977
    65   6 C    3.959 --    64 C    1.592    66 C    1.237   102 H    0.974
    66   6 C    3.894 --    68 C    1.300    65 C    1.237    67 N    1.176
    67   7 N    3.468 --    66 C    1.176    63 C    1.170   103 H    0.873
    68   6 C    3.939 --    76 C    1.334    66 C    1.300    69 C    1.034
    69   6 C    3.988 --    75 C    1.381    70 C    1.380    68 C    1.034
    70   6 C    3.988 --    71 C    1.469    69 C    1.380   104 H    0.973
    71   6 C    3.990 --    70 C    1.469    72 C    1.354   105 H    0.972
    72   6 C    3.951 --    74 C    1.354    71 C    1.354    73 N    1.115
    73   7 N    3.133 --    72 C    1.115   106 H    0.934   107 H    0.933
    74   6 C    3.990 --    75 C    1.468    72 C    1.354   108 H    0.972
    75   6 C    3.987 --    74 C    1.468    69 C    1.381   109 H    0.973
    76   6 C    3.914 --    68 C    1.334    79 N    1.286    77 C    1.128
    77   6 C    3.966 --    78 C    1.706    76 C    1.128   110 H    0.974
    78   6 C    3.963 --    77 C    1.706    80 C    1.130   111 H    0.974
    79   7 N    3.021 --    80 C    1.345    76 C    1.286
    80   6 C    3.910 --    79 N    1.345    81 C    1.253    78 C    1.130
    81   6 C    3.934 --    80 C    1.253    82 C    1.250   126 C    1.191
    82   6 C    3.886 --    83 C    1.251    81 C    1.250    86 N    1.189
    83   6 C    3.959 --    84 C    1.580    82 C    1.251   112 H    0.975
    84   6 C    3.955 --    83 C    1.580    85 C    1.244   113 H    0.974
    85   6 C    3.897 --    87 C    1.307    84 C    1.244    86 N    1.164
    86   7 N    3.473 --    82 C    1.189    85 C    1.164   114 H    0.873
    87   6 C    3.925 --    95 C    1.319    85 C    1.307    88 C    1.035
    88   6 C    3.988 --    94 C    1.380    89 C    1.380    87 C    1.035
    89   6 C    3.987 --    90 C    1.469    88 C    1.380   115 H    0.973
    90   6 C    3.989 --    89 C    1.469    91 C    1.354   116 H    0.972
    91   6 C    3.951 --    93 C    1.354    90 C    1.354    92 N    1.115
    92   7 N    3.133 --    91 C    1.115   118 H    0.934   117 H    0.934
    93   6 C    3.990 --    94 C    1.469    91 C    1.354   119 H    0.972
    94   6 C    3.986 --    93 C    1.469    88 C    1.380   120 H    0.973
    95   6 C    3.928 --    87 C    1.319    99 N    1.318    96 C    1.120
    96   6 C    3.967 --    97 C    1.719    95 C    1.120   121 H    0.974
    97   6 C    3.965 --    96 C    1.719    98 C    1.119   122 H    0.976
    98   6 C    3.930 --    62 C    1.365    99 N    1.300    97 C    1.119
    99   7 N    3.010 --    95 C    1.318    98 C    1.300
   100   1 H    1.002 --    62 C    0.971
   101   1 H    0.998 --    64 C    0.977
   102   1 H    1.005 --    65 C    0.974
   103   1 H    0.986 --    67 N    0.873
   104   1 H    1.005 --    70 C    0.973
   105   1 H    0.999 --    71 C    0.972
   106   1 H    0.961 --    73 N    0.934
   107   1 H    0.961 --    73 N    0.933
   108   1 H    0.999 --    74 C    0.972
   109   1 H    1.005 --    75 C    0.973
   110   1 H    1.006 --    77 C    0.974
   111   1 H    1.003 --    78 C    0.974
   112   1 H    1.003 --    83 C    0.975
   113   1 H    1.005 --    84 C    0.974
   114   1 H    0.988 --    86 N    0.873
   115   1 H    1.005 --    89 C    0.973
   116   1 H    0.999 --    90 C    0.972
   117   1 H    0.961 --    92 N    0.934
   118   1 H    0.961 --    92 N    0.934
   119   1 H    0.999 --    93 C    0.972
   120   1 H    1.005 --    94 C    0.973
   121   1 H    1.006 --    96 C    0.974
   122   1 H    0.999 --    97 C    0.976
   123   6 C    3.932 --   124 C    2.472   125 C    1.311
   124   6 C    3.925 --   123 C    2.472    20 C    1.191   126 C    0.199
   125   6 C    3.932 --   126 C    2.472   123 C    1.311
   126   6 C    3.925 --   125 C    2.472    81 C    1.191   124 C    0.199
 ---------------------------------------------------------------------------

           -------------------------------------------------
          | TOTAL ENERGY             -206.767059362484 Eh   |
          | GRADIENT NORM               0.000354590826 Eh/α |
          | HOMO-LUMO GAP               0.961517868634 eV   |
           -------------------------------------------------

 * finished run on 2022/07/29 at 14:05:53.695
