   * xtb version 6.5.1 (b24c23e) compiled by 'conda@728c89f4b128' on 2022-07-12
          program call               : xtb Zn_BSA_C6_3.xyz --gfn 1 --opt -T 48

   ID    Z sym.   atoms
    1   30 Zn     1, 65, 141
    2    6 C      2-6, 8-12, 17-21, 23-28, 30-34, 39-44, 66-70, 72-76, 81-85,
                  87-92, 94-98, 103-108, 129-140, 142-146, 148-152, 157-161,
                  163-168, 170-174, 179-184
    3    7 N      7, 22, 29, 45, 71, 86, 93, 109, 147, 162, 169, 185
    4   16 S      13, 35, 77, 99, 153, 175
    5    8 O      14-16, 36-38, 78-80, 100-102, 154-156, 176-178
    6    1 H      46-64, 110-128, 186-203

          :  Hamiltonian                  GFN1-xTB          :
 * total energy  :  -404.2147211 Eh     change       -0.5923084E-09 Eh
 * total energy  :  -404.5570762 Eh     change       -0.3423551E+00 Eh
 * total energy  :  -404.7129305 Eh     change       -0.1558543E+00 Eh
 * total energy  :  -404.8126008 Eh     change       -0.9967031E-01 Eh
 * total energy  :  -404.8893893 Eh     change       -0.7678857E-01 Eh
 * total energy  :  -404.9411373 Eh     change       -0.5174795E-01 Eh
 * total energy  :  -404.9696908 Eh     change       -0.2855350E-01 Eh
 * total energy  :  -404.9909105 Eh     change       -0.2121974E-01 Eh
 * total energy  :  -405.0054380 Eh     change       -0.1452742E-01 Eh
 * total energy  :  -405.0146977 Eh     change       -0.9259715E-02 Eh
 * total energy  :  -405.0864731 Eh     change       -0.8961408E-05 Eh
 * total energy  :  -405.0864984 Eh     change       -0.2529636E-04 Eh
 * total energy  :  -405.0865114 Eh     change       -0.1298238E-04 Eh
 * total energy  :  -405.0865209 Eh     change       -0.9542837E-05 Eh
 * total energy  :  -405.0865298 Eh     change       -0.8923469E-05 Eh
 * total energy  :  -405.0865380 Eh     change       -0.8113332E-05 Eh
 * total energy  :  -405.0865326 Eh     change        0.5340754E-05 Eh
 * total energy  :  -405.0865455 Eh     change       -0.1287002E-04 Eh
 * total energy  :  -405.0865475 Eh     change       -0.2032753E-05 Eh
   *** GEOMETRY OPTIMIZATION CONVERGED AFTER 68 ITERATIONS ***

 final structure:
================
203
 xtb: 6.5.1 (b24c23e)
Zn          31.42197092574462        0.05496893527374        0.01326120156156
C           28.01449476520566        0.10405232159524        0.06048932354647
C           28.64512891082846       -0.20253448694152        1.26015953453918
C           27.97196945101482       -0.52430638272711        2.48774105643631
C           28.93129527617392       -0.75938866685954        3.41697536269508
C           30.20375310314641       -0.57228317414975        2.77032000694364
N           29.99481306138912       -0.24570386770710        1.46279279498212
C           31.45634982948242       -0.72523208828971        3.37685373026770
C           31.47473710417642       -1.06942865325019        4.81989938426210
C           30.92895876091410       -0.19476163351006        5.76292719524078
C           30.95415051426878       -0.50879790806046        7.11177177811607
C           31.52464200146596       -1.70871471712669        7.50479941065135
S           31.57129029119472       -2.10724494891284        9.21085783145486
O           31.50103773164659       -0.92160386482764       10.01336368760353
O           30.14301501642552       -2.87522562620033        9.31367983225453
O           32.60881780931489       -3.05780264870380        9.48532744169812
C           32.07304126822569       -2.59723930261946        6.59404254304583
C           32.04666727626136       -2.27027949524817        5.24849822908630
C           32.69573215849434       -0.58279784881805        2.74242054805514
C           33.97612433012952       -0.68234470820300        3.38804963609845
C           34.92065998973834       -0.47152009415938        2.43670959525253
N           32.88640970027455       -0.29871443517973        1.41747549078000
C           34.22834334315871       -0.23345986034220        1.20403035879003
C           34.85666651177321        0.01631736482427       -0.03147351111179
C           34.20237465986995        0.27612930440588       -1.25125287830103
C           34.86745947029443        0.49172877258440       -2.50281898636590
C           33.90319616582543        0.71636515824294       -3.43107980589131
C           32.63817521765661        0.65007710367550       -2.75175868167455
N           32.85710021648674        0.36964141657990       -1.43041889805428
C           31.38595572844460        0.81959344486174       -3.35374222796238
C           31.37281492486922        1.15078519927355       -4.79976355686560
C           30.76821886735219        0.28775221536957       -5.71726348687552
C           30.75929302360494        0.59070620644372       -7.06891197499536
C           31.35841042453302        1.76644223791021       -7.49084667160178
S           31.34492771140452        2.16058597218713       -9.19898632735233
O           31.46977934025802        3.57471452867766       -9.40395267779020
O           32.76058129285931        1.48129655031431       -9.61692659826137
O           30.28704811070542        1.46155554604918       -9.86538379713427
C           31.95960737528845        2.64619385030529       -6.60506982026967
C           31.96567434072453        2.33104521665080       -5.25653618824524
C           30.14681162003103        0.70595767477521       -2.71170470637806
C           28.86282085892105        0.92888661553280       -3.32341888416815
C           27.92336005551302        0.72766458797362       -2.36645430110971
C           28.62061990103104        0.38997320568310       -1.15674050910949
N           29.96485339766664        0.39149176889176       -1.39716122360592
H           26.92917584409006        0.12080926391312        0.07555389471112
H           26.90110241252271       -0.56980326732752        2.60887942699359
H           28.79475418114268       -1.04535092651908        4.44761633915838
H           30.49985495811072        0.74520329049056        5.43593131202717
H           30.54575598581819        0.16780148171254        7.85191611462126
H           30.00282453667470       -3.19845295223702       10.21195012188656
H           32.51542814662641       -3.52426372786901        6.93653001681745
H           32.46192322091707       -2.95550161894432        4.51866136145735
H           34.13115653082396       -0.87478394481598        4.43738852646522
H           35.99266768175350       -0.46931964265775        2.55295062379623
H           35.93583872319529        0.46524671844546       -2.64656734370117
H           34.03518641643073        0.89783984997145       -4.48554360493257
H           30.31625019260188       -0.63341490012095       -5.36830356598613
H           30.29402142948025       -0.07160621601453       -7.78807561097848
H           33.05455925908602        1.82451643228384      -10.46937511654384
H           32.40745135924631        3.56287984834809       -6.96778000155629
H           32.41982896663171        3.01146124957004       -4.54562548541235
H           28.70569158562825        1.21488382657246       -4.35107945785989
H           26.85143805673883        0.80562876968082       -2.45787822615080
Zn          63.52408152761823        0.04411930633373       -0.00482252669488
C           66.93186123322317        0.12389756945174       -0.02902505518588
C           66.30099083310793        0.27819165638008       -1.25744828551747
C           66.97397577690752        0.43659968579488       -2.51664584046830
C           66.01446015431713        0.55420837770594       -3.46772501907664
C           64.74202315039808        0.48010882032078       -2.79858044777158
N           64.95123123547577        0.30348450376743       -1.46263066182078
C           63.48938329392647        0.54964904859702       -3.42025914894072
C           63.47150354031096        0.76374623417716       -4.88827311708417
C           64.00683780767206        1.93123700019302       -5.43842440827271
C           63.98167250964350        2.14020521175955       -6.80746660611477
C           63.42183963412944        1.16642946935542       -7.61867375102644
S           63.37430572856313        1.43001729589937       -9.35070024700890
O           63.43048720341289        2.82982213370374       -9.65363544385655
O           64.80883410285183        0.76819025085259       -9.73093670026281
O           62.34573395979783        0.63930815268729       -9.96100137786685
C           62.88448398976328       -0.00223370137556       -7.10369646350293
C           62.91071238920169       -0.19797498658215       -5.73287390439093
C           62.25019254201385        0.43634727891187       -2.77972614705354
C           60.96926939145415        0.56601542145742       -3.41900443575415
C           60.02497686763997        0.40660626518947       -2.45753966441561
N           62.05976728384083        0.21586566127834       -1.44260781461812
C           60.71778813890722        0.18725697502154       -1.22160504690662
C           60.08959811345421       -0.02443302342753        0.02112982708157
C           60.74400008876411       -0.21525885528033        1.25356765926984
C           60.07918668614858       -0.46663999722329        2.49864768829781
C           61.04368888278043       -0.59412174528840        3.44487743112181
C           62.30859966070695       -0.41087710548168        2.78716086416130
N           62.08927646634152       -0.19262570595932        1.45412056858321
C           63.56108907842371       -0.47460727493078        3.40840956184723
C           63.57683197748418       -0.69960482009233        4.87477303037346
C           64.17981561162982       -1.84235193938575        5.40654461951326
C           64.19461575313895       -2.05915981520766        6.77454665377917
C           63.60297361643101       -1.11953215916583        7.60303986302212
S           63.62609052172837       -1.38224761264808        9.33621474502833
O           63.51064831239124       -0.14263831900917       10.04857538000789
O           62.20813721437145       -2.16170824011936        9.48459436310863
O           64.68288202416691       -2.28171234273332        9.69105697764505
C           63.00285688903899        0.02659842223571        7.10682313405279
C           62.99073432223258        0.23086259796403        5.73707249039429
C           64.80005021579375       -0.34426662582777        2.76909137196394
C           66.08392161876293       -0.35966517689854        3.42023196189600
C           67.02322496120537       -0.19176716431243        2.45671692941411
C           66.32595750589792       -0.06187669242748        1.20752679620801
N           64.98186831078498       -0.15271820742101        1.43117535176565
H           68.01706964163729        0.15027413979976       -0.03632324239530
H           68.04489793824500        0.44653308802897       -2.64521878793220
H           66.15097549122375        0.66955140086708       -4.53106774452383
H           64.42762324363090        2.68676350187255       -4.78518349738001
H           64.38187287054171        3.04719657349563       -7.24287893827749
H           64.93337516873864        0.77100131109367      -10.68774532607846
H           62.45041445165257       -0.74023506992148       -7.76650487391522
H           62.50405243537995       -1.10935893390043       -5.31024627833643
H           60.81356274297499        0.76747372266097       -4.46654126263496
H           58.95275311434355        0.44060119175752       -2.56654633522863
H           59.01080849429022       -0.54289323859673        2.62337631304102
H           60.91203870928292       -0.80633339505255        4.49363031477427
H           64.62651035752204       -2.57116005421109        4.74027833219304
H           64.65910345181385       -2.94142684379753        7.19665965693574
H           61.91360308610005       -2.14246700184779       10.40315700795198
H           62.56090806235830        0.74660767121066        7.78410126350238
H           62.53768575682349        1.12700047922883        5.32929715034398
H           66.24104901658032       -0.47201815054962        4.48100989165161
H           68.09501087850809       -0.15020546751036        2.57074031840107
C           40.05962278025319       -0.02548568482970       -0.06468959284575
C           38.83202662123232       -0.01537746830731       -0.06260240845921
C           37.48664852184089       -0.00605209240926       -0.05615574860053
C           36.26347912224075        0.00405167784895       -0.04752418628541
C           41.40492632400746       -0.03179121972503       -0.06321590654559
C           42.62827521525865       -0.03607118108770       -0.05693546241516
C           56.11416683509135       -0.06855333826435        0.03417183580253
C           54.88654524971953       -0.07452384319458        0.02683226857338
C           53.54120280722587       -0.07702124576116        0.01948646809015
C           52.31785461263823       -0.07797973035729        0.01036939015859
C           57.45961196363051       -0.06031861308458        0.03349124863243
C           58.68279816877153       -0.04610620788001        0.03100990450892
Zn          47.47337688340101       -0.05447019286452       -0.02909103351449
C           44.03469057372197       -0.04133739949323       -0.04995272894995
C           44.67761411624238        1.03591323162657        0.59064841423848
C           43.99976848356573        2.11142316669036        1.25269342785268
C           44.95551116915826        2.94904846498796        1.72951005165948
C           46.22726630684034        2.39558667614352        1.35482883675443
N           46.02181314257665        1.22746522463592        0.67220250249987
C           47.47417519801832        2.95022129738801        1.66347250432092
C           47.47414852579004        4.24500413920121        2.38887874231449
C           48.03384597179238        4.33800278483939        3.66554350256464
C           48.03591130336974        5.54387636854545        4.34717277532317
C           47.47577181446175        6.65389422567446        3.73614098046078
S           47.48743209073504        8.18691739321277        4.58684538322981
O           47.42577122381910        9.28728390053765        3.66896510294879
O           46.03766617838225        8.07549572637110        5.31131701382534
O           48.50487175234610        8.19058287105748        5.59499505830229
C           46.91824483200660        6.59482510310261        2.46903026335776
C           46.91756579536823        5.38273853179358        1.79884074642271
C           48.72084298327754        2.39674167459087        1.35154062698675
C           49.99322942079539        3.00203881818206        1.63216880335420
C           50.94827940074698        2.15672692083478        1.16783077634498
N           48.92529127559541        1.20586622030808        0.70909177841726
C           50.26949956740246        1.03370963691698        0.59117806659738
C           50.91137253692320       -0.07151559070894       -0.00105896642205
C           50.26803577437730       -1.16962328480516       -0.60471840229588
C           50.94499214964407       -2.29840356117987       -1.17204306815078
C           49.98943495127858       -3.13241095467875       -1.65542863745438
C           48.71863725924737       -2.51465137268727       -1.39529137878874
N           48.92429543138719       -1.32768949992597       -0.74607064108404
C           47.47180743331386       -3.05520079883737       -1.72916093247731
C           47.47154175018005       -4.34604990508732       -2.46122290052485
C           48.05659770709752       -4.43899376672984       -3.72658253846217
C           48.05885552579007       -5.64112774330768       -4.41475446551775
C           47.47267661112090       -6.74757386941138       -3.82191127655877
S           47.48340425076142       -8.27607125156099       -4.68041041296579
O           47.38705395434678       -9.38003131069813       -3.76991891294710
O           46.05162975251397       -8.14030697140822       -5.43634744444861
O           48.52249708672866       -8.28931490192559       -5.66625401653427
C           46.88950717716539       -6.68863763523881       -2.56637672302897
C           46.88955669734526       -5.48040300653313       -1.88933277078465
C           46.22530665501201       -2.49127530702982       -1.43545182838928
C           44.95382116354686       -3.03358016122719       -1.82711738807151
C           43.99884163394373       -2.19087173758410       -1.35770960070414
C           44.67696247942548       -1.12247508486423       -0.68463943353971
N           46.02056622234679       -1.32379429161135       -0.75147029942715
H           42.92922179059348        2.20356550180904        1.34300107382699
H           44.81359739715570        3.85530592367870        2.29589025294482
H           48.45762583649859        3.45513902022861        4.12978807038642
H           48.46729574959661        5.62686282457487        5.33678182478594
H           45.74963546599395        8.94550066960128        5.61309996074316
H           46.50028949364777        7.48509716344425        2.01606483177480
H           46.49745318300668        5.31750947176565        0.80191513477795
H           50.13628283491687        3.95710824775982        2.11125310459219
H           52.01895755746907        2.27968745403781        1.20215263272095
H           52.01477101244037       -2.43251786427563       -1.18780315495480
H           50.13104603788424       -4.08784037983325       -2.13421003672011
H           48.50023252836409       -3.55876130342134       -4.17708409026794
H           48.51011760252584       -5.72402668358182       -5.39547564711587
H           45.76952003895282       -9.00061724301507       -5.76987967131564
H           46.45141214954583       -7.57621138662360       -2.12738687233347
H           46.45010653166051       -5.41585484768729       -0.90074449317150
H           44.81123183321140       -3.93646099405610       -2.39868649753977
H           42.92873016290631       -2.27510047820843       -1.46015249255091

          :  Hamiltonian                  GFN1-xTB          :
         :: total energy            -405.086547525332 Eh    ::
         :: gradient norm              0.000496444188 Eh/a0 ::
         :: HOMO-LUMO gap              1.147986381887 eV    ::
         :: SCC energy              -410.683479029034 Eh    ::
         :: repulsion energy           5.781924614851 Eh    ::

    * Orbital Energies and Occupations

         #    Occupation            Energy/Eh            Energy/eV
      -------------------------------------------------------------
         1        2.0000           -1.0356483             -28.1814
       ...           ...                  ...                  ...
       337        2.0000           -0.4379649             -11.9176
       338        2.0000           -0.4376344             -11.9086
       339        2.0000           -0.4372083             -11.8970
       340        2.0000           -0.4365249             -11.8784
       341        2.0000           -0.4307494             -11.7213
       342        2.0000           -0.4298664             -11.6973
       343        2.0000           -0.4247712             -11.5586
       344        2.0000           -0.4121039             -11.2139
       345        2.0000           -0.4109110             -11.1815
       346        2.0000           -0.4098457             -11.1525
       347        2.0000           -0.4002566             -10.8915
       348        2.0000           -0.3985971             -10.8464
       349        2.0000           -0.3954983             -10.7621 (HOMO)
       350                         -0.3533106              -9.6141 (LUMO)
       351                         -0.3478118              -9.4644
       352                         -0.3466338              -9.4324
       353                         -0.3463111              -9.4236
       354                         -0.3458729              -9.4117
       355                         -0.3447888              -9.3822
       356                         -0.3233925              -8.8000
       357                         -0.3179774              -8.6526
       358                         -0.3170068              -8.6262
       359                         -0.3082491              -8.3879
       360                         -0.3077574              -8.3745
       ...                                ...                  ...
       730                          1.5679497              42.6661
      -------------------------------------------------------------
                  HL-Gap            0.0421877 Eh            1.1480 eV

Wiberg/Mayer (AO) data.
largest (>0.10) Wiberg bond orders for each atom

     #   Z sym  total        # sym  WBO       # sym  WBO       # sym  WBO
 ---------------------------------------------------------------------------
     1  30 Zn   1.992 --    45 N    0.460     7 N    0.459    22 N    0.455
                            29 N    0.454
     2   6 C    3.931 --    44 C    1.359     3 C    1.358    46 H    0.971
     3   6 C    3.920 --     2 C    1.358     7 N    1.232     4 C    1.169
     4   6 C    3.961 --     5 C    1.661     3 C    1.169    47 H    0.975
     5   6 C    3.963 --     4 C    1.661     6 C    1.170    48 H    0.973
     6   6 C    3.919 --     8 C    1.314     7 N    1.246     5 C    1.170
     7   7 N    3.295 --     6 C    1.246     3 C    1.232     1 Zn   0.459
     8   6 C    3.932 --    19 C    1.321     6 C    1.314     9 C    1.030
     9   6 C    3.985 --    10 C    1.390    18 C    1.390     8 C    1.030
    10   6 C    3.986 --    11 C    1.450     9 C    1.390    49 H    0.971
                            17 C    0.105
    11   6 C    3.989 --    10 C    1.450    12 C    1.406    50 H    0.967
                            18 C    0.106
    12   6 C    3.929 --    11 C    1.406    17 C    1.406    13 S    0.754
    13  16 S    5.263 --    14 O    1.719    16 O    1.718    15 O    1.012
                            12 C    0.754
    14   8 O    2.078 --    13 S    1.719    16 O    0.139
    15   8 O    2.086 --    13 S    1.012    51 H    0.828
    16   8 O    2.076 --    13 S    1.718    14 O    0.139
    17   6 C    3.989 --    18 C    1.451    12 C    1.406    52 H    0.967
                            10 C    0.105
    18   6 C    3.986 --    17 C    1.451     9 C    1.390    53 H    0.971
                            11 C    0.106
    19   6 C    3.913 --     8 C    1.321    22 N    1.229    20 C    1.177
    20   6 C    3.960 --    21 C    1.649    19 C    1.177    54 H    0.973
    21   6 C    3.962 --    20 C    1.649    23 C    1.184    55 H    0.974
    22   7 N    3.297 --    23 C    1.260    19 C    1.229     1 Zn   0.455
    23   6 C    3.901 --    22 N    1.260    24 C    1.258    21 C    1.184
    24   6 C    3.942 --    25 C    1.258    23 C    1.258   132 C    1.184
    25   6 C    3.902 --    29 N    1.260    24 C    1.258    26 C    1.184
    26   6 C    3.962 --    27 C    1.648    25 C    1.184    56 H    0.974
    27   6 C    3.960 --    26 C    1.648    28 C    1.177    57 H    0.973
    28   6 C    3.913 --    30 C    1.320    29 N    1.229    27 C    1.177
    29   7 N    3.297 --    25 C    1.260    28 C    1.229     1 Zn   0.454
    30   6 C    3.932 --    28 C    1.320    41 C    1.314    31 C    1.030
    31   6 C    3.985 --    32 C    1.391    40 C    1.389    30 C    1.030
    32   6 C    3.986 --    33 C    1.450    31 C    1.391    58 H    0.971
                            39 C    0.105
    33   6 C    3.989 --    32 C    1.450    34 C    1.407    59 H    0.967
                            40 C    0.105
    34   6 C    3.929 --    33 C    1.407    39 C    1.406    35 S    0.754
    35  16 S    5.265 --    38 O    1.727    36 O    1.713    37 O    1.013
                            34 C    0.754
    36   8 O    2.071 --    35 S    1.713    38 O    0.138
    37   8 O    2.087 --    35 S    1.013    60 H    0.828
    38   8 O    2.084 --    35 S    1.727    36 O    0.138
    39   6 C    3.989 --    40 C    1.451    34 C    1.406    61 H    0.967
                            32 C    0.105
    40   6 C    3.986 --    39 C    1.451    31 C    1.389    62 H    0.971
                            33 C    0.105
    41   6 C    3.919 --    30 C    1.314    45 N    1.246    42 C    1.170
    42   6 C    3.963 --    43 C    1.662    41 C    1.170    63 H    0.973
    43   6 C    3.961 --    42 C    1.662    44 C    1.169    64 H    0.975
    44   6 C    3.920 --     2 C    1.359    45 N    1.232    43 C    1.169
    45   7 N    3.295 --    41 C    1.246    44 C    1.232     1 Zn   0.460
    46   1 H    1.001 --     2 C    0.971
    47   1 H    0.997 --     4 C    0.975
    48   1 H    1.004 --     5 C    0.973
    49   1 H    1.003 --    10 C    0.971
    50   1 H    0.999 --    11 C    0.967
    51   1 H    0.854 --    15 O    0.828
    52   1 H    1.000 --    17 C    0.967
    53   1 H    1.003 --    18 C    0.971
    54   1 H    1.004 --    20 C    0.973
    55   1 H    1.002 --    21 C    0.974
    56   1 H    1.002 --    26 C    0.974
    57   1 H    1.004 --    27 C    0.973
    58   1 H    1.003 --    32 C    0.971
    59   1 H    1.000 --    33 C    0.967
    60   1 H    0.855 --    37 O    0.828
    61   1 H    1.000 --    39 C    0.967
    62   1 H    1.003 --    40 C    0.971
    63   1 H    1.003 --    42 C    0.973
    64   1 H    0.997 --    43 C    0.975
    65  30 Zn   1.992 --   109 N    0.460    71 N    0.459    86 N    0.455
                            93 N    0.454
    66   6 C    3.931 --   108 C    1.359    67 C    1.358   110 H    0.971
    67   6 C    3.920 --    66 C    1.358    71 N    1.232    68 C    1.169
    68   6 C    3.961 --    69 C    1.661    67 C    1.169   111 H    0.975
    69   6 C    3.963 --    68 C    1.661    70 C    1.170   112 H    0.973
    70   6 C    3.919 --    72 C    1.314    71 N    1.246    69 C    1.170
    71   7 N    3.295 --    70 C    1.246    67 C    1.232    65 Zn   0.459
    72   6 C    3.932 --    83 C    1.321    70 C    1.314    73 C    1.030
    73   6 C    3.985 --    74 C    1.390    82 C    1.390    72 C    1.030
    74   6 C    3.986 --    75 C    1.450    73 C    1.390   113 H    0.971
                            81 C    0.105
    75   6 C    3.989 --    74 C    1.450    76 C    1.406   114 H    0.967
                            82 C    0.106
    76   6 C    3.929 --    75 C    1.406    81 C    1.406    77 S    0.754
    77  16 S    5.263 --    78 O    1.720    80 O    1.717    79 O    1.012
                            76 C    0.754
    78   8 O    2.079 --    77 S    1.720    80 O    0.139
    79   8 O    2.086 --    77 S    1.012   115 H    0.828
    80   8 O    2.076 --    77 S    1.717    78 O    0.139
    81   6 C    3.989 --    82 C    1.451    76 C    1.406   116 H    0.967
                            74 C    0.105
    82   6 C    3.986 --    81 C    1.451    73 C    1.390   117 H    0.971
                            75 C    0.106
    83   6 C    3.913 --    72 C    1.321    86 N    1.229    84 C    1.176
    84   6 C    3.960 --    85 C    1.649    83 C    1.176   118 H    0.973
    85   6 C    3.962 --    84 C    1.649    87 C    1.184   119 H    0.974
    86   7 N    3.297 --    87 C    1.260    83 C    1.229    65 Zn   0.455
    87   6 C    3.901 --    86 N    1.260    88 C    1.258    85 C    1.184
    88   6 C    3.942 --    89 C    1.258    87 C    1.258   140 C    1.184
    89   6 C    3.902 --    93 N    1.260    88 C    1.258    90 C    1.184
    90   6 C    3.962 --    91 C    1.649    89 C    1.184   120 H    0.974
    91   6 C    3.960 --    90 C    1.649    92 C    1.177   121 H    0.973
    92   6 C    3.913 --    94 C    1.321    93 N    1.229    91 C    1.177
    93   7 N    3.297 --    89 C    1.260    92 C    1.229    65 Zn   0.454
    94   6 C    3.932 --    92 C    1.321   105 C    1.314    95 C    1.030
    95   6 C    3.985 --    96 C    1.391   104 C    1.389    94 C    1.030
    96   6 C    3.986 --    97 C    1.450    95 C    1.391   122 H    0.971
                           103 C    0.106
    97   6 C    3.989 --    96 C    1.450    98 C    1.407   123 H    0.967
                           104 C    0.105
    98   6 C    3.929 --    97 C    1.407   103 C    1.406    99 S    0.754
    99  16 S    5.265 --   102 O    1.727   100 O    1.713   101 O    1.013
                            98 C    0.754
   100   8 O    2.071 --    99 S    1.713   102 O    0.138
   101   8 O    2.088 --    99 S    1.013   124 H    0.828
   102   8 O    2.084 --    99 S    1.727   100 O    0.138
   103   6 C    3.989 --   104 C    1.451    98 C    1.406   125 H    0.967
                            96 C    0.106
   104   6 C    3.986 --   103 C    1.451    95 C    1.389   126 H    0.971
                            97 C    0.105
   105   6 C    3.919 --    94 C    1.314   109 N    1.246   106 C    1.170
   106   6 C    3.963 --   107 C    1.662   105 C    1.170   127 H    0.973
   107   6 C    3.961 --   106 C    1.662   108 C    1.169   128 H    0.975
   108   6 C    3.920 --    66 C    1.359   109 N    1.232   107 C    1.169
   109   7 N    3.295 --   105 C    1.246   108 C    1.232    65 Zn   0.460
   110   1 H    1.001 --    66 C    0.971
   111   1 H    0.997 --    68 C    0.975
   112   1 H    1.004 --    69 C    0.973
   113   1 H    1.003 --    74 C    0.971
   114   1 H    0.999 --    75 C    0.967
   115   1 H    0.854 --    79 O    0.828
   116   1 H    1.000 --    81 C    0.967
   117   1 H    1.003 --    82 C    0.971
   118   1 H    1.004 --    84 C    0.973
   119   1 H    1.002 --    85 C    0.974
   120   1 H    1.002 --    90 C    0.974
   121   1 H    1.004 --    91 C    0.973
   122   1 H    1.003 --    96 C    0.971
   123   1 H    1.000 --    97 C    0.967
   124   1 H    0.855 --   101 O    0.828
   125   1 H    1.000 --   103 C    0.967
   126   1 H    1.003 --   104 C    0.971
   127   1 H    1.003 --   106 C    0.973
   128   1 H    0.997 --   107 C    0.975
   129   6 C    3.923 --   130 C    2.376   133 C    1.328   132 C    0.190
   130   6 C    3.922 --   129 C    2.376   131 C    1.328   134 C    0.189
   131   6 C    3.934 --   132 C    2.457   130 C    1.328
   132   6 C    3.889 --   131 C    2.457    24 C    1.184   129 C    0.190
   133   6 C    3.932 --   134 C    2.455   129 C    1.328
   134   6 C    3.889 --   133 C    2.455   142 C    1.186   130 C    0.189
   135   6 C    3.922 --   136 C    2.376   139 C    1.328   138 C    0.189
   136   6 C    3.924 --   135 C    2.376   137 C    1.328   140 C    0.190
   137   6 C    3.932 --   138 C    2.455   136 C    1.328
   138   6 C    3.889 --   137 C    2.455   164 C    1.186   135 C    0.189
   139   6 C    3.934 --   140 C    2.456   135 C    1.328
   140   6 C    3.888 --   139 C    2.456    88 C    1.184   136 C    0.190
   141  30 Zn   1.990 --   169 N    0.456   162 N    0.456   147 N    0.455
                           185 N    0.455
   142   6 C    3.932 --   184 C    1.256   143 C    1.256   134 C    1.186
   143   6 C    3.902 --   147 N    1.260   142 C    1.256   144 C    1.186
   144   6 C    3.961 --   145 C    1.646   143 C    1.186   186 H    0.974
   145   6 C    3.961 --   144 C    1.646   146 C    1.179   187 H    0.973
   146   6 C    3.912 --   148 C    1.319   147 N    1.228   145 C    1.179
   147   7 N    3.292 --   143 C    1.260   146 C    1.228   141 Zn   0.455
   148   6 C    3.928 --   146 C    1.319   159 C    1.318   149 C    1.029
   149   6 C    3.985 --   150 C    1.391   158 C    1.390   148 C    1.029
   150   6 C    3.986 --   151 C    1.449   149 C    1.391   188 H    0.971
                           157 C    0.106
   151   6 C    3.989 --   150 C    1.449   152 C    1.407   189 H    0.967
                           158 C    0.106
   152   6 C    3.930 --   151 C    1.407   157 C    1.406   153 S    0.754
   153  16 S    5.266 --   156 O    1.727   154 O    1.713   155 O    1.013
                           152 C    0.754
   154   8 O    2.072 --   153 S    1.713   156 O    0.138
   155   8 O    2.088 --   153 S    1.013   190 H    0.828
   156   8 O    2.085 --   153 S    1.727   154 O    0.138
   157   6 C    3.989 --   158 C    1.451   152 C    1.406   191 H    0.967
                           150 C    0.106
   158   6 C    3.986 --   157 C    1.451   149 C    1.390   192 H    0.971
                           151 C    0.106
   159   6 C    3.912 --   148 C    1.318   162 N    1.228   160 C    1.179
   160   6 C    3.961 --   161 C    1.646   159 C    1.179   193 H    0.973
   161   6 C    3.961 --   160 C    1.646   163 C    1.186   194 H    0.974
   162   7 N    3.293 --   163 C    1.260   159 C    1.228   141 Zn   0.456
   163   6 C    3.901 --   162 N    1.260   164 C    1.256   161 C    1.186
   164   6 C    3.932 --   165 C    1.256   163 C    1.256   138 C    1.186
   165   6 C    3.902 --   169 N    1.260   164 C    1.256   166 C    1.186
   166   6 C    3.961 --   167 C    1.646   165 C    1.186   195 H    0.974
   167   6 C    3.961 --   166 C    1.646   168 C    1.179   196 H    0.973
   168   6 C    3.912 --   170 C    1.318   169 N    1.228   167 C    1.179
   169   7 N    3.293 --   165 C    1.260   168 C    1.228   141 Zn   0.456
   170   6 C    3.928 --   181 C    1.318   168 C    1.318   171 C    1.029
   171   6 C    3.985 --   172 C    1.391   180 C    1.390   170 C    1.029
   172   6 C    3.986 --   173 C    1.450   171 C    1.391   197 H    0.971
                           179 C    0.106
   173   6 C    3.989 --   172 C    1.450   174 C    1.407   198 H    0.967
                           180 C    0.105
   174   6 C    3.929 --   173 C    1.407   179 C    1.406   175 S    0.754
   175  16 S    5.265 --   178 O    1.726   176 O    1.713   177 O    1.013
                           174 C    0.754
   176   8 O    2.072 --   175 S    1.713   178 O    0.138
   177   8 O    2.087 --   175 S    1.013   199 H    0.828
   178   8 O    2.084 --   175 S    1.726   176 O    0.138
   179   6 C    3.989 --   180 C    1.451   174 C    1.406   200 H    0.967
                           172 C    0.106
   180   6 C    3.986 --   179 C    1.451   171 C    1.390   201 H    0.971
                           173 C    0.105
   181   6 C    3.912 --   170 C    1.318   185 N    1.228   182 C    1.179
   182   6 C    3.961 --   183 C    1.646   181 C    1.179   202 H    0.973
   183   6 C    3.961 --   182 C    1.646   184 C    1.186   203 H    0.974
   184   6 C    3.902 --   185 N    1.260   142 C    1.256   183 C    1.186
   185   7 N    3.292 --   184 C    1.260   181 C    1.228   141 Zn   0.455
   186   1 H    1.002 --   144 C    0.974
   187   1 H    1.004 --   145 C    0.973
   188   1 H    1.003 --   150 C    0.971
   189   1 H    1.000 --   151 C    0.967
   190   1 H    0.855 --   155 O    0.828
   191   1 H    1.000 --   157 C    0.967
   192   1 H    1.003 --   158 C    0.971
   193   1 H    1.003 --   160 C    0.973
   194   1 H    1.002 --   161 C    0.974
   195   1 H    1.002 --   166 C    0.974
   196   1 H    1.003 --   167 C    0.973
   197   1 H    1.003 --   172 C    0.971
   198   1 H    1.000 --   173 C    0.967
   199   1 H    0.855 --   177 O    0.828
   200   1 H    1.000 --   179 C    0.967
   201   1 H    1.003 --   180 C    0.971
   202   1 H    1.004 --   182 C    0.973
   203   1 H    1.002 --   183 C    0.974
 ---------------------------------------------------------------------------

           -------------------------------------------------
          | TOTAL ENERGY             -405.086547525332 Eh   |
          | GRADIENT NORM               0.000496444188 Eh/α |
          | HOMO-LUMO GAP               1.147986381887 eV   |
           -------------------------------------------------

 * finished run on 2022/07/30 at 16:04:03.892
