   * xtb version 6.5.1 (b24c23e) compiled by 'conda@728c89f4b128' on 2022-07-12
          program call               : xtb Cu_Ph3OH_C2_3.xyz --gfn 1 --opt -T 48

   ID    Z sym.   atoms
    1   29 Cu     1, 63, 129
    2    6 C      2-6, 8-11, 13, 15, 17-20, 22-27, 29-32, 34, 36, 38-42,
                  64-68, 70-73, 75, 77, 79-82, 84-89, 91-94, 96, 98, 100-104,
                  125-128, 130-134, 136-139, 141, 143, 145-148, 150-155,
                  157-160, 162, 164, 166-170
    3    7 N      7, 21, 28, 43, 69, 83, 90, 105, 135, 149, 156, 171
    4    8 O      12, 14, 16, 33, 35, 37, 74, 76, 78, 95, 97, 99, 140, 142,
                  144, 161, 163, 165
    5    1 H      44-62, 106-124, 172-189
########################################################################
[WARNING] Please study the warnings concerning your input carefully
-1- prog_main_parseArguments: Unknown option '-T' provided
########################################################################

          :  Hamiltonian                  GFN1-xTB          :
 * total energy  :  -377.4882550 Eh     change       -0.7666472E-09 Eh
 * total energy  :  -377.7092343 Eh     change       -0.2209793E+00 Eh
 * total energy  :  -377.8519142 Eh     change       -0.1426799E+00 Eh
 * total energy  :  -377.9154201 Eh     change       -0.6350587E-01 Eh
 * total energy  :  -377.9457788 Eh     change       -0.3035869E-01 Eh
 * total energy  :  -377.9655640 Eh     change       -0.1978518E-01 Eh
 * total energy  :  -377.9788916 Eh     change       -0.1332764E-01 Eh
 * total energy  :  -377.9890756 Eh     change       -0.1018401E-01 Eh
 * total energy  :  -377.9966411 Eh     change       -0.7565526E-02 Eh
 * total energy  :  -378.0020181 Eh     change       -0.5376965E-02 Eh
 * total energy  :  -378.0270227 Eh     change       -0.1258686E-04 Eh
 * total energy  :  -378.0270582 Eh     change       -0.3551572E-04 Eh
 * total energy  :  -378.0270747 Eh     change       -0.1647803E-04 Eh
 * total energy  :  -378.0270851 Eh     change       -0.1039107E-04 Eh
 * total energy  :  -378.0271038 Eh     change       -0.1872524E-04 Eh
 * total energy  :  -378.0271140 Eh     change       -0.1017081E-04 Eh
 * total energy  :  -378.0271214 Eh     change       -0.7433807E-05 Eh
 * total energy  :  -378.0271280 Eh     change       -0.6525628E-05 Eh
 * total energy  :  -378.0271329 Eh     change       -0.4956429E-05 Eh
   *** GEOMETRY OPTIMIZATION CONVERGED AFTER 56 ITERATIONS ***

 final structure:
================
189
 xtb: 6.5.1 (b24c23e)
Cu          35.81545315754040        0.02656256915411       -0.07985419801780
C           32.40831159172248        0.03299732388890       -0.18920819444605
C           33.03400532633710        1.26944904359027       -0.13328234947999
C           32.34906217172446        2.52850841637194       -0.06319728552557
C           33.30041096948750        3.49356685194646       -0.01564118367969
C           34.57650231695883        2.83285892304511       -0.07022780810134
N           34.38297547339071        1.48265747252777       -0.12850386551341
C           35.81765628733960        3.47371910479805       -0.05860183954396
C           35.82366850690972        4.95839129705067       -0.02599020859829
C           35.24427743178611        5.68975876696688       -1.06289431967785
C           35.25096981844550        7.07929367323252       -1.02439356713131
O           34.69730117907979        7.80033826526560       -2.03015926891847
C           35.83169858932133        7.74251455405751        0.05773497056997
O           35.81930756018396        9.11290140118282        0.07048971000034
C           36.40798582963367        7.01226271588596        1.09389547257770
O           36.95513234905675        7.73248814963049        2.12329767383601
C           36.41014353471105        5.62364279706236        1.05428972052512
C           37.05533558026600        2.82602096028997       -0.07157797768305
C           38.32511431356897        3.48899310466738       -0.15724109737283
C           39.27922328611460        2.52363717451842       -0.14615256619220
N           37.25754176984388        1.47186717915553       -0.02454708597932
C           38.60322165922060        1.26543488767432       -0.05231061016552
C           39.25073125518828        0.01776892598551        0.00932929977514
C           38.59613508331483       -1.22675639651549        0.04941819325228
C           39.26563216844220       -2.49040977984993        0.12021290243269
C           38.30849078234245       -3.45143723150582        0.08742911899483
C           37.04186293478134       -2.78069463289837        0.01146501639999
N           37.25048026252701       -1.42635623203753       -0.00804618075240
C           35.80420198891673       -3.42067101124290       -0.07485496334948
C           35.79898528760079       -4.90725047736273       -0.08226447332056
C           36.23757732722647       -5.61877101748351        1.03386487156352
C           36.22899215883105       -7.00894098169713        1.02138767753855
O           36.64600642413598       -7.71149775064425        2.10319914283116
C           35.78774379315985       -7.69155630855030       -0.11320333381974
O           35.79476217706199       -9.06252998660731       -0.09855892759957
C           35.35211747325649       -6.98036432788030       -1.22803866442620
O           34.93669124251914       -7.71903899733383       -2.30543281496137
C           35.35190173517591       -5.59097922153400       -1.21570479187698
C           34.56855935822500       -2.77485681545899       -0.15924334367307
C           33.29162832204625       -3.43422819436596       -0.20764323684085
C           32.34314486892915       -2.46537920345612       -0.24026797157867
C           33.03072228652940       -1.20634667141051       -0.20549569258174
N           34.37811268216844       -1.42329744724905       -0.15744909178516
H           31.32329430952929        0.03501052017148       -0.20874217326231
H           31.27676505747066        2.64416761145345       -0.04414329990729
H           33.15736960041604        4.55942564993442        0.05983379998103
H           34.80345416845600        5.18630078598416       -1.91358130293201
H           34.80011382293294        8.74339084798690       -1.82064633523774
H           36.25872852807490        9.40770901321468        0.88400806947528
H           37.32965715795824        7.14517121386420        2.79279966966803
H           36.84880178036976        5.06111773196364        1.87013836156156
H           38.46533670776220        4.55492524214603       -0.23703345431587
H           40.34794825706645        2.64657031636073       -0.20859394235095
H           40.33311016414952       -2.61974697489948        0.18803070363593
H           38.44537035575046       -4.52042439412550        0.10692923445938
H           36.57050917558789       -5.09940439767032        1.92314125827938
H           36.56269193222553       -8.65822400218386        1.90199305687333
H           35.45851779392250       -9.37102927312130       -0.95499415213876
H           34.65346646099353       -7.14294255683552       -3.02745713010186
H           35.02237441432239       -5.04333127384945       -2.09089191112755
H           33.14595505496303       -4.50259440393181       -0.20304888935530
H           31.27106751506459       -2.57916990992465       -0.27736663587993
Cu          57.64125786892551       -0.06478710189072       -0.05154798729234
C           61.04803103947206       -0.07445198044799       -0.18362723177090
C           60.41555102250277       -1.30594919098788       -0.26446876542889
C           61.09364003939317       -2.56814440895852       -0.34149193588318
C           60.13707191797233       -3.52753979396454       -0.39901381243465
C           58.86463012642946       -2.85847110846405       -0.37218634875641
N           59.06523397940674       -1.51134134289365       -0.27669269696047
C           57.62018883497514       -3.49010334720486       -0.43129946507050
C           57.60611838824498       -4.96838845816857       -0.57136308295483
C           58.18022346564715       -5.57749415668802       -1.68719214087113
C           58.16653081291866       -6.96208991380136       -1.80984035289301
O           58.71544037983700       -7.56443099219234       -2.89318228975486
C           57.58427797639749       -7.74326919948204       -0.81036988245713
O           57.59050622886249       -9.10611421783399       -0.95569614357152
C           57.01303182063558       -7.13510204515996        0.30441182907369
O           56.46425559563635       -7.96687235668420        1.24529836580374
C           57.01767878487614       -5.75125430732294        0.42580737763197
C           56.38639912725453       -2.83869511917061       -0.36571261498943
C           55.11299336095772       -3.48008828407480       -0.52737913158227
C           54.16421516371459       -2.51815628116149       -0.39892528476863
N           56.19192166237502       -1.49859938932931       -0.15705490093240
C           54.84707645366381       -1.28383089162786       -0.15638995515063
C           54.20645063224229       -0.04968947411105        0.05748577226405
C           54.86858556045507        1.17771306143532        0.24154419469761
C           54.20692646252029        2.42754648868407        0.46455726280523
C           55.16933051813508        3.38106851137296        0.53824075398873
C           56.43133797731339        2.71757938420980        0.37530097356045
N           56.21508481474377        1.37571958693161        0.19902835748540
C           57.67151804240066        3.35765252170585        0.35441119023624
C           57.68454297045968        4.83502459689425        0.51967138897717
C           57.26450339977722        5.41311329922397        1.71700634475932
C           57.28026062845461        6.79526965443394        1.86625163093952
O           56.88129251247187        7.36832308022659        3.02807057850912
C           57.70988959208294        7.60369039482417        0.81264295910598
O           57.71048055549798        8.96310424233099        0.98734735738652
C           58.12640153798536        7.02553969653678       -0.38355907835182
O           58.53064227766601        7.88286439962916       -1.37350784049575
C           58.11977859190000        5.64409762637673       -0.53283604749596
C           58.90265550261074        2.72033559552916        0.18563956214483
C           60.18236743197500        3.37553603567564        0.20243114902235
C           61.12560051873259        2.41290328211258        0.05064495054638
C           60.43189897016508        1.16119299095924       -0.05355846296308
N           59.08586752379821        1.37660256694930        0.03030781924841
H           62.13286157456248       -0.07930659057204       -0.21122488344321
H           62.16534901890767       -2.69060430571797       -0.34119728082084
H           60.27432101158742       -4.59580178077681       -0.44564160313288
H           58.62207270819480       -4.98092522116066       -2.47478973712191
H           58.60549741144811       -8.52475620758398       -2.79582132788864
H           57.14806528507037       -9.49034338834077       -0.18216261320712
H           56.09070389741865       -7.45815815914874        1.97680262293050
H           56.58290495883020       -5.28471222136795        1.30204864062507
H           54.96720092660022       -4.52792618797438       -0.73445404922925
H           53.09487059532405       -2.62698355987953       -0.47418177481173
H           53.14059638104164        2.55320802758880        0.55370006383285
H           55.03910627592754        4.44112794513888        0.68367185751524
H           56.94043153746888        4.79473706757591        2.54407515511388
H           56.96284333688579        8.33206575231133        2.93602775806685
H           58.02911019940401        9.36962514665188        0.16578150263798
H           58.79676106084131        7.39406633649970       -2.16324779618830
H           58.43459377914771        5.20054993179822       -1.47019274433516
H           60.33315576093933        4.43573828176214        0.32833316092679
H           62.19793164079351        2.52565222193584        0.01764089330815
C           40.66093829164234        0.01475507372515        0.02046664575967
C           41.87869572483704        0.01251174842440        0.02869765929895
C           51.57869500159835       -0.03339113897788        0.08549669992977
C           52.79639244517351       -0.04068542511503        0.07465747843515
Cu          46.72882521161495       -0.00814119588167        0.05261357683322
C           43.28785674996060        0.00703492515520        0.03324597041361
C           43.94865514151419        1.23022716832845        0.25308535401629
C           43.29607223330510        2.46213326610265        0.57418776358301
C           44.25770420647007        3.41983818994801        0.62816693420532
C           45.50653153627231        2.77667946682695        0.33910909319906
N           45.28924608637983        1.43968893008422        0.13811647390298
C           46.74300704497442        3.42295790626371        0.25297692400909
C           46.74726515627214        4.90311776979935        0.32472968261238
C           47.49845092191195        5.56229379429239        1.29934595524281
C           47.50984644091610        6.95195569621359        1.37813938281645
O           48.22859884628902        7.60336946550252        2.32943894522189
C           46.76782253852015        7.70489987281254        0.46214001297527
O           46.76317744392260        9.06246903637196        0.50819295119159
C           46.02200161357523        7.03855559980874       -0.51397902122137
O           45.32245921247078        7.83502559314615       -1.38414223389224
C           46.00034855660915        5.65322829899844       -0.58664129081052
C           47.97453207195094        2.78033925986802        0.09985699624112
C           49.22977117908641        3.44132515750929       -0.11120051799615
C           50.18341581073128        2.47580826719786       -0.15980829032262
N           48.18035311338047        1.42711336178999        0.15025196676391
C           49.51958981897879        1.22092425114823        0.01632522015184
C           50.16955871146508       -0.02570890298957        0.08478338206525
C           49.50643399675168       -1.26561105969166        0.13933614280687
C           50.15465033027417       -2.53012926878838        0.30820998566580
C           49.19329200151567       -3.48509748824578        0.22139051717834
C           47.94876921705533       -2.80757222831518       -0.00187682138645
N           48.16770240812713       -1.45607027829413       -0.02157554333682
C           46.71538051333106       -3.43487769436246       -0.19585073777306
C           46.71305896910683       -4.91296954457971       -0.32189427615959
C           47.46939586417587       -5.52630529354807       -1.32210482484717
C           47.45447941116321       -6.90957308712144       -1.45451573651424
O           48.16968350686052       -7.51569911733519       -2.43161042849439
C           46.68830313551877       -7.68232918613141       -0.57960082459616
O           46.70341464956387       -9.06036619322119       -0.74335155378717
C           45.96395311965749       -7.07446004253096        0.44421952452329
O           45.24383335539212       -7.82854237809535        1.32380073537124
C           45.96105530245944       -5.68923137864295        0.56109301830929
C           45.48583897760479       -2.77774819831028       -0.28537496830641
C           44.23423102713080       -3.40607111702743       -0.59578465691815
C           43.28009212913870       -2.44227415490801       -0.53243009763133
C           43.93998138206617       -1.22013802362861       -0.18828067424214
N           45.27776199334479       -1.44205169006520       -0.06516347217099
H           42.23893645957506        2.57235909684241        0.75220945367188
H           44.13649129038570        4.46450565692357        0.86527136525392
H           48.06613729489057        4.98862915659215        2.02337047477195
H           48.70161125573934        6.98036580751735        2.89663072239467
H           46.19454632208257        9.38770969785202       -0.20832706686372
H           44.83906142261284        7.30008421908826       -2.02700020006499
H           45.42567381518266        5.16099553784119       -1.36245657931353
H           49.36088110535551        4.50469116171518       -0.22993905183739
H           51.24206330799214        2.59646094686841       -0.32005531443772
H           51.20882333761793       -2.66385573650040        0.48745514010572
H           49.31098978596280       -4.55213036370662        0.31982764851274
H           48.04875661593461       -4.93396611199871       -2.01851295881598
H           48.03270503428953       -8.47519290570503       -2.35938840801668
H           45.81522603651889       -9.42608747637982       -0.64001342497525
H           45.53842254144735       -8.74984762961328        1.29455623177045
H           45.39539265934363       -5.22780626130675        1.36008484743819
H           44.10647378040323       -4.44615339892574       -0.84860233737089
H           42.22366353072860       -2.54092277321055       -0.72023955969580

          :  Hamiltonian                  GFN1-xTB          :
         :: total energy            -378.027132921512 Eh    ::
         :: gradient norm              0.000431105070 Eh/a0 ::
         :: HOMO-LUMO gap              0.004428181682 eV    ::
         :: SCC energy              -382.832278722669 Eh    ::
         :: repulsion energy           4.979523392222 Eh    ::

    * Orbital Energies and Occupations

         #    Occupation            Energy/Eh            Energy/eV
      -------------------------------------------------------------
         1        2.0000           -0.8122797             -22.1033
       ...           ...                  ...                  ...
       317        2.0000           -0.4079820             -11.1018
       318        2.0000           -0.4078677             -11.0986
       319        2.0000           -0.4078252             -11.0975
       320        2.0000           -0.4077560             -11.0956
       321        2.0000           -0.4073337             -11.0841
       322        2.0000           -0.3959795             -10.7751
       323        2.0000           -0.3953482             -10.7580
       324        2.0000           -0.3952183             -10.7544
       325        2.0000           -0.3951747             -10.7532
       326        2.0000           -0.3866941             -10.5225
       327        2.0000           -0.3772242             -10.2648
       328        1.0602           -0.3555291              -9.6744
       329        1.0079           -0.3554171              -9.6714 (HOMO)
       330        0.9319           -0.3552544              -9.6670 (LUMO)
       331        0.0000           -0.3421226              -9.3096
       332                         -0.3300483              -8.9811
       333                         -0.3285242              -8.9396
       334                         -0.3273402              -8.9074
       335                         -0.3271428              -8.9020
       336                         -0.3187672              -8.6741
       337                         -0.2992954              -8.1442
       338                         -0.2902790              -7.8989
       339                         -0.2862092              -7.7881
       340                         -0.2586842              -7.0392
       ...                                ...                  ...
       659                          1.3362361              36.3608
      -------------------------------------------------------------
                  HL-Gap            0.0001627 Eh            0.0044 eV

Wiberg/Mayer (AO) data.
largest (>0.10) Wiberg bond orders for each atom

     #   Z sym  total        # sym  WBO       # sym  WBO       # sym  WBO
 ---------------------------------------------------------------------------
     1  29 Cu   2.178 --     7 N    0.504    43 N    0.503    28 N    0.501
                            21 N    0.501
     2   6 C    3.928 --     3 C    1.361    42 C    1.361    44 H    0.971
     3   6 C    3.917 --     2 C    1.361     7 N    1.230     4 C    1.170
     4   6 C    3.955 --     5 C    1.656     3 C    1.170    45 H    0.976
     5   6 C    3.958 --     4 C    1.656     6 C    1.172    46 H    0.973
     6   6 C    3.913 --     8 C    1.321     7 N    1.239     5 C    1.172
     7   7 N    3.242 --     6 C    1.239     3 C    1.230     1 Cu   0.504
     8   6 C    3.934 --    18 C    1.324     6 C    1.321     9 C    1.028
     9   6 C    3.989 --    10 C    1.399    17 C    1.386     8 C    1.028
    10   6 C    3.977 --     9 C    1.399    11 C    1.380    47 H    0.970
    11   6 C    3.917 --    10 C    1.380    13 C    1.325    12 O    1.052
    12   8 O    2.047 --    11 C    1.052    48 H    0.848
    13   6 C    3.904 --    15 C    1.340    11 C    1.325    14 O    1.020
    14   8 O    2.020 --    13 C    1.020    49 H    0.846
    15   6 C    3.905 --    17 C    1.385    13 C    1.340    16 O    1.013
    16   8 O    2.025 --    15 C    1.013    50 H    0.861
    17   6 C    3.973 --     9 C    1.386    15 C    1.385    51 H    0.969
    18   6 C    3.908 --     8 C    1.324    21 N    1.223    19 C    1.181
    19   6 C    3.954 --    20 C    1.639    18 C    1.181    52 H    0.974
    20   6 C    3.956 --    19 C    1.639    22 C    1.189    53 H    0.968
    21   7 N    3.246 --    22 C    1.256    18 C    1.223     1 Cu   0.501
    22   6 C    3.902 --    23 C    1.261    21 N    1.256    20 C    1.189
    23   6 C    3.939 --    24 C    1.262    22 C    1.261   125 C    1.180
    24   6 C    3.901 --    23 C    1.262    28 N    1.257    25 C    1.187
    25   6 C    3.957 --    26 C    1.642    24 C    1.187    54 H    0.968
    26   6 C    3.954 --    25 C    1.642    27 C    1.179    55 H    0.973
    27   6 C    3.908 --    29 C    1.329    28 N    1.221    26 C    1.179
    28   7 N    3.246 --    24 C    1.257    27 C    1.221     1 Cu   0.501
    29   6 C    3.933 --    27 C    1.329    39 C    1.320    30 C    1.022
    30   6 C    3.989 --    31 C    1.401    38 C    1.389    29 C    1.022
    31   6 C    3.978 --    30 C    1.401    32 C    1.379    56 H    0.970
    32   6 C    3.917 --    31 C    1.379    34 C    1.325    33 O    1.052
    33   8 O    2.048 --    32 C    1.052    57 H    0.848
    34   6 C    3.905 --    36 C    1.342    32 C    1.325    35 O    1.019
    35   8 O    2.019 --    34 C    1.019    58 H    0.847
    36   6 C    3.905 --    38 C    1.383    34 C    1.342    37 O    1.012
    37   8 O    2.024 --    36 C    1.012    59 H    0.861
    38   6 C    3.973 --    30 C    1.389    36 C    1.383    60 H    0.970
    39   6 C    3.913 --    29 C    1.320    43 N    1.239    40 C    1.173
    40   6 C    3.958 --    41 C    1.655    39 C    1.173    61 H    0.974
    41   6 C    3.954 --    40 C    1.655    42 C    1.171    62 H    0.976
    42   6 C    3.917 --     2 C    1.361    43 N    1.230    41 C    1.171
    43   7 N    3.242 --    39 C    1.239    42 C    1.230     1 Cu   0.503
    44   1 H    1.002 --     2 C    0.971
    45   1 H    0.998 --     4 C    0.976
    46   1 H    1.005 --     5 C    0.973
    47   1 H    1.000 --    10 C    0.970
    48   1 H    0.878 --    12 O    0.848
    49   1 H    0.876 --    14 O    0.846
    50   1 H    0.881 --    16 O    0.861
    51   1 H    1.001 --    17 C    0.969
    52   1 H    1.006 --    19 C    0.974
    53   1 H    1.007 --    20 C    0.968
    54   1 H    1.006 --    25 C    0.968
    55   1 H    1.005 --    26 C    0.973
    56   1 H    1.000 --    31 C    0.970
    57   1 H    0.878 --    33 O    0.848
    58   1 H    0.876 --    35 O    0.847
    59   1 H    0.882 --    37 O    0.861
    60   1 H    1.001 --    38 C    0.970
    61   1 H    1.006 --    40 C    0.974
    62   1 H    0.998 --    41 C    0.976
    63  29 Cu   2.187 --    69 N    0.505   105 N    0.504    83 N    0.503
                            90 N    0.503
    64   6 C    3.928 --    65 C    1.361   104 C    1.361   106 H    0.971
    65   6 C    3.917 --    64 C    1.361    69 N    1.229    66 C    1.171
    66   6 C    3.955 --    67 C    1.656    65 C    1.171   107 H    0.976
    67   6 C    3.958 --    66 C    1.656    68 C    1.172   108 H    0.973
    68   6 C    3.912 --    70 C    1.320    69 N    1.238    67 C    1.172
    69   7 N    3.243 --    68 C    1.238    65 C    1.229    63 Cu   0.505
    70   6 C    3.934 --    80 C    1.325    68 C    1.320    71 C    1.028
    71   6 C    3.989 --    72 C    1.399    79 C    1.386    70 C    1.028
    72   6 C    3.977 --    71 C    1.399    73 C    1.380   109 H    0.970
    73   6 C    3.917 --    72 C    1.380    75 C    1.324    74 O    1.052
    74   8 O    2.048 --    73 C    1.052   110 H    0.848
    75   6 C    3.904 --    77 C    1.341    73 C    1.324    76 O    1.020
    76   8 O    2.020 --    75 C    1.020   111 H    0.846
    77   6 C    3.905 --    79 C    1.385    75 C    1.341    78 O    1.013
    78   8 O    2.024 --    77 C    1.013   112 H    0.861
    79   6 C    3.973 --    71 C    1.386    77 C    1.385   113 H    0.969
    80   6 C    3.908 --    70 C    1.325    83 N    1.222    81 C    1.181
    81   6 C    3.954 --    82 C    1.639    80 C    1.181   114 H    0.974
    82   6 C    3.956 --    81 C    1.639    84 C    1.189   115 H    0.968
    83   7 N    3.246 --    84 C    1.255    80 C    1.222    63 Cu   0.503
    84   6 C    3.901 --    85 C    1.261    83 N    1.255    82 C    1.189
    85   6 C    3.939 --    86 C    1.262    84 C    1.261   128 C    1.180
    86   6 C    3.901 --    85 C    1.262    90 N    1.256    87 C    1.187
    87   6 C    3.957 --    88 C    1.642    86 C    1.187   116 H    0.968
    88   6 C    3.954 --    87 C    1.642    89 C    1.180   117 H    0.973
    89   6 C    3.908 --    91 C    1.329    90 N    1.220    88 C    1.180
    90   7 N    3.246 --    86 C    1.256    89 C    1.220    63 Cu   0.503
    91   6 C    3.933 --    89 C    1.329   101 C    1.320    92 C    1.022
    92   6 C    3.989 --    93 C    1.401   100 C    1.389    91 C    1.022
    93   6 C    3.978 --    92 C    1.401    94 C    1.379   118 H    0.970
    94   6 C    3.918 --    93 C    1.379    96 C    1.325    95 O    1.052
    95   8 O    2.048 --    94 C    1.052   119 H    0.847
    96   6 C    3.905 --    98 C    1.342    94 C    1.325    97 O    1.020
    97   8 O    2.021 --    96 C    1.020   120 H    0.846
    98   6 C    3.905 --   100 C    1.383    96 C    1.342    99 O    1.013
    99   8 O    2.024 --    98 C    1.013   121 H    0.861
   100   6 C    3.973 --    92 C    1.389    98 C    1.383   122 H    0.970
   101   6 C    3.913 --    91 C    1.320   105 N    1.239   102 C    1.173
   102   6 C    3.958 --   103 C    1.655   101 C    1.173   123 H    0.974
   103   6 C    3.954 --   102 C    1.655   104 C    1.171   124 H    0.976
   104   6 C    3.917 --    64 C    1.361   105 N    1.230   103 C    1.171
   105   7 N    3.243 --   101 C    1.239   104 C    1.230    63 Cu   0.504
   106   1 H    1.002 --    64 C    0.971
   107   1 H    0.998 --    66 C    0.976
   108   1 H    1.005 --    67 C    0.973
   109   1 H    1.000 --    72 C    0.970
   110   1 H    0.878 --    74 O    0.848
   111   1 H    0.876 --    76 O    0.846
   112   1 H    0.881 --    78 O    0.861
   113   1 H    1.001 --    79 C    0.969
   114   1 H    1.005 --    81 C    0.974
   115   1 H    1.006 --    82 C    0.968
   116   1 H    1.007 --    87 C    0.968
   117   1 H    1.005 --    88 C    0.973
   118   1 H    1.000 --    93 C    0.970
   119   1 H    0.878 --    95 O    0.847
   120   1 H    0.876 --    97 O    0.846
   121   1 H    0.881 --    99 O    0.861
   122   1 H    1.001 --   100 C    0.970
   123   1 H    1.006 --   102 C    0.974
   124   1 H    0.998 --   103 C    0.976
   125   6 C    3.931 --   126 C    2.575    23 C    1.180
   126   6 C    3.936 --   125 C    2.575   130 C    1.183
   127   6 C    3.936 --   128 C    2.575   151 C    1.183
   128   6 C    3.931 --   127 C    2.575    85 C    1.180
   129  29 Cu   2.172 --   156 N    0.498   171 N    0.498   149 N    0.497
                           135 N    0.497
   130   6 C    3.925 --   170 C    1.259   131 C    1.257   126 C    1.183
   131   6 C    3.903 --   130 C    1.257   135 N    1.257   132 C    1.192
   132   6 C    3.955 --   133 C    1.634   131 C    1.192   172 H    0.969
   133   6 C    3.955 --   132 C    1.634   134 C    1.185   173 H    0.974
   134   6 C    3.908 --   136 C    1.317   135 N    1.224   133 C    1.185
   135   7 N    3.237 --   131 C    1.257   134 C    1.224   129 Cu   0.497
   136   6 C    3.928 --   146 C    1.319   134 C    1.317   137 C    1.036
   137   6 C    3.988 --   138 C    1.389   145 C    1.381   136 C    1.036
   138   6 C    3.973 --   137 C    1.389   139 C    1.382   174 H    0.969
   139   6 C    3.915 --   138 C    1.382   141 C    1.321   140 O    1.043
   140   8 O    2.052 --   139 C    1.043   175 H    0.867
   141   6 C    3.914 --   143 C    1.327   139 C    1.321   142 O    1.051
   142   8 O    2.047 --   141 C    1.051   176 H    0.850
   143   6 C    3.904 --   145 C    1.392   141 C    1.327   144 O    1.012
   144   8 O    2.025 --   143 C    1.012   177 H    0.861
   145   6 C    3.973 --   143 C    1.392   137 C    1.381   178 H    0.969
   146   6 C    3.908 --   136 C    1.319   149 N    1.223   147 C    1.184
   147   6 C    3.955 --   148 C    1.635   146 C    1.184   179 H    0.973
   148   6 C    3.955 --   147 C    1.635   150 C    1.192   180 H    0.968
   149   7 N    3.237 --   150 C    1.257   146 C    1.223   129 Cu   0.497
   150   6 C    3.903 --   149 N    1.257   151 C    1.257   148 C    1.192
   151   6 C    3.925 --   152 C    1.259   150 C    1.257   127 C    1.183
   152   6 C    3.903 --   151 C    1.259   156 N    1.256   153 C    1.190
   153   6 C    3.955 --   154 C    1.637   152 C    1.190   181 H    0.969
   154   6 C    3.955 --   153 C    1.637   155 C    1.183   182 H    0.974
   155   6 C    3.907 --   157 C    1.319   156 N    1.224   154 C    1.183
   156   7 N    3.237 --   152 C    1.256   155 C    1.224   129 Cu   0.498
   157   6 C    3.927 --   167 C    1.321   155 C    1.319   158 C    1.033
   158   6 C    3.989 --   166 C    1.395   159 C    1.395   157 C    1.033
   159   6 C    3.975 --   158 C    1.395   160 C    1.379   183 H    0.970
   160   6 C    3.917 --   159 C    1.379   162 C    1.332   161 O    1.055
   161   8 O    2.051 --   160 C    1.055   184 H    0.847
   162   6 C    3.886 --   164 C    1.346   160 C    1.332   163 O    0.979
   163   8 O    1.982 --   162 C    0.979   185 H    0.863
   164   6 C    3.910 --   166 C    1.380   162 C    1.346   165 O    1.028
   165   8 O    2.030 --   164 C    1.028   186 H    0.862
   166   6 C    3.975 --   158 C    1.395   164 C    1.380   187 H    0.970
   167   6 C    3.907 --   157 C    1.321   171 N    1.223   168 C    1.183
   168   6 C    3.955 --   169 C    1.637   167 C    1.183   188 H    0.974
   169   6 C    3.955 --   168 C    1.637   170 C    1.190   189 H    0.968
   170   6 C    3.903 --   130 C    1.259   171 N    1.257   169 C    1.190
   171   7 N    3.237 --   170 C    1.257   167 C    1.223   129 Cu   0.498
   172   1 H    1.006 --   132 C    0.969
   173   1 H    1.005 --   133 C    0.974
   174   1 H    1.001 --   138 C    0.969
   175   1 H    0.887 --   140 O    0.867
   176   1 H    0.881 --   142 O    0.850
   177   1 H    0.882 --   144 O    0.861
   178   1 H    1.001 --   145 C    0.969
   179   1 H    1.005 --   147 C    0.973
   180   1 H    1.006 --   148 C    0.968
   181   1 H    1.006 --   153 C    0.969
   182   1 H    1.005 --   154 C    0.974
   183   1 H    1.000 --   159 C    0.970
   184   1 H    0.881 --   161 O    0.847
   185   1 H    0.884 --   163 O    0.863
   186   1 H    0.885 --   165 O    0.862
   187   1 H    1.000 --   166 C    0.970
   188   1 H    1.005 --   168 C    0.974
   189   1 H    1.006 --   169 C    0.968
 ---------------------------------------------------------------------------

           -------------------------------------------------
          | TOTAL ENERGY             -378.027132921512 Eh   |
          | GRADIENT NORM               0.000431105070 Eh/α |
          | HOMO-LUMO GAP               0.004428181682 eV   |
           -------------------------------------------------

 * finished run on 2022/07/30 at 09:23:50.163
