   * xtb version 6.5.1 (b24c23e) compiled by 'conda@728c89f4b128' on 2022-07-12
          program call               : xtb Zn_PhOH_C6_2.xyz --gfn 1 --opt -T 48

   ID    Z sym.   atoms
    1   30 Zn     1, 59
    2    6 C      2-6, 8-12, 14-18, 20-25, 27-31, 33-38, 60-64, 66-70, 72-76,
                  78-83, 85-89, 91-96, 117-122
    3    7 N      7, 19, 26, 39, 65, 77, 84, 97
    4    8 O      13, 32, 71, 90
    5    1 H      40-58, 98-116
########################################################################
[WARNING] Please study the warnings concerning your input carefully
-1- prog_main_parseArguments: Unknown option '-T' provided
########################################################################

          :  Hamiltonian                  GFN1-xTB          :
 * total energy  :  -214.0458460 Eh     change       -0.3488196E-09 Eh
 * total energy  :  -214.1587850 Eh     change       -0.1129390E+00 Eh
 * total energy  :  -214.2108635 Eh     change       -0.5207852E-01 Eh
 * total energy  :  -214.2222545 Eh     change       -0.1139104E-01 Eh
 * total energy  :  -214.2273347 Eh     change       -0.5080158E-02 Eh
 * total energy  :  -214.2299229 Eh     change       -0.2588185E-02 Eh
 * total energy  :  -214.2313628 Eh     change       -0.1439943E-02 Eh
 * total energy  :  -214.2321213 Eh     change       -0.7585466E-03 Eh
 * total energy  :  -214.2326687 Eh     change       -0.5474049E-03 Eh
 * total energy  :  -214.2332337 Eh     change       -0.5649440E-03 Eh
 * total energy  :  -214.2359822 Eh     change       -0.2502078E-04 Eh
 * total energy  :  -214.2360053 Eh     change       -0.2308097E-04 Eh
 * total energy  :  -214.2360180 Eh     change       -0.1273014E-04 Eh
 * total energy  :  -214.2360322 Eh     change       -0.1417292E-04 Eh
 * total energy  :  -214.2360505 Eh     change       -0.1831850E-04 Eh
 * total energy  :  -214.2360636 Eh     change       -0.1304003E-04 Eh
 * total energy  :  -214.2360712 Eh     change       -0.7660157E-05 Eh
 * total energy  :  -214.2360780 Eh     change       -0.6724119E-05 Eh
 * total energy  :  -214.2360821 Eh     change       -0.4142665E-05 Eh
   *** GEOMETRY OPTIMIZATION CONVERGED AFTER 39 ITERATIONS ***

 final structure:
================
122
 xtb: 6.5.1 (b24c23e)
Zn          14.27159539863618       -0.04144989481632       -0.00337929216650
C           10.86268565787489       -0.07962343229816       -0.09267368071962
C           11.49289679728011       -1.31552692050117       -0.00984776516184
C           10.81908033573571       -2.57986432923182        0.08572670729773
C           11.77832333051108       -3.53545112854804        0.17154632224280
C           13.05136960927570       -2.86679430623768        0.11774986506665
N           12.84243883663822       -1.52238228546664        0.01548348098240
C           14.30245786786769       -3.49279044582910        0.18594016606628
C           14.31661481241346       -4.97438807931699        0.27777044789355
C           13.77274789032118       -5.75503809659307       -0.74262673391416
C           13.78704291971000       -7.13905707140073       -0.66101653669161
C           14.34456044939250       -7.75968811666396        0.45426232852915
O           14.37662613613816       -9.11250157245439        0.57631294674119
C           14.88841309016355       -6.99214983332364        1.48232035662953
C           14.87498814431186       -5.61171842297497        1.38855001393155
C           15.54069883859744       -2.84106169390481        0.17589824316218
C           16.82101725949230       -3.49283985703696        0.18720882016385
C           17.76665170045768       -2.51924812563642        0.15461058059576
N           15.73353999461020       -1.48592982949856        0.12358429958109
C           17.07527835854771       -1.26453279258168        0.11556037920705
C           17.70591456106743       -0.00461825432135        0.06395019156965
C           17.05103669797496        1.24194765590379       -0.00338695562136
C           17.71771608248880        2.50825700129235       -0.07936752310119
C           16.75316333858473        3.46156537272972       -0.14348666483709
C           15.48581400567654        2.78621045667781       -0.09995953650071
N           15.70523787162618        1.43639457925438       -0.02199138268098
C           14.23514007790149        3.41086942224751       -0.16098749667225
C           14.21863681260359        4.89456786070232       -0.21177557786259
C           14.74881759753626        5.64576975203299        0.84006974211198
C           14.72891410805167        7.02888498425563        0.80499327140271
C           14.17968320937724        7.68406181648545       -0.29544366777107
O           14.17706549656827        9.04277276498114       -0.29902096038875
C           13.65165165109540        6.94904541874245       -1.35412842449187
C           13.67023916082958        5.56345174889319       -1.30645655369604
C           12.99687022540768        2.75645775668075       -0.17296443805282
C           11.71083210079180        3.40174131322207       -0.19364141270691
C           10.77068365572968        2.42369961256411       -0.18193216200234
C           11.46928827160805        1.16982471000811       -0.14242772533122
N           12.81439872151872        1.40473264882126       -0.13624017123307
H            9.77706567047813       -0.09032142999559       -0.10370170148593
H            9.74789499595167       -2.70825350362034        0.09476895236732
H           11.63943795270424       -4.59965466787559        0.27628545912071
H           13.35085100052670       -5.27362755740870       -1.61791568247808
H           13.36879310317896       -7.74067493996677       -1.46091929614535
H           13.97394188038356       -9.54418652990345       -0.18906628178157
H           15.31489708517337       -7.48815549919103        2.34535499526710
H           15.28691367821871       -5.01452124205053        2.19437896857976
H           16.97635055507866       -4.55960685527415        0.20220249708785
H           18.83890217541442       -2.63422485162107        0.15026954652038
H           18.78765504255508        2.64291843014998       -0.08836573207231
H           16.88706771140677        4.52800649252065       -0.22787153784731
H           15.16459922983181        5.13614580094231        1.70215961080259
H           15.13297095693376        7.61292795004249        1.62263914645109
H           13.77376206633244        9.39131857387892       -1.10528139499450
H           13.22955802278159        7.46354824765706       -2.21085486905333
H           13.27003598635355        4.99270070569260       -2.13715118014134
H           11.55086452397380        4.46810574895002       -0.20167319747784
H            9.69716521516759        2.53088611201842       -0.18965436120135
Zn          30.31601683404712        0.03989434849161       -0.00922978399596
C           33.72492544162316        0.06507563005322       -0.10153969183597
C           33.09465912848454        1.29977119936284       -0.20023444871761
C           33.76838860668190        2.56454586216428       -0.29085503204349
C           32.80910301429298        3.52244103974464       -0.34417896624369
C           31.53612394741137        2.85309720175263       -0.29808670711952
N           31.74511433871689        1.50808989358486       -0.20412246786604
C           30.28513195390755        3.48253637812514       -0.31819265100504
C           30.27094937985418        4.96210704264612       -0.43955538292906
C           30.80836123021232        5.58840238971648       -1.56438952032822
C           30.79382209403616        6.96988311116678       -1.68158845426931
C           30.24289930886641        7.74392422123248       -0.66315597384931
O           30.21096238758890        9.10030791333766       -0.73568939024574
C           29.70569498696326        7.13162881064537        0.46747905006618
C           29.71899931213687        5.75196445853469        0.57199386533431
C           29.04696013118411        2.83643463054836       -0.23207511521782
C           27.76667879633439        3.48358754155217       -0.31110169333928
C           26.82099456998370        2.51544979742936       -0.20371606276054
N           28.85405104368083        1.48770383250786       -0.09074577305088
C           27.51231317424642        1.26770414677003       -0.06546863192756
C           26.88169885711070        0.01320671816029        0.06199890274591
C           27.53657646711256       -1.23031974766702        0.17220013067936
C           26.86978291145842       -2.49462696227369        0.27526257991730
C           27.83425341013106       -3.44737066664374        0.34839691426623
C           29.10168950326294       -2.77261904312657        0.29829066013233
N           28.88237144012867       -1.42541178501150        0.18339903915475
C           30.35243258398651       -3.39943192732460        0.33030005739841
C           30.36883113449661       -4.87500237357530        0.49250075138826
C           29.83128669520743       -5.46843063058847        1.63740674324678
C           29.85087162909696       -6.84231291316441        1.80067568779008
C           30.40754454300582       -7.64785349230919        0.80914536366798
O           30.40983443752648       -8.99307637634720        1.00007388090425
C           30.94306308598430       -7.07150474621683       -0.34018019848581
C           30.92441770850781       -5.69338318973616       -0.49146506974390
C           31.59084801176333       -2.75313795342747        0.22767160697130
C           32.87695145632912       -3.39410389963654        0.30398246183946
C           33.81707335979401       -2.42442790011463        0.17555911265516
C           33.11838703286715       -1.17837258982176        0.03091030416137
N           31.77326754110351       -1.41029289020546        0.06861355466362
H           34.81055098450481        0.07416008777193       -0.11333387203228
H           34.83956407224844        2.69283908862898       -0.30201756185778
H           32.94781111416425        4.59054308157031       -0.39632541094485
H           31.22541163479099        4.98650839016576       -2.36420995977138
H           31.20687350682754        7.45071079251965       -2.56189902036443
H           30.60821520017485        9.41787432984145       -1.55766237428686
H           29.28430987341959        7.74619779837497        1.25331165170721
H           29.31199488045860        5.27627698705949        1.45731170777201
H           27.61153608063908        4.54178968752834       -0.44710404857099
H           25.74873024345405        2.62885538597351       -0.22250477393356
H           25.79984487330444       -2.62928790798486        0.28360333215277
H           27.70009773460045       -4.51501450732019        0.41528453808989
H           29.41000673000120       -4.84102618945725        2.41502932633467
H           29.44090279069714       -7.30360581758410        2.69065496147752
H           30.81914509156811       -9.45310005261299        0.25504355984060
H           31.37095990952449       -7.70300082687488       -1.11153989173012
H           31.33020426834434       -5.24719861986029       -1.39271253722724
H           33.03708917521099       -4.45020337627157        0.45158496531212
H           34.89060390701675       -2.53125901238953        0.18595716187031
C           22.90802881485339        0.00287693918334        0.07575695279662
C           21.67953753977874        0.00671050276472        0.07549632005705
C           20.33521432831089        0.00648535652710        0.07350775527505
C           19.11104991460534        0.00701198738534        0.06958151057782
C           24.25235420658754        0.00341071166890        0.07346189001344
C           25.47655370883913        0.00246173109543        0.06897372236496

          :  Hamiltonian                  GFN1-xTB          :
         :: total energy            -214.236082101788 Eh    ::
         :: gradient norm              0.000495440187 Eh/a0 ::
         :: HOMO-LUMO gap              1.083735140956 eV    ::
         :: SCC energy              -217.592049784013 Eh    ::
         :: repulsion energy           3.462696418600 Eh    ::

    * Orbital Energies and Occupations

         #    Occupation            Energy/Eh            Energy/eV
      -------------------------------------------------------------
         1        2.0000           -0.8028063             -21.8455
       ...           ...                  ...                  ...
       181        2.0000           -0.4188745             -11.3982
       182        2.0000           -0.4188614             -11.3978
       183        2.0000           -0.4181669             -11.3789
       184        2.0000           -0.4181115             -11.3774
       185        2.0000           -0.4179981             -11.3743
       186        2.0000           -0.4154982             -11.3063
       187        2.0000           -0.4153896             -11.3033
       188        2.0000           -0.4108784             -11.1806
       189        2.0000           -0.4068266             -11.0703
       190        2.0000           -0.3906958             -10.6314
       191        2.0000           -0.3906957             -10.6314
       192        2.0000           -0.3833432             -10.4313
       193        2.0000           -0.3731864             -10.1549 (HOMO)
       194                         -0.3333599              -9.0712 (LUMO)
       195                         -0.3229211              -8.7871
       196                         -0.3229202              -8.7871
       197                         -0.3217430              -8.7551
       198                         -0.2942609              -8.0072
       199                         -0.2867875              -7.8039
       200                         -0.2785128              -7.5787
       201                         -0.2645204              -7.1980
       202                         -0.2645184              -7.1979
       203                         -0.2645161              -7.1979
       204                         -0.2645056              -7.1976
       ...                                ...                  ...
       412                          1.5850044              43.1302
      -------------------------------------------------------------
                  HL-Gap            0.0398265 Eh            1.0837 eV

Wiberg/Mayer (AO) data.
largest (>0.10) Wiberg bond orders for each atom

     #   Z sym  total        # sym  WBO       # sym  WBO       # sym  WBO
 ---------------------------------------------------------------------------
     1  30 Zn   1.998 --    39 N    0.460     7 N    0.459    26 N    0.457
                            19 N    0.457
     2   6 C    3.926 --    38 C    1.357     3 C    1.357    40 H    0.971
     3   6 C    3.923 --     2 C    1.357     7 N    1.233     4 C    1.172
     4   6 C    3.960 --     5 C    1.657     3 C    1.172    41 H    0.976
     5   6 C    3.963 --     4 C    1.657     6 C    1.173    42 H    0.973
     6   6 C    3.918 --     8 C    1.313     7 N    1.244     5 C    1.173
     7   7 N    3.293 --     6 C    1.244     3 C    1.233     1 Zn   0.459
     8   6 C    3.934 --    16 C    1.324     6 C    1.313     9 C    1.029
     9   6 C    3.989 --    10 C    1.394    15 C    1.384     8 C    1.029
    10   6 C    3.987 --    11 C    1.451     9 C    1.394    43 H    0.973
                            14 C    0.105
    11   6 C    3.988 --    10 C    1.451    12 C    1.373    44 H    0.970
                            15 C    0.103
    12   6 C    3.901 --    11 C    1.373    14 C    1.365    13 O    1.039
    13   8 O    2.042 --    12 C    1.039    45 H    0.865
    14   6 C    3.990 --    15 C    1.466    12 C    1.365    46 H    0.971
                            10 C    0.105
    15   6 C    3.988 --    14 C    1.466     9 C    1.384    47 H    0.973
                            11 C    0.103
    16   6 C    3.913 --     8 C    1.324    19 N    1.225    17 C    1.180
    17   6 C    3.960 --    18 C    1.645    16 C    1.180    48 H    0.973
    18   6 C    3.962 --    17 C    1.645    20 C    1.187    49 H    0.974
    19   7 N    3.297 --    20 C    1.263    16 C    1.225     1 Zn   0.457
    20   6 C    3.902 --    19 N    1.263    21 C    1.252    18 C    1.187
    21   6 C    3.938 --    22 C    1.253    20 C    1.252   120 C    1.193
    22   6 C    3.902 --    26 N    1.263    21 C    1.253    23 C    1.187
    23   6 C    3.962 --    24 C    1.645    22 C    1.187    50 H    0.974
    24   6 C    3.960 --    23 C    1.645    25 C    1.180    51 H    0.973
    25   6 C    3.913 --    27 C    1.324    26 N    1.225    24 C    1.180
    26   7 N    3.297 --    22 C    1.263    25 C    1.225     1 Zn   0.457
    27   6 C    3.934 --    25 C    1.324    35 C    1.313    28 C    1.028
    28   6 C    3.989 --    34 C    1.394    29 C    1.384    27 C    1.028
    29   6 C    3.988 --    30 C    1.466    28 C    1.384    52 H    0.973
                            33 C    0.103
    30   6 C    3.990 --    29 C    1.466    31 C    1.365    53 H    0.971
                            34 C    0.105
    31   6 C    3.901 --    33 C    1.373    30 C    1.365    32 O    1.038
    32   8 O    2.042 --    31 C    1.038    54 H    0.865
    33   6 C    3.988 --    34 C    1.451    31 C    1.373    55 H    0.970
                            29 C    0.103
    34   6 C    3.987 --    33 C    1.451    28 C    1.394    56 H    0.973
                            30 C    0.105
    35   6 C    3.917 --    27 C    1.313    39 N    1.244    36 C    1.173
    36   6 C    3.963 --    37 C    1.657    35 C    1.173    57 H    0.973
    37   6 C    3.960 --    36 C    1.657    38 C    1.172    58 H    0.976
    38   6 C    3.923 --     2 C    1.357    39 N    1.233    37 C    1.172
    39   7 N    3.293 --    35 C    1.244    38 C    1.233     1 Zn   0.460
    40   1 H    1.002 --     2 C    0.971
    41   1 H    0.998 --     4 C    0.976
    42   1 H    1.005 --     5 C    0.973
    43   1 H    1.005 --    10 C    0.973
    44   1 H    0.999 --    11 C    0.970
    45   1 H    0.887 --    13 O    0.865
    46   1 H    0.999 --    14 C    0.971
    47   1 H    1.005 --    15 C    0.973
    48   1 H    1.005 --    17 C    0.973
    49   1 H    1.002 --    18 C    0.974
    50   1 H    1.002 --    23 C    0.974
    51   1 H    1.005 --    24 C    0.973
    52   1 H    1.005 --    29 C    0.973
    53   1 H    0.999 --    30 C    0.971
    54   1 H    0.887 --    32 O    0.865
    55   1 H    0.999 --    33 C    0.970
    56   1 H    1.005 --    34 C    0.973
    57   1 H    1.005 --    36 C    0.973
    58   1 H    0.998 --    37 C    0.976
    59  30 Zn   1.998 --    97 N    0.460    65 N    0.459    84 N    0.457
                            77 N    0.457
    60   6 C    3.926 --    61 C    1.357    96 C    1.357    98 H    0.971
    61   6 C    3.923 --    60 C    1.357    65 N    1.233    62 C    1.172
    62   6 C    3.960 --    63 C    1.657    61 C    1.172    99 H    0.976
    63   6 C    3.963 --    62 C    1.657    64 C    1.173   100 H    0.973
    64   6 C    3.918 --    66 C    1.313    65 N    1.244    63 C    1.173
    65   7 N    3.293 --    64 C    1.244    61 C    1.233    59 Zn   0.459
    66   6 C    3.934 --    74 C    1.324    64 C    1.313    67 C    1.028
    67   6 C    3.989 --    68 C    1.394    73 C    1.384    66 C    1.028
    68   6 C    3.987 --    69 C    1.451    67 C    1.394   101 H    0.973
                            72 C    0.105
    69   6 C    3.988 --    68 C    1.451    70 C    1.373   102 H    0.970
                            73 C    0.103
    70   6 C    3.901 --    69 C    1.373    72 C    1.365    71 O    1.038
    71   8 O    2.042 --    70 C    1.038   103 H    0.865
    72   6 C    3.990 --    73 C    1.466    70 C    1.365   104 H    0.971
                            68 C    0.105
    73   6 C    3.988 --    72 C    1.466    67 C    1.384   105 H    0.973
                            69 C    0.103
    74   6 C    3.913 --    66 C    1.324    77 N    1.224    75 C    1.180
    75   6 C    3.960 --    76 C    1.645    74 C    1.180   106 H    0.973
    76   6 C    3.962 --    75 C    1.645    78 C    1.187   107 H    0.974
    77   7 N    3.297 --    78 C    1.263    74 C    1.224    59 Zn   0.457
    78   6 C    3.902 --    77 N    1.263    79 C    1.252    76 C    1.187
    79   6 C    3.938 --    80 C    1.253    78 C    1.252   122 C    1.193
    80   6 C    3.902 --    84 N    1.263    79 C    1.253    81 C    1.187
    81   6 C    3.962 --    82 C    1.645    80 C    1.187   108 H    0.974
    82   6 C    3.960 --    81 C    1.645    83 C    1.180   109 H    0.973
    83   6 C    3.913 --    85 C    1.324    84 N    1.225    82 C    1.180
    84   7 N    3.297 --    80 C    1.263    83 C    1.225    59 Zn   0.457
    85   6 C    3.934 --    83 C    1.324    93 C    1.313    86 C    1.029
    86   6 C    3.989 --    92 C    1.394    87 C    1.384    85 C    1.029
    87   6 C    3.988 --    88 C    1.466    86 C    1.384   110 H    0.973
                            91 C    0.103
    88   6 C    3.990 --    87 C    1.466    89 C    1.365   111 H    0.971
                            92 C    0.105
    89   6 C    3.901 --    91 C    1.373    88 C    1.365    90 O    1.039
    90   8 O    2.042 --    89 C    1.039   112 H    0.865
    91   6 C    3.988 --    92 C    1.451    89 C    1.373   113 H    0.970
                            87 C    0.103
    92   6 C    3.987 --    91 C    1.451    86 C    1.394   114 H    0.973
                            88 C    0.105
    93   6 C    3.917 --    85 C    1.313    97 N    1.244    94 C    1.173
    94   6 C    3.963 --    95 C    1.657    93 C    1.173   115 H    0.973
    95   6 C    3.960 --    94 C    1.657    96 C    1.172   116 H    0.976
    96   6 C    3.923 --    60 C    1.357    97 N    1.233    95 C    1.172
    97   7 N    3.293 --    93 C    1.244    96 C    1.233    59 Zn   0.460
    98   1 H    1.002 --    60 C    0.971
    99   1 H    0.998 --    62 C    0.976
   100   1 H    1.005 --    63 C    0.973
   101   1 H    1.005 --    68 C    0.973
   102   1 H    0.999 --    69 C    0.970
   103   1 H    0.887 --    71 O    0.865
   104   1 H    0.999 --    72 C    0.971
   105   1 H    1.005 --    73 C    0.973
   106   1 H    1.005 --    75 C    0.973
   107   1 H    1.002 --    76 C    0.974
   108   1 H    1.002 --    81 C    0.974
   109   1 H    1.005 --    82 C    0.973
   110   1 H    1.005 --    87 C    0.973
   111   1 H    0.999 --    88 C    0.971
   112   1 H    0.887 --    90 O    0.865
   113   1 H    0.999 --    91 C    0.970
   114   1 H    1.005 --    92 C    0.973
   115   1 H    1.005 --    94 C    0.973
   116   1 H    0.998 --    95 C    0.976
   117   6 C    3.926 --   118 C    2.367   121 C    1.336   120 C    0.190
   118   6 C    3.926 --   117 C    2.367   119 C    1.336   122 C    0.190
   119   6 C    3.933 --   120 C    2.447   118 C    1.336
   120   6 C    3.890 --   119 C    2.447    21 C    1.193   117 C    0.190
   121   6 C    3.933 --   122 C    2.447   117 C    1.336
   122   6 C    3.890 --   121 C    2.447    79 C    1.193   118 C    0.190
 ---------------------------------------------------------------------------

           -------------------------------------------------
          | TOTAL ENERGY             -214.236082101788 Eh   |
          | GRADIENT NORM               0.000495440187 Eh/α |
          | HOMO-LUMO GAP               1.083735140956 eV   |
           -------------------------------------------------

 * finished run on 2022/07/30 at 11:42:47.924
