   * xtb version 6.5.1 (b24c23e) compiled by 'conda@728c89f4b128' on 2022-07-12
          program call               : xtb Fe_C2Py_C4_2.xyz --gfn 1 --opt -T 48

   ID    Z sym.   atoms
    1   26 Fe     1, 59
    2    6 C      2-6, 8-13, 15-19, 21-26, 28-33, 35-40, 60-64, 66-71, 73-77,
                  79-84, 86-91, 93-98, 117-120
    3    7 N      7, 14, 20, 27, 34, 41, 65, 72, 78, 85, 92, 99
    4    1 H      42-58, 100-116
########################################################################
[WARNING] Please study the warnings concerning your input carefully
-1- prog_main_parseArguments: Unknown option '-T' provided
########################################################################

          :  Hamiltonian                  GFN1-xTB          :
 * total energy  :  -214.0307488 Eh     change        0.4700780E-08 Eh
 * total energy  :  -214.3393489 Eh     change       -0.3086001E+00 Eh
 * total energy  :  -214.4072597 Eh     change       -0.6791083E-01 Eh
 * total energy  :  -214.4383941 Eh     change       -0.3113442E-01 Eh
 * total energy  :  -214.4473226 Eh     change       -0.8928505E-02 Eh
 * total energy  :  -214.4517295 Eh     change       -0.4406910E-02 Eh
 * total energy  :  -214.4531191 Eh     change       -0.1389599E-02 Eh
 * total energy  :  -214.4542422 Eh     change       -0.1123037E-02 Eh
 * total energy  :  -214.4547617 Eh     change       -0.5195151E-03 Eh
 * total energy  :  -214.4551466 Eh     change       -0.3848995E-03 Eh
 * total energy  :  -214.4559996 Eh     change       -0.1298383E-04 Eh
 * total energy  :  -214.4560107 Eh     change       -0.1113360E-04 Eh
 * total energy  :  -214.4560234 Eh     change       -0.1271179E-04 Eh
 * total energy  :  -214.4560375 Eh     change       -0.1404766E-04 Eh
 * total energy  :  -214.4560501 Eh     change       -0.1266392E-04 Eh
 * total energy  :  -214.4560622 Eh     change       -0.1204798E-04 Eh
 * total energy  :  -214.4560731 Eh     change       -0.1097928E-04 Eh
 * total energy  :  -214.4560802 Eh     change       -0.7010065E-05 Eh
 * total energy  :  -214.4560841 Eh     change       -0.3910532E-05 Eh
   *** GEOMETRY OPTIMIZATION CONVERGED AFTER 37 ITERATIONS ***

 final structure:
================
120
 xtb: 6.5.1 (b24c23e)
Fe          16.17136479702430        0.08012970225079        0.00671778875422
C           12.77266671068500        0.14431702346992        0.01200779922765
C           13.43144645403035        0.92883300769534        0.93587655693579
C           12.76465934328676        1.75943031106541        1.89291036033684
C           13.73250857986891        2.41846224643774        2.57405338608257
C           14.98399570193497        1.98968743745686        2.02641119914246
N           14.79260001067633        1.06479457433962        1.04317664665775
C           16.21801148828759        2.51444461558140        2.42039482940363
C           16.23770595945361        3.51549658512860        3.41502339361304
C           16.25873676761607        4.37456951754621        4.27201930593537
C           16.28043640177414        5.37427052184771        5.27130651155296
C           17.47933983857070        5.97660412555700        5.67032121776999
C           17.44538793252037        6.94902123549883        6.65396007944946
N           16.32188144824674        7.34512862496023        7.24664971353793
C           15.17796663697992        6.77750266440843        6.87282970011962
C           15.10304323090034        5.79740450188989        5.89928424212443
C           17.43060375900725        2.10115162567901        1.86827358251070
C           18.69490836708401        2.65541648295727        2.24005451643889
C           19.63743357442296        1.96917945416899        1.54814016338172
N           17.59261854079047        1.09887932424866        0.94969390906385
C           18.94128561332513        0.99867513022004        0.76298217567295
C           19.59083690277114        0.03786084817736       -0.02114525568430
C           18.90640214485326       -0.91709352053440       -0.78222192157996
C           19.56651546603289       -1.90993918421855       -1.57038415180220
C           18.59518591432891       -2.59640947777709       -2.22105229212632
C           17.34987353016930       -2.01533542455107       -1.82655332787228
N           17.55165221488586       -1.00189529415588       -0.92811772544616
C           16.11847114101995       -2.40685588290743       -2.35220808240516
C           16.09603885741852       -3.42642259328100       -3.32783691686517
C           16.07798044721294       -4.29945869867769       -4.17068370406483
C           16.06426461505496       -5.31451863460870       -5.15455808740516
C           17.24450182121020       -5.95575897182506       -5.54903876528491
C           17.17999911580339       -6.94121733936416       -6.51789852330358
N           16.04355723810507       -7.31469231817120       -7.10060745221048
C           14.91736137144354       -6.71011758058376       -6.73112546819450
C           14.87319721468290       -5.71398464595022       -5.77187352006853
C           14.90645428820802       -1.82912657296279       -1.96367549277095
C           13.63913499287514       -2.20836926025723       -2.51146135204376
C           12.69998654137285       -1.48930176843946       -1.85120318173151
C           13.39963374558492       -0.67643695416486       -0.90240771262891
N           14.75326096709284       -0.88155168493911       -0.99562729476611
H           11.68867221769833        0.17066314771016        0.00777702155063
H           11.69433798456082        1.81948270768603        2.01011599949247
H           13.62741255817264        3.13738911967707        3.37077520427938
H           18.41709512484474        5.68374957484687        5.21377577253929
H           18.36030636644458        7.43327203370714        6.98293168708192
H           14.28058034406186        7.12434197666525        7.37706230304003
H           14.15016201922879        5.36123281250713        5.62496354745681
H           18.82836334779731        3.46250014085969        2.94230017561606
H           20.70829538521825        2.09238237557055        1.56357979795145
H           20.63485096957311       -2.04758289377685       -1.61427380425595
H           18.69728197673790       -3.41714487769390       -2.91265063209294
H           18.19158397712528       -5.68176450598425       -5.10014083252712
H           18.07992821643021       -7.45520432178610       -6.84307178936006
H           14.00881088293723       -7.03923672416913       -7.22715099159172
H           13.93362585942164       -5.24771304465604       -5.50114260859359
H           13.50473841560675       -2.93532208231406       -3.29640392489032
H           11.62893330896377       -1.49840051878245       -1.97657646330516
Fe          29.60726831242184       -0.04618411294299       -0.06473224852347
C           33.00625279707538       -0.08322823323880       -0.10911126131958
C           32.34790778203140       -1.27842554534007       -0.31175736788464
C           33.01522488496490       -2.52593873238128       -0.53263914205918
C           32.04798167432879       -3.44816294276170       -0.75388925408545
C           30.79632063736023       -2.75797321584584       -0.67041515418430
N           30.98697914346162       -1.43978328500113       -0.37922281760752
C           29.56295132352067       -3.36526740736666       -0.92230471200673
C           29.54446589480647       -4.73268907480565       -1.27097913153858
C           29.52560938482281       -5.90971337692135       -1.56620463291731
C           29.50707577955088       -7.28150895285973       -1.90717309581803
C           28.30998084988354       -7.93689430360049       -2.21824523348569
C           28.34727734983944       -9.28132320540492       -2.54291443799544
N           29.47239712297652       -9.99092437820562       -2.57487033485099
C           30.61466935648659       -9.37508595585962       -2.28087150822784
C           30.68624477462087       -8.03509805899622       -1.94428803359844
C           28.35004914673145       -2.67975927884086       -0.85223370455849
C           27.08628556054317       -3.28377345713682       -1.13865917296669
C           26.14294291856473       -2.33899044861859       -0.90308471923725
N           28.18695797883181       -1.37759756516998       -0.46196147826684
C           26.83808110745452       -1.16716735227228       -0.47110421632087
C           26.18769281115707       -0.00204793739201       -0.04764548727827
C           26.87123046753177        1.14186348227036        0.38119030913260
C           26.21018054966466        2.32769406220575        0.82791496447320
C           27.18074424314556        3.23968117299273        1.08164343885275
C           28.42656760220322        2.60364804634739        0.78597705838365
N           28.22581940139901        1.31196845493522        0.37817886050884
C           29.65758981211634        3.25628114316963        0.85328358043108
C           29.67965270997043        4.61688125557654        1.22769797634424
C           29.69873405277508        5.78817187837419        1.54490701539201
C           29.71568802828397        7.15287176566539        1.91346713532731
C           28.53767825814415        7.82292213329212        2.26419417442892
C           28.60628372649173        9.15919307663538        2.61593448683965
N           29.74463266309321        9.84780991687415        2.63787956547206
C           30.86876624571971        9.21813049561997        2.30591446635676
C           30.90882639714540        7.88438612012124        1.94002387417454
C           30.87041907240123        2.62618079814249        0.56041776371614
C           32.13767645620033        3.29081107573637        0.60874795371673
C           33.07773459469581        2.35454872055803        0.33543554845033
C           32.37866512516665        1.12299885675722        0.12325244551861
N           31.02454870163500        1.30876671506568        0.24556361531232
H           34.09033749578910       -0.09344931736867       -0.12939175762185
H           34.08546638002387       -2.65766666581319       -0.52006427537697
H           32.15366778942358       -4.50061415733892       -0.96326203651567
H           27.37099710111439       -7.39682133786544       -2.20409812834527
H           27.43375960492028       -9.81522720520234       -2.78835795486029
H           31.51343321449933       -9.98400377397414       -2.31641600726498
H           31.63786448807831       -7.57279570757514       -1.71151221106897
H           26.95378837984274       -4.30023497485018       -1.47273722433259
H           25.07213093266402       -2.41612333975648       -1.00103389607009
H           25.14178573802839        2.43509515450276        0.92389574949363
H           27.07781886304449        4.25475470302507        1.43002306526019
H           27.58912823000389        7.29969375707636        2.25925891615256
H           27.70814546296004        9.70390836469313        2.89238731024672
H           31.77897124496372        9.81019080932370        2.33420327563397
H           31.84680145650215        7.41068583744758        1.67672913900851
H           32.27145098930523        4.33782030121701        0.82904396763229
H           34.14903590516241        2.46652600464990        0.28313187311327
C           22.21581126060095        0.02918993742158       -0.04199997851993
C           20.99237399157688        0.02778346819797       -0.03741356238127
C           23.56258387016579        0.02033127208735       -0.04668679934890
C           24.78610526074744        0.01585984739401       -0.04666686473815

          :  Hamiltonian                  GFN1-xTB          :
         :: total energy            -214.456084065085 Eh    ::
         :: gradient norm              0.000501017528 Eh/a0 ::
         :: HOMO-LUMO gap              0.069924013396 eV    ::
         :: SCC energy              -218.108377498001 Eh    ::
         :: repulsion energy           3.752933135006 Eh    ::

    * Orbital Energies and Occupations

         #    Occupation            Energy/Eh            Energy/eV
      -------------------------------------------------------------
         1        2.0000           -0.7771315             -21.1468
       ...           ...                  ...                  ...
       187        2.0000           -0.4227646             -11.5040
       188        2.0000           -0.4227556             -11.5038
       189        2.0000           -0.4227453             -11.5035
       190        2.0000           -0.4047435             -11.0136
       191        2.0000           -0.4047229             -11.0131
       192        2.0000           -0.4016560             -10.9296
       193        1.9923           -0.3960229             -10.7763
       194        1.9920           -0.3959939             -10.7755
       195        1.9565           -0.3943658             -10.7312
       196        1.9558           -0.3943491             -10.7308
       197        1.9484           -0.3941981             -10.7267
       198        1.9482           -0.3941960             -10.7266
       199        1.5195           -0.3918428             -10.6626 (HOMO)
       200        0.3491           -0.3892731             -10.5927 (LUMO)
       201        0.3382           -0.3892367             -10.5917
       202                         -0.3470050              -9.4425
       203                         -0.3449241              -9.3859
       204                         -0.3449017              -9.3853
       205                         -0.3324183              -9.0456
       206                         -0.3178192              -8.6483
       207                         -0.3138891              -8.5414
       208                         -0.3096533              -8.4261
       209                         -0.3096433              -8.4258
       210                         -0.2913098              -7.9269
       ...                                ...                  ...
       422                          1.5039796              40.9254
      -------------------------------------------------------------
                  HL-Gap            0.0025697 Eh            0.0699 eV

Wiberg/Mayer (AO) data.
largest (>0.10) Wiberg bond orders for each atom

     #   Z sym  total        # sym  WBO       # sym  WBO       # sym  WBO
 ---------------------------------------------------------------------------
     1  26 Fe   3.071 --     7 N    0.658    41 N    0.657    27 N    0.651
                            20 N    0.650
     2   6 C    3.919 --    40 C    1.365     3 C    1.365    42 H    0.970
     3   6 C    3.916 --     2 C    1.365     7 N    1.202     4 C    1.175
     4   6 C    3.958 --     5 C    1.645     3 C    1.175    43 H    0.975
     5   6 C    3.961 --     4 C    1.645     6 C    1.182    44 H    0.973
     6   6 C    3.912 --     8 C    1.264     7 N    1.244     5 C    1.182
     7   7 N    3.375 --     6 C    1.244     3 C    1.202     1 Fe   0.658
     8   6 C    3.918 --    17 C    1.280     6 C    1.264     9 C    1.161
     9   6 C    3.956 --    10 C    2.621     8 C    1.161
    10   6 C    3.927 --     9 C    2.621    11 C    1.142
    11   6 C    3.987 --    12 C    1.350    16 C    1.350    10 C    1.142
    12   6 C    3.972 --    13 C    1.456    11 C    1.350    45 H    0.974
                            15 C    0.104
    13   6 C    3.972 --    12 C    1.456    14 N    1.407    46 H    0.972
                            16 C    0.104
    14   7 N    2.994 --    13 C    1.407    15 C    1.407
    15   6 C    3.972 --    16 C    1.457    14 N    1.407    47 H    0.972
                            12 C    0.104
    16   6 C    3.972 --    15 C    1.457    11 C    1.350    48 H    0.974
                            13 C    0.104
    17   6 C    3.907 --     8 C    1.280    20 N    1.220    18 C    1.188
    18   6 C    3.956 --    19 C    1.632    17 C    1.188    49 H    0.974
    19   6 C    3.959 --    18 C    1.632    21 C    1.191    50 H    0.973
    20   7 N    3.375 --    21 C    1.237    17 C    1.220     1 Fe   0.650
    21   6 C    3.895 --    22 C    1.253    20 N    1.237    19 C    1.191
    22   6 C    3.916 --    23 C    1.253    21 C    1.253   118 C    1.200
    23   6 C    3.896 --    22 C    1.253    27 N    1.237    24 C    1.191
    24   6 C    3.959 --    25 C    1.632    23 C    1.191    51 H    0.973
    25   6 C    3.956 --    24 C    1.632    26 C    1.188    52 H    0.974
    26   6 C    3.907 --    28 C    1.281    27 N    1.220    25 C    1.188
    27   7 N    3.375 --    23 C    1.237    26 C    1.220     1 Fe   0.651
    28   6 C    3.918 --    26 C    1.281    37 C    1.264    29 C    1.161
    29   6 C    3.956 --    30 C    2.621    28 C    1.161
    30   6 C    3.927 --    29 C    2.621    31 C    1.142
    31   6 C    3.987 --    36 C    1.350    32 C    1.350    30 C    1.142
    32   6 C    3.972 --    33 C    1.457    31 C    1.350    53 H    0.974
                            35 C    0.104
    33   6 C    3.972 --    32 C    1.457    34 N    1.407    54 H    0.972
                            36 C    0.104
    34   7 N    2.994 --    35 C    1.407    33 C    1.407
    35   6 C    3.972 --    36 C    1.456    34 N    1.407    55 H    0.972
                            32 C    0.104
    36   6 C    3.972 --    35 C    1.456    31 C    1.350    56 H    0.974
                            33 C    0.104
    37   6 C    3.912 --    28 C    1.264    41 N    1.245    38 C    1.182
    38   6 C    3.961 --    39 C    1.645    37 C    1.182    57 H    0.974
    39   6 C    3.958 --    38 C    1.645    40 C    1.175    58 H    0.975
    40   6 C    3.916 --     2 C    1.365    41 N    1.202    39 C    1.175
    41   7 N    3.375 --    37 C    1.245    40 C    1.202     1 Fe   0.657
    42   1 H    1.000 --     2 C    0.970
    43   1 H    0.997 --     4 C    0.975
    44   1 H    1.002 --     5 C    0.973
    45   1 H    1.002 --    12 C    0.974
    46   1 H    1.013 --    13 C    0.972
    47   1 H    1.013 --    15 C    0.972
    48   1 H    1.002 --    16 C    0.974
    49   1 H    1.002 --    18 C    0.974
    50   1 H    1.002 --    19 C    0.973
    51   1 H    1.002 --    24 C    0.973
    52   1 H    1.002 --    25 C    0.974
    53   1 H    1.002 --    32 C    0.974
    54   1 H    1.013 --    33 C    0.972
    55   1 H    1.013 --    35 C    0.972
    56   1 H    1.002 --    36 C    0.974
    57   1 H    1.002 --    38 C    0.974
    58   1 H    0.997 --    39 C    0.975
    59  26 Fe   3.068 --    65 N    0.657    99 N    0.657    85 N    0.651
                            78 N    0.650
    60   6 C    3.919 --    98 C    1.365    61 C    1.365   100 H    0.970
    61   6 C    3.916 --    60 C    1.365    65 N    1.202    62 C    1.175
    62   6 C    3.958 --    63 C    1.645    61 C    1.175   101 H    0.975
    63   6 C    3.961 --    62 C    1.645    64 C    1.182   102 H    0.973
    64   6 C    3.912 --    66 C    1.264    65 N    1.244    63 C    1.182
    65   7 N    3.375 --    64 C    1.244    61 C    1.202    59 Fe   0.657
    66   6 C    3.917 --    75 C    1.280    64 C    1.264    67 C    1.161
    67   6 C    3.956 --    68 C    2.621    66 C    1.161
    68   6 C    3.927 --    67 C    2.621    69 C    1.142
    69   6 C    3.987 --    70 C    1.350    74 C    1.350    68 C    1.142
    70   6 C    3.972 --    71 C    1.456    69 C    1.350   103 H    0.974
                            73 C    0.104
    71   6 C    3.972 --    70 C    1.456    72 N    1.407   104 H    0.972
                            74 C    0.104
    72   7 N    2.994 --    71 C    1.407    73 C    1.407
    73   6 C    3.972 --    74 C    1.457    72 N    1.407   105 H    0.972
                            70 C    0.104
    74   6 C    3.972 --    73 C    1.457    69 C    1.350   106 H    0.974
                            71 C    0.104
    75   6 C    3.907 --    66 C    1.280    78 N    1.220    76 C    1.188
    76   6 C    3.956 --    77 C    1.632    75 C    1.188   107 H    0.974
    77   6 C    3.959 --    76 C    1.632    79 C    1.191   108 H    0.973
    78   7 N    3.374 --    79 C    1.237    75 C    1.220    59 Fe   0.650
    79   6 C    3.895 --    80 C    1.253    78 N    1.237    77 C    1.191
    80   6 C    3.915 --    81 C    1.253    79 C    1.253   120 C    1.200
    81   6 C    3.895 --    80 C    1.253    85 N    1.237    82 C    1.191
    82   6 C    3.959 --    83 C    1.632    81 C    1.191   109 H    0.973
    83   6 C    3.956 --    82 C    1.632    84 C    1.188   110 H    0.974
    84   6 C    3.907 --    86 C    1.281    85 N    1.220    83 C    1.188
    85   7 N    3.375 --    81 C    1.237    84 C    1.220    59 Fe   0.651
    86   6 C    3.917 --    84 C    1.281    95 C    1.264    87 C    1.161
    87   6 C    3.956 --    88 C    2.621    86 C    1.161
    88   6 C    3.927 --    87 C    2.621    89 C    1.142
    89   6 C    3.987 --    94 C    1.350    90 C    1.350    88 C    1.142
    90   6 C    3.972 --    91 C    1.457    89 C    1.350   111 H    0.974
                            93 C    0.104
    91   6 C    3.972 --    90 C    1.457    92 N    1.407   112 H    0.972
                            94 C    0.104
    92   7 N    2.994 --    93 C    1.407    91 C    1.407
    93   6 C    3.972 --    94 C    1.456    92 N    1.407   113 H    0.972
                            90 C    0.104
    94   6 C    3.972 --    93 C    1.456    89 C    1.350   114 H    0.974
                            91 C    0.104
    95   6 C    3.912 --    86 C    1.264    99 N    1.245    96 C    1.182
    96   6 C    3.961 --    97 C    1.645    95 C    1.182   115 H    0.973
    97   6 C    3.958 --    96 C    1.645    98 C    1.175   116 H    0.975
    98   6 C    3.916 --    60 C    1.365    99 N    1.202    97 C    1.175
    99   7 N    3.375 --    95 C    1.245    98 C    1.202    59 Fe   0.657
   100   1 H    1.000 --    60 C    0.970
   101   1 H    0.997 --    62 C    0.975
   102   1 H    1.002 --    63 C    0.973
   103   1 H    1.002 --    70 C    0.974
   104   1 H    1.013 --    71 C    0.972
   105   1 H    1.013 --    73 C    0.972
   106   1 H    1.002 --    74 C    0.974
   107   1 H    1.002 --    76 C    0.974
   108   1 H    1.002 --    77 C    0.973
   109   1 H    1.002 --    82 C    0.973
   110   1 H    1.002 --    83 C    0.974
   111   1 H    1.002 --    90 C    0.974
   112   1 H    1.013 --    91 C    0.972
   113   1 H    1.013 --    93 C    0.972
   114   1 H    1.002 --    94 C    0.974
   115   1 H    1.002 --    96 C    0.973
   116   1 H    0.997 --    97 C    0.975
   117   6 C    3.924 --   118 C    2.453   119 C    1.323
   118   6 C    3.913 --   117 C    2.453    22 C    1.200   120 C    0.196
   119   6 C    3.924 --   120 C    2.453   117 C    1.323
   120   6 C    3.913 --   119 C    2.453    80 C    1.200   118 C    0.196
 ---------------------------------------------------------------------------

           -------------------------------------------------
          | TOTAL ENERGY             -214.456084065085 Eh   |
          | GRADIENT NORM               0.000501017528 Eh/α |
          | HOMO-LUMO GAP               0.069924013396 eV   |
           -------------------------------------------------

 * finished run on 2022/07/29 at 17:07:56.740
