   * xtb version 6.5.1 (b24c23e) compiled by 'conda@728c89f4b128' on 2022-07-12
          program call               : xtb PhCN_C2_3.xyz --gfn 1 --opt -T 48

   ID    Z sym.   atoms
    1    6 C      1-5, 7-12, 14-18, 20-25, 27-32, 34-39, 60-64, 66-71, 73-77,
                  79-84, 86-91, 93-98, 119-127, 129-134, 136-140, 142-147,
                  149-154, 156-161
    2    7 N      6, 13, 19, 26, 33, 40, 65, 72, 78, 85, 92, 99, 128, 135,
                  141, 148, 155, 162
    3    1 H      41-59, 100-118, 163-180
########################################################################
[WARNING] Please study the warnings concerning your input carefully
-1- prog_main_parseArguments: Unknown option '-T' provided
########################################################################

          :  Hamiltonian                  GFN1-xTB          :
 * total energy  :  -310.4924956 Eh     change       -0.2206434E-08 Eh
 * total energy  :  -310.9702226 Eh     change       -0.4777270E+00 Eh
 * total energy  :  -311.1200286 Eh     change       -0.1498060E+00 Eh
 * total energy  :  -311.1920166 Eh     change       -0.7198799E-01 Eh
 * total energy  :  -311.2184750 Eh     change       -0.2645844E-01 Eh
 * total energy  :  -311.2374723 Eh     change       -0.1899724E-01 Eh
 * total energy  :  -311.2509348 Eh     change       -0.1346249E-01 Eh
 * total energy  :  -311.2610849 Eh     change       -0.1015013E-01 Eh
 * total energy  :  -311.2682743 Eh     change       -0.7189437E-02 Eh
 * total energy  :  -311.2734403 Eh     change       -0.5165987E-02 Eh
 * total energy  :  -311.2965813 Eh     change       -0.1398118E-04 Eh
 * total energy  :  -311.2965943 Eh     change       -0.1300695E-04 Eh
 * total energy  :  -311.2966097 Eh     change       -0.1534397E-04 Eh
 * total energy  :  -311.2966305 Eh     change       -0.2085012E-04 Eh
 * total energy  :  -311.2966527 Eh     change       -0.2219628E-04 Eh
 * total energy  :  -311.2966737 Eh     change       -0.2099977E-04 Eh
 * total energy  :  -311.2966946 Eh     change       -0.2094590E-04 Eh
 * total energy  :  -311.2967132 Eh     change       -0.1851228E-04 Eh
 * total energy  :  -311.2967175 Eh     change       -0.4366716E-05 Eh
   *** GEOMETRY OPTIMIZATION CONVERGED AFTER 68 ITERATIONS ***

 final structure:
================
180
 xtb: 6.5.1 (b24c23e)
C           31.55951543649050        0.09783014099064        0.00665806284767
C           32.16687566090881        1.34480382075416       -0.06094447582640
C           31.51253958424488        2.60855405896993       -0.08371049069600
C           32.47184150981667        3.57816907422101       -0.15997927214233
C           33.74356004816077        2.93721249663085       -0.20025901979407
N           33.50878659718218        1.59377841374583       -0.12598492780803
C           35.00528360841842        3.53772908189560       -0.28053813806634
C           35.03269786062910        5.01605800031975       -0.37956934572276
C           35.68783625972512        5.77941888379633        0.59009696557589
C           35.70771779585765        7.15992986698936        0.50631650309912
C           35.07155965913465        7.80723060984190       -0.55718790685668
C           35.08819222233016        9.22785359282360       -0.64597422696553
N           35.09916150994159       10.37635228234379       -0.71695257061198
C           34.41742335064486        7.04841644800165       -1.53226348481994
C           34.39858293038677        5.66836008941837       -1.44000172536821
C           36.22247694958975        2.85003159411655       -0.27387311883111
C           37.51645622927573        3.49061361961175       -0.42633103177020
C           38.43867716442436        2.50820411410136       -0.36100339281941
N           36.37991341807550        1.50474493814221       -0.14375922420560
C           37.70803907338948        1.26866614425283       -0.18087307328256
C           38.34679269580322        0.02171252660903       -0.03797987765631
C           37.71520199677778       -1.22577866465589        0.11639871326118
C           38.36139990734923       -2.48146181159008        0.26831558313077
C           37.39693615490350       -3.44714619367769        0.34774932494351
C           36.12967611027030       -2.81094009868093        0.23462089983153
N           36.37350579017371       -1.46914145862885        0.10904312264277
C           34.86873359859835       -3.41700969846087        0.26342592781491
C           34.83783203551891       -4.89478411248977        0.36738697075170
C           34.20666749127044       -5.51671972043453        1.44760460841321
C           34.16753591743838       -6.89607272765185        1.54273724568548
C           34.75863653347305       -7.68432776638668        0.55076619795806
C           34.71396306748384       -9.10426281055511        0.64081522811600
N           34.67621745867908      -10.25202313806491        0.71422900822281
C           35.39260792023894       -7.06732026490740       -0.53176879923535
C           35.43242531953199       -5.68728388011627       -0.61764385814030
C           33.65004267407077       -2.73342630474912        0.19335369560825
C           32.34695142216551       -3.38044912028962        0.16858091310642
C           31.43172210519721       -2.39331909412363        0.09905296627952
C           32.17440814175747       -1.14549291902265        0.06838555822877
N           33.50704159145626       -1.38937318133325        0.11691034953336
H           30.47425903154177        0.10580542015940        0.01305481593503
H           30.44379643667210        2.74421912992481       -0.03874544544293
H           32.31777098646688        4.64482533176672       -0.17689847725229
H           34.23577050278013        0.88622938693863       -0.11623097833882
H           36.16933673920526        5.28276380015346        1.42483312378474
H           36.21360227788162        7.74481896653640        1.26555173797215
H           33.92680595264166        7.54598645167666       -2.36062127713661
H           33.90311157854865        5.08397637534895       -2.20717357100452
H           37.67693953916905        4.54578192914324       -0.57728046278298
H           39.51156076047887        2.59068180545501       -0.42775041272494
H           39.42934696801748       -2.62043533567680        0.31076746112370
H           37.54724849555067       -4.50601084544102        0.48091508659628
H           35.64909979408197       -0.76368162185765        0.02382432649693
H           33.75787625550827       -4.90915645492203        2.22525186584341
H           33.67933347403524       -7.37066145985018        2.38585547261138
H           35.84907331468051       -7.67487915803116       -1.30441660406013
H           35.91092759237365       -5.21382250330209       -1.46759862627002
H           32.17984199643245       -4.44529209782238        0.18833864371468
H           30.35648548931929       -2.47061306255770        0.06144922375758
C           60.07479470749362       -0.07681548244235        0.10122292219251
C           59.47333841769790       -1.28256983932009        0.43738968174539
C           60.13225838957617       -2.48259965033115        0.82635206841075
C           59.17684749870696       -3.43083107637454        1.06004309992554
C           57.90331929910945       -2.84329363610276        0.81075566125395
N           58.13273737139121       -1.54628790860058        0.44961345084944
C           56.64431280441701       -3.44407554539205        0.92465883497187
C           56.62420088076642       -4.87857256418214        1.29672749005607
C           55.97769973531412       -5.30208307796794        2.46047222740774
C           55.96215664945746       -6.64004485685447        2.81132368312970
C           56.59301094423779       -7.58581453163171        1.99757564129358
C           56.57767068418481       -8.96402173658201        2.35354710234133
N           56.56914408228986      -10.07825247331968        2.64083712455780
C           57.23920969022259       -7.16793019226982        0.83037864667559
C           57.25478505318125       -5.82774388515022        0.48837835972205
C           55.42414254912685       -2.79788519930672        0.70782576970761
C           54.13412456515047       -3.46165939560220        0.76447780310964
C           53.20742397048956       -2.51834390861468        0.49735031578474
N           55.25997939375765       -1.48444001277260        0.39114531966306
C           53.93181022804056       -1.28298199805372        0.26860497112274
C           53.28693399179181       -0.07087937149458       -0.04677830892085
C           53.91222618948552        1.15285962329131       -0.34804238282519
C           53.25970916707970        2.38414720248977       -0.62249284090241
C           54.21999501561359        3.32931076469428       -0.85456354689091
C           55.49088397055618        2.70136099832338       -0.73575322994321
N           55.25296774900816        1.38952941563709       -0.42224347616746
C           56.75005161901025        3.29630354449204       -0.87276054011440
C           56.77619419411749        4.73285924483937       -1.23426597314660
C           57.38006261122846        5.66314559931430       -0.38433284941502
C           57.40913871794216        7.00583155106313       -0.71476036861636
C           56.83533687771360        7.44571261859438       -1.91143125214172
C           56.86591171714014        8.82652990366359       -2.25600839685671
N           56.89051897157192        9.94333220418801       -2.53254562005753
C           56.23133819410204        6.51913643919360       -2.76652022813530
C           56.20123044390122        5.17842400957975       -2.42698230659227
C           57.97127814746068        2.63862007855989       -0.68855044299878
C           59.27276952630959        3.25611828367194       -0.89430491421711
C           60.19224541953810        2.30940054115709       -0.62020708267648
C           59.45418360440279        1.11224812047834       -0.25736216694470
N           58.11988189075034        1.34476237367201       -0.31938785594122
H           61.15985445346610       -0.07261611529003        0.12404644676920
H           61.20115007858433       -2.59109930894672        0.91773839566435
H           59.33454514603950       -4.44595980095104        1.38636750053714
H           57.40329252887648       -0.87730924670447        0.22680143547370
H           55.49901728442760       -4.57047830889445        3.10149972457679
H           55.46306440686752       -6.95991785566968        3.71853401343527
H           57.72563383763115       -7.89836311654503        0.19452407811744
H           57.74428557441346       -5.51049998335123       -0.42557651440395
H           53.97981851988700       -4.50971208509047        0.96374664391044
H           52.13645867817240       -2.62801087257009        0.43829474917581
H           52.19096127418527        2.52401248493377       -0.62807686330861
H           54.06422066517824        4.37265724882387       -1.07524037981685
H           55.98028700695432        0.70215546079412       -0.25435447261699
H           57.81431538476998        5.32797193991298        0.55075472570575
H           57.87506184719113        7.72140509508223       -0.04745186814765
H           55.78954353317803        6.85575487821764       -3.69709307061263
H           55.74541199281806        4.46186297435557       -3.10099841290232
H           59.43594915128121        4.27093620544485       -1.21946318489968
H           61.26784154922776        2.38112644194744       -0.65836730709260
C           39.75789184881685        0.00706598196397       -0.04918778887959
C           40.97429932637912       -0.01176201728695       -0.05611111470455
C           50.66010366017164       -0.06426539988828       -0.07227287340755
C           51.87675516759683       -0.06954241856365       -0.06253586512721
C           42.38468635740953       -0.02317782384643       -0.06392750231633
C           43.01339505461775        0.92140278560964       -0.89570264823158
C           42.36909664833347        1.87772036021735       -1.72291509607400
C           43.33607160646607        2.57781641157443       -2.39038901145942
C           44.60099113895627        2.06072477410512       -1.99796963973132
N           44.35563019534533        1.06989809439569       -1.08600561223903
C           45.86126378322175        2.48357914567711       -2.43808106173937
C           45.87529325097644        3.54916957089975       -3.46987011356088
C           45.28628326759307        3.33108832992736       -4.71765973714430
C           45.30383193142546        4.31716215079114       -5.68754138717121
C           45.90885748513287        5.54946891277084       -5.42301840000304
C           45.92703712700452        6.56577775915022       -6.41976067430023
N           45.94524134291461        7.38413673706972       -7.22837258649503
C           46.49525996738010        5.77466418418291       -4.17410494946786
C           46.47925184677268        4.78167261423182       -3.21099927083446
C           47.08724318092433        1.98071851208006       -1.99842987365283
C           48.37181166286523        2.40370276040417       -2.52730522753579
C           49.30935697453629        1.69504411901494       -1.86511618639428
N           47.26529227058592        1.02124787083374       -1.04972613232020
C           48.59695546840315        0.83529008950219       -0.94049492033853
C           49.25057487688190       -0.06145841858487       -0.07364726707753
C           48.62262370785830       -0.96283020236171        0.80551448570917
C           49.26755986856499       -1.82976316052913        1.72568724803740
C           48.30078485051634       -2.52487923813768        2.39864379710338
C           47.03529211339129       -2.10884386416510        1.90141597775636
N           47.28063179050115       -1.15909207041508        0.94646701460848
C           45.77405567098157       -2.55285963402383        2.31645364820242
C           45.75539137615111       -3.60115235445478        3.36554318215592
C           46.33798813449420       -4.84979604739403        3.13692725403577
C           46.32072909707073       -5.82560492129972        4.11751881135549
C           45.72250436445626       -5.56630686341726        5.35414810597116
C           45.70716964601827       -6.56577587958614        6.36777561209230
N           45.69595595521121       -7.37159031650169        7.18914980692489
C           45.13968896205142       -4.31733752103425        5.58877672013441
C           45.15551951850268       -3.34857473280912        4.60172164210049
C           44.54860115226223       -2.08700523245476        1.83508858603615
C           43.26314293105620       -2.62210772931280        2.24737831846027
C           42.32529772096306       -1.91966494041845        1.57909797301367
C           43.03790580786990       -0.96406213812704        0.75437419523895
N           44.37085728062846       -1.09612357287067        0.91987031405708
H           41.30161866347222        2.00765232334802       -1.79444911750140
H           43.18814111752512        3.38638282590525       -3.08734315710534
H           45.07366203379364        0.52563864467645       -0.61966322461246
H           44.82817114901327        2.37198148390343       -4.93162471585468
H           44.85125793944313        4.13772792320464       -6.65574135336509
H           46.96119990818728        6.73027808545576       -3.96405296316058
H           46.92524911260764        4.96394548597513       -2.23982842905283
H           48.51538918881971        3.13164104736213       -3.30920768321548
H           50.38056052909332        1.72284610365694       -1.98450044399807
H           50.33480338284765       -1.89824311154903        1.85979781163541
H           48.44923857712589       -3.25302977051162        3.17914822874956
H           46.56233569227540       -0.66263529631843        0.42997057307904
H           46.79134676847165       -5.05989195221336        2.17473962940974
H           46.76922669384795       -6.79425069599230        3.93047086611272
H           44.67769769500386       -4.11167683674852        6.54726346006806
H           44.71333800893581       -2.37705421845277        4.79130100229435
H           43.11902803153104       -3.43340759528137        2.94229198993300
H           41.25287328750692       -2.02085421298545        1.62373495598127

          :  Hamiltonian                  GFN1-xTB          :
         :: total energy            -311.296717527976 Eh    ::
         :: gradient norm              0.000795549314 Eh/a0 ::
         :: HOMO-LUMO gap              0.875281733726 eV    ::
         :: SCC energy              -316.635812175564 Eh    ::
         :: repulsion energy           5.500834411641 Eh    ::

    * Orbital Energies and Occupations

         #    Occupation            Energy/Eh            Energy/eV
      -------------------------------------------------------------
         1        2.0000           -0.8180829             -22.2612
       ...           ...                  ...                  ...
       273        2.0000           -0.4319130             -11.7530
       274        2.0000           -0.4309507             -11.7268
       275        2.0000           -0.4296079             -11.6902
       276        2.0000           -0.4296042             -11.6901
       277        2.0000           -0.4288403             -11.6693
       278        2.0000           -0.4279644             -11.6455
       279        2.0000           -0.4279373             -11.6448
       280        2.0000           -0.4130475             -11.2396
       281        2.0000           -0.4117846             -11.2052
       282        2.0000           -0.4116624             -11.2019
       283        2.0000           -0.4048709             -11.0171
       284        2.0000           -0.3976725             -10.8212
       285        2.0000           -0.3893537             -10.5949 (HOMO)
       286                         -0.3571877              -9.7196 (LUMO)
       287                         -0.3470507              -9.4437
       288                         -0.3461335              -9.4188
       289                         -0.3454806              -9.4010
       290                         -0.3448193              -9.3830
       291                         -0.3371847              -9.1753
       292                         -0.3180831              -8.6555
       293                         -0.3136461              -8.5347
       294                         -0.3120589              -8.4916
       295                         -0.3059611              -8.3256
       296                         -0.3049750              -8.2988
       ...                                ...                  ...
       608                          1.3258095              36.0771
      -------------------------------------------------------------
                  HL-Gap            0.0321660 Eh            0.8753 eV

Wiberg/Mayer (AO) data.
largest (>0.10) Wiberg bond orders for each atom

     #   Z sym  total        # sym  WBO       # sym  WBO       # sym  WBO
 ---------------------------------------------------------------------------
     1   6 C    3.927 --    39 C    1.367     2 C    1.347    41 H    0.970
     2   6 C    3.901 --     1 C    1.347     3 C    1.228     6 N    1.169
     3   6 C    3.954 --     4 C    1.597     2 C    1.228    42 H    0.976
     4   6 C    3.959 --     3 C    1.597     5 C    1.233    43 H    0.974
     5   6 C    3.897 --     7 C    1.303     4 C    1.233     6 N    1.178
     6   7 N    3.470 --     5 C    1.178     2 C    1.169    44 H    0.873
     7   6 C    3.938 --    16 C    1.330     5 C    1.303     8 C    1.034
     8   6 C    3.963 --    15 C    1.384     9 C    1.384     7 C    1.034
     9   6 C    3.987 --    10 C    1.464     8 C    1.384    45 H    0.971
                            14 C    0.102
    10   6 C    3.993 --     9 C    1.464    11 C    1.364    46 H    0.972
                            15 C    0.102
    11   6 C    3.983 --    14 C    1.364    10 C    1.364    12 C    1.098
    12   6 C    3.958 --    13 N    2.820    11 C    1.098
    13   7 N    2.973 --    12 C    2.820
    14   6 C    3.993 --    15 C    1.464    11 C    1.364    47 H    0.972
                             9 C    0.102
    15   6 C    3.986 --    14 C    1.464     8 C    1.384    48 H    0.971
                            10 C    0.102
    16   6 C    3.915 --     7 C    1.330    19 N    1.291    17 C    1.125
    17   6 C    3.966 --    18 C    1.709    16 C    1.125    49 H    0.973
    18   6 C    3.964 --    17 C    1.709    20 C    1.128    50 H    0.971
    19   7 N    3.021 --    20 C    1.339    16 C    1.291
    20   6 C    3.914 --    19 N    1.339    21 C    1.263    18 C    1.128
    21   6 C    3.937 --    20 C    1.263    22 C    1.259   119 C    1.171
    22   6 C    3.890 --    21 C    1.259    23 C    1.247    26 N    1.187
    23   6 C    3.959 --    24 C    1.584    22 C    1.247    51 H    0.972
    24   6 C    3.955 --    23 C    1.584    25 C    1.240    52 H    0.974
    25   6 C    3.898 --    27 C    1.307    24 C    1.240    26 N    1.168
    26   7 N    3.474 --    22 C    1.187    25 C    1.168    53 H    0.873
    27   6 C    3.925 --    36 C    1.320    25 C    1.307    28 C    1.034
    28   6 C    3.963 --    35 C    1.385    29 C    1.384    27 C    1.034
    29   6 C    3.987 --    30 C    1.464    28 C    1.384    54 H    0.971
                            34 C    0.102
    30   6 C    3.993 --    29 C    1.464    31 C    1.364    55 H    0.972
                            35 C    0.102
    31   6 C    3.983 --    34 C    1.364    30 C    1.364    32 C    1.098
    32   6 C    3.958 --    33 N    2.820    31 C    1.098
    33   7 N    2.973 --    32 C    2.820
    34   6 C    3.993 --    35 C    1.464    31 C    1.364    56 H    0.972
                            29 C    0.102
    35   6 C    3.986 --    34 C    1.464    28 C    1.385    57 H    0.971
                            30 C    0.102
    36   6 C    3.928 --    27 C    1.320    40 N    1.318    37 C    1.116
    37   6 C    3.967 --    38 C    1.724    36 C    1.116    58 H    0.973
    38   6 C    3.966 --    37 C    1.724    39 C    1.116    59 H    0.975
    39   6 C    3.928 --     1 C    1.367    40 N    1.300    38 C    1.116
    40   7 N    3.013 --    36 C    1.318    39 C    1.300
    41   1 H    1.002 --     1 C    0.970
    42   1 H    0.997 --     3 C    0.976
    43   1 H    1.004 --     4 C    0.974
    44   1 H    0.986 --     6 N    0.873
    45   1 H    1.004 --     9 C    0.971
    46   1 H    1.000 --    10 C    0.972
    47   1 H    1.000 --    14 C    0.972
    48   1 H    1.004 --    15 C    0.971
    49   1 H    1.004 --    17 C    0.973
    50   1 H    1.005 --    18 C    0.971
    51   1 H    1.005 --    23 C    0.972
    52   1 H    1.004 --    24 C    0.974
    53   1 H    0.987 --    26 N    0.873
    54   1 H    1.004 --    29 C    0.971
    55   1 H    1.000 --    30 C    0.972
    56   1 H    1.000 --    34 C    0.972
    57   1 H    1.004 --    35 C    0.971
    58   1 H    1.004 --    37 C    0.973
    59   1 H    0.998 --    38 C    0.975
    60   6 C    3.926 --    98 C    1.367    61 C    1.347   100 H    0.970
    61   6 C    3.901 --    60 C    1.347    62 C    1.229    65 N    1.169
    62   6 C    3.954 --    63 C    1.596    61 C    1.229   101 H    0.976
    63   6 C    3.959 --    62 C    1.596    64 C    1.233   102 H    0.974
    64   6 C    3.897 --    66 C    1.302    63 C    1.233    65 N    1.178
    65   7 N    3.470 --    64 C    1.178    61 C    1.169   103 H    0.873
    66   6 C    3.938 --    75 C    1.332    64 C    1.302    67 C    1.033
    67   6 C    3.963 --    74 C    1.384    68 C    1.384    66 C    1.033
    68   6 C    3.987 --    69 C    1.464    67 C    1.384   104 H    0.971
                            73 C    0.102
    69   6 C    3.993 --    68 C    1.464    70 C    1.364   105 H    0.972
                            74 C    0.102
    70   6 C    3.983 --    69 C    1.364    73 C    1.364    71 C    1.098
    71   6 C    3.958 --    72 N    2.820    70 C    1.098
    72   7 N    2.973 --    71 C    2.820
    73   6 C    3.993 --    74 C    1.464    70 C    1.364   106 H    0.972
                            68 C    0.102
    74   6 C    3.986 --    73 C    1.464    67 C    1.384   107 H    0.971
                            69 C    0.102
    75   6 C    3.915 --    66 C    1.332    78 N    1.289    76 C    1.125
    76   6 C    3.966 --    77 C    1.709    75 C    1.125   108 H    0.973
    77   6 C    3.964 --    76 C    1.709    79 C    1.128   109 H    0.972
    78   7 N    3.021 --    79 C    1.341    75 C    1.289
    79   6 C    3.914 --    78 N    1.341    80 C    1.261    77 C    1.128
    80   6 C    3.937 --    79 C    1.261    81 C    1.258   122 C    1.175
    81   6 C    3.890 --    80 C    1.258    82 C    1.248    85 N    1.187
    82   6 C    3.959 --    83 C    1.584    81 C    1.248   110 H    0.973
    83   6 C    3.955 --    82 C    1.584    84 C    1.240   111 H    0.974
    84   6 C    3.898 --    86 C    1.307    83 C    1.240    85 N    1.167
    85   7 N    3.474 --    81 C    1.187    84 C    1.167   112 H    0.873
    86   6 C    3.924 --    95 C    1.319    84 C    1.307    87 C    1.034
    87   6 C    3.963 --    94 C    1.385    88 C    1.383    86 C    1.034
    88   6 C    3.986 --    89 C    1.465    87 C    1.383   113 H    0.971
                            93 C    0.102
    89   6 C    3.993 --    88 C    1.465    90 C    1.363   114 H    0.972
                            94 C    0.102
    90   6 C    3.983 --    93 C    1.364    89 C    1.363    91 C    1.098
    91   6 C    3.958 --    92 N    2.820    90 C    1.098
    92   7 N    2.973 --    91 C    2.820
    93   6 C    3.993 --    94 C    1.464    90 C    1.364   115 H    0.972
                            88 C    0.102
    94   6 C    3.986 --    93 C    1.464    87 C    1.385   116 H    0.971
                            89 C    0.102
    95   6 C    3.928 --    86 C    1.319    99 N    1.319    96 C    1.116
    96   6 C    3.967 --    97 C    1.724    95 C    1.116   117 H    0.973
    97   6 C    3.966 --    96 C    1.724    98 C    1.116   118 H    0.975
    98   6 C    3.928 --    60 C    1.367    99 N    1.299    97 C    1.116
    99   7 N    3.012 --    95 C    1.319    98 C    1.299
   100   1 H    1.002 --    60 C    0.970
   101   1 H    0.997 --    62 C    0.976
   102   1 H    1.004 --    63 C    0.974
   103   1 H    0.986 --    65 N    0.873
   104   1 H    1.004 --    68 C    0.971
   105   1 H    1.000 --    69 C    0.972
   106   1 H    1.000 --    73 C    0.972
   107   1 H    1.004 --    74 C    0.971
   108   1 H    1.004 --    76 C    0.973
   109   1 H    1.005 --    77 C    0.972
   110   1 H    1.004 --    82 C    0.973
   111   1 H    1.004 --    83 C    0.974
   112   1 H    0.987 --    85 N    0.873
   113   1 H    1.004 --    88 C    0.971
   114   1 H    1.000 --    89 C    0.972
   115   1 H    1.000 --    93 C    0.972
   116   1 H    1.003 --    94 C    0.971
   117   1 H    1.004 --    96 C    0.973
   118   1 H    0.998 --    97 C    0.975
   119   6 C    3.928 --   120 C    2.579    21 C    1.171
   120   6 C    3.931 --   119 C    2.579   123 C    1.173
   121   6 C    3.932 --   122 C    2.576   143 C    1.176
   122   6 C    3.929 --   121 C    2.576    80 C    1.175
   123   6 C    3.926 --   161 C    1.263   124 C    1.255   120 C    1.173
   124   6 C    3.891 --   123 C    1.255   125 C    1.251   128 N    1.186
   125   6 C    3.956 --   126 C    1.579   124 C    1.251   163 H    0.972
   126   6 C    3.956 --   125 C    1.579   127 C    1.244   164 H    0.974
   127   6 C    3.894 --   129 C    1.299   126 C    1.244   128 N    1.169
   128   7 N    3.471 --   124 C    1.186   127 C    1.169   165 H    0.874
   129   6 C    3.927 --   138 C    1.336   127 C    1.299   130 C    1.030
   130   6 C    3.963 --   137 C    1.386   131 C    1.385   129 C    1.030
   131   6 C    3.987 --   132 C    1.464   130 C    1.385   166 H    0.971
                           136 C    0.102
   132   6 C    3.993 --   131 C    1.464   133 C    1.364   167 H    0.972
                           137 C    0.102
   133   6 C    3.984 --   136 C    1.365   132 C    1.364   134 C    1.098
   134   6 C    3.958 --   135 N    2.820   133 C    1.098
   135   7 N    2.973 --   134 C    2.820
   136   6 C    3.993 --   137 C    1.463   133 C    1.365   168 H    0.972
                           131 C    0.102
   137   6 C    3.987 --   136 C    1.463   130 C    1.386   169 H    0.971
                           132 C    0.102
   138   6 C    3.917 --   129 C    1.336   141 N    1.287   139 C    1.124
   139   6 C    3.966 --   140 C    1.710   138 C    1.124   170 H    0.973
   140   6 C    3.964 --   139 C    1.710   142 C    1.128   171 H    0.972
   141   7 N    3.010 --   142 C    1.341   138 C    1.287
   142   6 C    3.914 --   141 N    1.341   143 C    1.261   140 C    1.128
   143   6 C    3.926 --   142 C    1.261   144 C    1.255   121 C    1.176
   144   6 C    3.891 --   143 C    1.255   145 C    1.251   148 N    1.187
   145   6 C    3.956 --   146 C    1.579   144 C    1.251   172 H    0.973
   146   6 C    3.956 --   145 C    1.579   147 C    1.244   173 H    0.974
   147   6 C    3.894 --   149 C    1.300   146 C    1.244   148 N    1.168
   148   7 N    3.471 --   144 C    1.187   147 C    1.168   174 H    0.874
   149   6 C    3.926 --   158 C    1.334   147 C    1.300   150 C    1.031
   150   6 C    3.963 --   151 C    1.386   157 C    1.384   149 C    1.031
   151   6 C    3.987 --   152 C    1.463   150 C    1.386   175 H    0.971
                           156 C    0.102
   152   6 C    3.993 --   151 C    1.463   153 C    1.365   176 H    0.972
                           157 C    0.102
   153   6 C    3.984 --   152 C    1.365   156 C    1.364   154 C    1.098
   154   6 C    3.958 --   155 N    2.820   153 C    1.098
   155   7 N    2.973 --   154 C    2.820
   156   6 C    3.993 --   157 C    1.464   153 C    1.364   177 H    0.972
                           151 C    0.102
   157   6 C    3.987 --   156 C    1.464   150 C    1.384   178 H    0.971
                           152 C    0.102
   158   6 C    3.917 --   149 C    1.334   162 N    1.289   159 C    1.124
   159   6 C    3.966 --   160 C    1.710   158 C    1.124   179 H    0.973
   160   6 C    3.964 --   159 C    1.710   161 C    1.129   180 H    0.971
   161   6 C    3.915 --   162 N    1.338   123 C    1.263   160 C    1.129
   162   7 N    3.009 --   161 C    1.338   158 C    1.289
   163   1 H    1.004 --   125 C    0.972
   164   1 H    1.004 --   126 C    0.974
   165   1 H    0.987 --   128 N    0.874
   166   1 H    1.003 --   131 C    0.971
   167   1 H    1.000 --   132 C    0.972
   168   1 H    1.000 --   136 C    0.972
   169   1 H    1.003 --   137 C    0.971
   170   1 H    1.004 --   139 C    0.973
   171   1 H    1.005 --   140 C    0.972
   172   1 H    1.004 --   145 C    0.973
   173   1 H    1.004 --   146 C    0.974
   174   1 H    0.987 --   148 N    0.874
   175   1 H    1.003 --   151 C    0.971
   176   1 H    1.000 --   152 C    0.972
   177   1 H    1.000 --   156 C    0.972
   178   1 H    1.004 --   157 C    0.971
   179   1 H    1.004 --   159 C    0.973
   180   1 H    1.005 --   160 C    0.971
 ---------------------------------------------------------------------------

           -------------------------------------------------
          | TOTAL ENERGY             -311.296717527976 Eh   |
          | GRADIENT NORM               0.000795549314 Eh/α |
          | HOMO-LUMO GAP               0.875281733726 eV   |
           -------------------------------------------------

 * finished run on 2022/07/27 at 14:00:45.785
