   * xtb version 6.5.1 (b24c23e) compiled by 'conda@728c89f4b128' on 2022-07-12
          program call               : xtb Zn_DHP_C8_3.xyz --gfn 1 --opt -T 48

   ID    Z sym.   atoms
    1   30 Zn     1, 59, 133
    2    6 C      2-6, 8-11, 13-17, 19-24, 26-29, 31-36, 60-64, 66-69, 71-75,
                  77-82, 84-87, 89-94, 117-132, 134-138, 140-143, 145-149,
                  151-156, 158-161, 163-168
    3    7 N      7, 12, 18, 25, 30, 37, 65, 70, 76, 83, 88, 95, 139, 144,
                  150, 157, 162, 169
    4    1 H      38-58, 96-116, 170-189
########################################################################
[WARNING] Please study the warnings concerning your input carefully
-1- prog_main_parseArguments: Unknown option '-T' provided
########################################################################

          :  Hamiltonian                  GFN1-xTB          :
 * total energy  :  -315.5406020 Eh     change        0.3402079E-08 Eh
 * total energy  :  -316.0272206 Eh     change       -0.4866186E+00 Eh
 * total energy  :  -316.2049679 Eh     change       -0.1777473E+00 Eh
 * total energy  :  -316.2905314 Eh     change       -0.8556355E-01 Eh
 * total energy  :  -316.3435668 Eh     change       -0.5303539E-01 Eh
 * total energy  :  -316.3812105 Eh     change       -0.3764367E-01 Eh
 * total energy  :  -316.4100687 Eh     change       -0.2885821E-01 Eh
 * total energy  :  -316.4339443 Eh     change       -0.2387558E-01 Eh
 * total energy  :  -316.4554979 Eh     change       -0.2155360E-01 Eh
 * total energy  :  -316.4783297 Eh     change       -0.2283184E-01 Eh
 * total energy  :  -316.7967277 Eh     change       -0.1846324E-04 Eh
 * total energy  :  -316.7967397 Eh     change       -0.1203830E-04 Eh
 * total energy  :  -316.7967503 Eh     change       -0.1054830E-04 Eh
 * total energy  :  -316.7967612 Eh     change       -0.1091192E-04 Eh
 * total energy  :  -316.7967690 Eh     change       -0.7811597E-05 Eh
 * total energy  :  -316.7967757 Eh     change       -0.6703215E-05 Eh
 * total energy  :  -316.7967817 Eh     change       -0.6058496E-05 Eh
 * total energy  :  -316.7967919 Eh     change       -0.1019380E-04 Eh
 * total energy  :  -316.7967961 Eh     change       -0.4116583E-05 Eh
   *** GEOMETRY OPTIMIZATION CONVERGED AFTER 115 ITERATIONS ***

 final structure:
================
189
 xtb: 6.5.1 (b24c23e)
Zn          22.70524353584095        0.32080950947718        0.16853834298055
C           19.30573160062535        0.12457099298013       -0.01181870254189
C           19.99717186944407       -1.08100148255761       -0.03299753173281
C           19.38800099007384       -2.37983353811517       -0.09462567290743
C           20.39369589009876       -3.29050068427697       -0.09283172096355
C           21.63136214273202       -2.55843203381070       -0.04119345117667
N           21.35467412031842       -1.22281197953026        0.00371066267445
C           22.91173988372807       -3.12510364865913       -0.01756181309491
C           23.00609653240688       -4.60414952454856       -0.10440929349720
C           22.56951905496082       -5.27682403600232       -1.17944557320691
C           22.64028921842231       -6.77866483117634       -1.27833129145306
N           23.56494252266939       -7.33229587475946       -0.28525136578919
C           23.82697603210271       -6.65247564208055        0.87657857425496
C           23.60845174248433       -5.33195246907394        1.00388768569425
C           24.11334972772762       -2.41547733973234        0.08157159633492
C           25.42511127348740       -3.00119969350502        0.06509866726723
C           26.31942856658952       -1.98491067560543        0.16515457613995
N           24.23660711353929       -1.05480041000614        0.18079757494290
C           25.56461392146690       -0.76829439294600        0.23630957873039
C           26.12872062908692        0.51888644835068        0.34603545711319
C           25.41220441826759        1.73173277769945        0.39170169366284
C           26.01063211345450        3.02646286188439        0.53423431915669
C           24.99975512626755        3.93247007680451        0.53621711052066
C           23.77289054275113        3.19990702630621        0.38704379475394
N           24.06138003574162        1.86311802667391        0.30865176761045
C           22.49402205439000        3.76615052077003        0.35573140515424
C           22.40823046141672        5.24560671653474        0.44539209477288
C           21.78992660096742        5.85466813036872        1.46789937957969
C           21.67801568339206        7.35383328670520        1.56922455347206
N           22.62755712935390        8.01766494610104        0.67200041489979
C           23.08338809452791        7.38235588793965       -0.45418489209806
C           23.03255323161511        6.04643464077729       -0.59835828369405
C           21.29183276284611        3.05633473165499        0.24723720955366
C           19.97992995851361        3.64141818435043        0.16382954307757
C           19.09074281267828        2.62149652942808        0.06442896885671
C           19.84788960730755        1.40146144448772        0.07491926293557
N           21.17642221424201        1.69815357629144        0.18090759029391
H           18.22329413504488        0.06190293947447       -0.06921917248173
H           18.32475529204165       -2.56052269491756       -0.12619546389914
H           20.30947445946273       -4.36529426989822       -0.11312132819236
H           22.12588826113846       -4.77004748955023       -2.02860283489432
H           22.99507484444158       -7.07613134299765       -2.27437024344652
H           21.63358734285699       -7.21802926395576       -1.14591673028736
H           23.52931430714346       -8.33892775074295       -0.21315371865938
H           24.30194711617058       -7.24476991210972        1.65224560379733
H           23.86873016196437       -4.80222881734468        1.90931898957706
H           25.63309697932711       -4.05569112554240       -0.01998121859160
H           27.39605614225399       -2.04514895450594        0.18391210096206
H           27.06935103319057        3.21005322477047        0.62670802881329
H           25.07498159775248        5.00330482616567        0.63675564266242
H           21.32326817788896        5.29301255637382        2.26881543720088
H           21.89547147836044        7.68110656120779        2.59498187607773
H           20.64589745993013        7.67668353066573        1.33571432659076
H           22.48795737037947        9.01480564264092        0.59607506012180
H           23.56320969629120        8.03172960664257       -1.17956308469775
H           23.44276747075384        5.55747775675113       -1.47057873855002
H           19.77143858593183        4.69934400199173        0.16911233295251
H           18.01645052283885        2.67906276815643       -0.01755602387992
Zn          59.89072642539678        0.23286216308124        0.16405962719017
C           63.29703096931516        0.32835398959233        0.06154593530597
C           62.65136066235127        1.53939166012895        0.28160960564797
C           63.30886227772989        2.79774739794520        0.49643898098701
C           62.33743367830643        3.72748224935294        0.67730294822312
C           61.07299019328605        3.05043321109764        0.56251841111244
N           61.29957984886911        1.72440314055717        0.33280377948622
C           59.81366406442877        3.65035639530300        0.68590305249619
C           59.77386572698065        5.11747478550232        0.91034081342477
C           60.25740577669725        5.98320839471290        0.00727463443223
C           60.24209118011505        7.47391495089380        0.22659778301277
N           59.31130438885484        7.84186086713763        1.29695495885663
C           59.00148335415012        6.94508934226111        2.28713748619833
C           59.17311887125168        5.61986309259973        2.13824459760561
C           58.58561556934347        2.98385069758822        0.61554916385972
C           57.29666721895290        3.61320069056803        0.69563006896342
C           56.36410771098117        2.63499659367749        0.56899520217366
N           58.41098611090234        1.63757997146354        0.43166041164379
C           57.07249181095018        1.39960062658914        0.40442620736614
C           56.45957764096620        0.13951445717536        0.24955865553981
C           57.13027231712579       -1.08649978776161        0.06712803170723
C           56.48248947717527       -2.35926809383391       -0.05637320462143
C           57.45956200923563       -3.28713600108840       -0.22130288900107
C           58.71506953973524       -2.58865802097040       -0.20803559601910
N           58.47688067287302       -1.25245217237468       -0.02326345853410
C           59.97304748185218       -3.18717707243407       -0.33803818713862
C           60.00349484324443       -4.65700703812341       -0.54536416958490
C           60.58437338624604       -5.48263861943219        0.33761304252630
C           60.63929370494557       -6.97503034171973        0.13679099318179
N           59.68200737689116       -7.40905132661475       -0.88451269104897
C           59.26599412566089       -6.54243186259724       -1.86233392963127
C           59.36574762167000       -5.20785115521592       -1.73313627024209
C           61.20169111695093       -2.51672700326175       -0.29159534945931
C           62.49293577754774       -3.12338878102155       -0.47870426282454
C           63.41971533309865       -2.13904333896033       -0.36504486381417
C           62.70699380682985       -0.91742540323692       -0.11704092208647
N           61.36706010031318       -1.17791012642442       -0.08430874127008
H           64.38186284067031        0.35832272379576        0.02759902008932
H           64.37839747263553        2.93894255276258        0.51384203496079
H           62.46160109593077        4.77897133246353        0.88143114240958
H           60.70099980610023        5.64909386530089       -0.92344765731756
H           59.92419377436116        7.98825492262909       -0.69030490350166
H           61.25970961875105        7.83525920570901        0.46747690312747
H           59.37590992076061        8.80978746006507        1.57736397845179
H           58.52946934853825        7.37967511024792        3.16260181757193
H           58.87561253927255        4.92315989228112        2.90911902508153
H           57.12935926324553        4.67048187106906        0.82460139583786
H           55.29026631540658        2.73403756855724        0.57975813228290
H           55.41609910354364       -2.51528403209059       -0.01553204703540
H           57.34338354382661       -4.35293881921944       -0.33555677129358
H           61.06040606436697       -5.11240513202578        1.23818032193427
H           60.39241914074397       -7.49202464019511        1.07403927757999
H           61.66277001215004       -7.28492904297511       -0.14670132053288
H           59.79295774820245       -8.37353208550783       -1.16234070063387
H           58.77460454958129       -7.01346391464965       -2.70776490590927
H           58.98580416875702       -4.53842950432396       -2.49185469327443
H           62.66329829391741       -4.16842521188210       -0.68264083548325
H           64.49243196919213       -2.22016540293906       -0.44769869896609
C           27.53005761234109        0.59875483867109        0.41258571612451
C           28.75175654541837        0.66582827325985        0.46490585578309
C           30.09210310696346        0.72823464220230        0.51520155826685
C           31.32122386823352        0.77678022259406        0.55543124075519
C           32.65823676664096        0.81481137201774        0.59017266927662
C           33.88849032913207        0.83769400895747        0.61513074279665
C           35.23087422612897        0.84529268538546        0.63554171132823
C           36.45565099725894        0.83696770656872        0.64745090933682
C           46.12921737537577        0.35822439946627        0.51359599689559
C           47.35139157084796        0.28400181074541        0.48110400428537
C           48.69186146387253        0.21373979065683        0.44627188708094
C           49.92089147511619        0.15842068854572        0.41293299391478
C           51.25805826931156        0.11808843175792        0.37773561323973
C           52.48819383266500        0.09730891197746        0.34627303341252
C           53.83071748950054        0.09507890288953        0.31271179957774
C           55.05493223596820        0.10677081926653        0.28267238247746
Zn          41.29492176069175        0.65144855452910        0.61890232424909
C           37.85978783351480        0.80317143590336        0.65153331854078
C           38.52549702588255        1.52898921650606       -0.35740108111616
C           37.87329060034635        2.34065174497610       -1.34178252038816
C           38.84616316173544        2.86870512517945       -2.12826310873585
C           40.10184734953634        2.37296299259932       -1.63860170826991
N           39.87009216488671        1.56936708876692       -0.55367104200950
C           41.35666746698805        2.67270461168194       -2.17836875051357
C           41.39331023028532        3.54740312717278       -3.37782374373671
C           40.84009431357583        3.17349192929648       -4.54098662800682
C           40.91505339548995        4.02447992014278       -5.78162647405167
N           41.27660599177443        5.40626546094853       -5.45455046716351
C           41.98089463923568        5.69304198570058       -4.31415649973468
C           42.04804221907801        4.84348338696909       -3.27396612077575
C           42.58712000621600        2.21866746783990       -1.69106166087150
C           43.86371166151648        2.48625185614746       -2.29120754252652
C           44.80122105456801        1.86024798904482       -1.53398236881174
N           42.77084080492749        1.42765685519581       -0.58847068855408
C           44.10621839939364        1.20112613981339       -0.46822644980994
C           44.72755608166240        0.44534601364268        0.54682004996557
C           44.06493796059166       -0.22349054747722        1.59622280394653
C           44.72309450110760       -0.94289828661377        2.64589396669229
C           43.75265112449436       -1.43456555526792        3.45864786631066
C           42.49084925916677       -1.03038494986209        2.90470002614093
N           42.71877910340656       -0.28584746684134        1.77778256241100
C           41.23528142604297       -1.33724358096226        3.44057872239626
C           41.20187373099868       -2.18677817287126        4.65780198076043
C           41.66525651093924       -3.44535249385323        4.65424624013189
C           41.65556975123283       -4.31444704517894        5.88498044417992
N           40.75472109505231       -3.77535780093922        6.90769227052626
C           40.46432338322181       -2.43596033621312        6.94379285881733
C           40.62868168460076       -1.63393949910152        5.87706368321322
C           40.00284706625121       -0.91517615933082        2.92975614852533
C           38.71892565334267       -1.28478493264326        3.45591596213290
C           37.78000787161128       -0.69426478906165        2.67289294339984
C           38.48061826438236        0.03873672381866        1.66020314054433
N           39.82054368007051       -0.11387803029179        1.83423257884193
H           36.80740874886607        2.49009378854156       -1.41013780083901
H           38.72754534820574        3.54139565195287       -2.96233093147237
H           40.37235009120189        2.20362421278580       -4.66435982056050
H           41.64689605031753        3.59865528736947       -6.49380048680398
H           39.94087006608165        4.03959788141582       -6.28894474750060
H           41.48297533006368        5.97647575925163       -6.26197743312016
H           42.40699844413565        6.69081353931980       -4.28295599189279
H           42.54318592512979        5.11837134184619       -2.35344859029423
H           44.01983784910499        3.07004044202489       -3.18429065424824
H           45.86940469191492        1.83845424482071       -1.68094139723289
H           45.79180031193342       -1.04632785491554        2.74735579985078
H           43.87933080177490       -2.01091664979624        4.36083718643496
H           42.08804429077863       -3.89558943963798        3.76359308440571
H           42.67940716007116       -4.40900794908871        6.29316040074418
H           41.31301240085865       -5.32667818159849        5.63107737939328
H           40.82942952438633       -4.23937522070442        7.80145160097063
H           40.01354012851306       -2.09318697552791        7.86980015388524
H           40.34592173619168       -0.59122008802614        5.90696758434233
H           38.55811355349717       -1.92209234106727        4.31052848698295
H           36.70685774251850       -0.74805003741485        2.76505858147353

          :  Hamiltonian                  GFN1-xTB          :
         :: total energy            -316.796796053388 Eh    ::
         :: gradient norm              0.000484357607 Eh/a0 ::
         :: HOMO-LUMO gap              0.956428312227 eV    ::
         :: SCC energy              -322.058174120017 Eh    ::
         :: repulsion energy           5.424591906574 Eh    ::

    * Orbital Energies and Occupations

         #    Occupation            Energy/Eh            Energy/eV
      -------------------------------------------------------------
         1        2.0000           -0.7783718             -21.1806
       ...           ...                  ...                  ...
       279        2.0000           -0.3961592             -10.7800
       280        2.0000           -0.3863711             -10.5137
       281        2.0000           -0.3853767             -10.4866
       282        2.0000           -0.3851395             -10.4802
       283        2.0000           -0.3757312             -10.2242
       284        2.0000           -0.3740961             -10.1797
       285        2.0000           -0.3712867             -10.1032
       286        2.0000           -0.3683921             -10.0245
       287        2.0000           -0.3682826             -10.0215
       288        2.0000           -0.3680436             -10.0150
       289        2.0000           -0.3668876              -9.9835
       290        2.0000           -0.3664787              -9.9724
       291        2.0000           -0.3655140              -9.9461 (HOMO)
       292                         -0.3303659              -8.9897 (LUMO)
       293                         -0.3241520              -8.8206
       294                         -0.3223861              -8.7726
       295                         -0.3179007              -8.6505
       296                         -0.3173027              -8.6342
       297                         -0.3170519              -8.6274
       298                         -0.2994779              -8.1492
       299                         -0.2910229              -7.9191
       300                         -0.2907048              -7.9105
       301                         -0.2813104              -7.6548
       302                         -0.2769528              -7.5363
       ...                                ...                  ...
       632                          1.6159402              43.9720
      -------------------------------------------------------------
                  HL-Gap            0.0351481 Eh            0.9564 eV

Wiberg/Mayer (AO) data.
largest (>0.10) Wiberg bond orders for each atom

     #   Z sym  total        # sym  WBO       # sym  WBO       # sym  WBO
 ---------------------------------------------------------------------------
     1  30 Zn   2.000 --     7 N    0.460    37 N    0.460    25 N    0.457
                            18 N    0.457
     2   6 C    3.925 --    36 C    1.356     3 C    1.356    38 H    0.972
     3   6 C    3.924 --     2 C    1.356     7 N    1.233     4 C    1.172
     4   6 C    3.961 --     5 C    1.656     3 C    1.172    39 H    0.976
     5   6 C    3.964 --     4 C    1.656     6 C    1.174    40 H    0.974
     6   6 C    3.918 --     8 C    1.313     7 N    1.244     5 C    1.174
     7   7 N    3.294 --     6 C    1.244     3 C    1.233     1 Zn   0.460
     8   6 C    3.935 --    15 C    1.324     6 C    1.313     9 C    1.025
     9   6 C    3.988 --    10 C    1.769    14 C    1.097     8 C    1.025
    10   6 C    3.971 --     9 C    1.769    11 C    1.012    41 H    0.972
    11   6 C    3.961 --    10 C    1.012    42 H    0.976    43 H    0.967
                            12 N    0.949
    12   7 N    3.246 --    13 C    1.159    11 C    0.949    44 H    0.928
                            14 C    0.127
    13   6 C    3.958 --    14 C    1.693    12 N    1.159    45 H    0.971
    14   6 C    3.968 --    13 C    1.693     9 C    1.097    46 H    0.974
                            12 N    0.127
    15   6 C    3.912 --     8 C    1.324    18 N    1.224    16 C    1.180
    16   6 C    3.960 --    17 C    1.646    15 C    1.180    47 H    0.972
    17   6 C    3.962 --    16 C    1.646    19 C    1.186    48 H    0.974
    18   7 N    3.298 --    19 C    1.263    15 C    1.224     1 Zn   0.457
    19   6 C    3.902 --    18 N    1.263    20 C    1.253    17 C    1.186
    20   6 C    3.938 --    21 C    1.253    19 C    1.253   117 C    1.192
    21   6 C    3.902 --    25 N    1.263    20 C    1.253    22 C    1.186
    22   6 C    3.962 --    23 C    1.646    21 C    1.186    49 H    0.974
    23   6 C    3.960 --    22 C    1.646    24 C    1.180    50 H    0.973
    24   6 C    3.912 --    26 C    1.324    25 N    1.224    23 C    1.180
    25   7 N    3.298 --    21 C    1.263    24 C    1.224     1 Zn   0.457
    26   6 C    3.935 --    24 C    1.324    33 C    1.314    27 C    1.025
    27   6 C    3.988 --    28 C    1.769    32 C    1.097    26 C    1.025
    28   6 C    3.971 --    27 C    1.769    29 C    1.012    51 H    0.972
    29   6 C    3.961 --    28 C    1.012    52 H    0.976    53 H    0.967
                            30 N    0.949
    30   7 N    3.247 --    31 C    1.160    29 C    0.949    54 H    0.928
                            32 C    0.127
    31   6 C    3.958 --    32 C    1.692    30 N    1.160    55 H    0.971
    32   6 C    3.968 --    31 C    1.692    27 C    1.097    56 H    0.974
                            30 N    0.127
    33   6 C    3.918 --    26 C    1.314    37 N    1.244    34 C    1.174
    34   6 C    3.964 --    35 C    1.656    33 C    1.174    57 H    0.974
    35   6 C    3.961 --    34 C    1.656    36 C    1.172    58 H    0.976
    36   6 C    3.924 --     2 C    1.356    37 N    1.233    35 C    1.172
    37   7 N    3.294 --    33 C    1.244    36 C    1.233     1 Zn   0.460
    38   1 H    1.002 --     2 C    0.972
    39   1 H    0.999 --     4 C    0.976
    40   1 H    1.007 --     5 C    0.974
    41   1 H    1.003 --    10 C    0.972
    42   1 H    1.019 --    11 C    0.976
    43   1 H    1.008 --    11 C    0.967
    44   1 H    0.964 --    12 N    0.928
    45   1 H    1.001 --    13 C    0.971
    46   1 H    1.003 --    14 C    0.974
    47   1 H    1.006 --    16 C    0.972
    48   1 H    1.002 --    17 C    0.974
    49   1 H    1.002 --    22 C    0.974
    50   1 H    1.006 --    23 C    0.973
    51   1 H    1.003 --    28 C    0.972
    52   1 H    1.019 --    29 C    0.976
    53   1 H    1.008 --    29 C    0.967
    54   1 H    0.964 --    30 N    0.928
    55   1 H    1.001 --    31 C    0.971
    56   1 H    1.003 --    32 C    0.974
    57   1 H    1.007 --    34 C    0.974
    58   1 H    0.999 --    35 C    0.976
    59  30 Zn   2.000 --    95 N    0.460    65 N    0.459    76 N    0.457
                            83 N    0.457
    60   6 C    3.925 --    94 C    1.356    61 C    1.356    96 H    0.972
    61   6 C    3.924 --    60 C    1.356    65 N    1.233    62 C    1.172
    62   6 C    3.961 --    63 C    1.657    61 C    1.172    97 H    0.976
    63   6 C    3.964 --    62 C    1.657    64 C    1.174    98 H    0.974
    64   6 C    3.918 --    66 C    1.314    65 N    1.244    63 C    1.174
    65   7 N    3.294 --    64 C    1.244    61 C    1.233    59 Zn   0.459
    66   6 C    3.935 --    73 C    1.324    64 C    1.314    67 C    1.025
    67   6 C    3.988 --    68 C    1.769    72 C    1.097    66 C    1.025
    68   6 C    3.971 --    67 C    1.769    69 C    1.012    99 H    0.972
    69   6 C    3.961 --    68 C    1.012   100 H    0.976   101 H    0.967
                            70 N    0.949
    70   7 N    3.246 --    71 C    1.159    69 C    0.949   102 H    0.928
                            72 C    0.127
    71   6 C    3.958 --    72 C    1.693    70 N    1.159   103 H    0.971
    72   6 C    3.968 --    71 C    1.693    67 C    1.097   104 H    0.974
                            70 N    0.127
    73   6 C    3.912 --    66 C    1.324    76 N    1.224    74 C    1.180
    74   6 C    3.960 --    75 C    1.646    73 C    1.180   105 H    0.973
    75   6 C    3.962 --    74 C    1.646    77 C    1.186   106 H    0.974
    76   7 N    3.298 --    77 C    1.263    73 C    1.224    59 Zn   0.457
    77   6 C    3.902 --    76 N    1.263    78 C    1.253    75 C    1.186
    78   6 C    3.938 --    79 C    1.254    77 C    1.253   132 C    1.191
    79   6 C    3.902 --    83 N    1.263    78 C    1.254    80 C    1.186
    80   6 C    3.962 --    81 C    1.646    79 C    1.186   107 H    0.974
    81   6 C    3.960 --    80 C    1.646    82 C    1.180   108 H    0.973
    82   6 C    3.912 --    84 C    1.324    83 N    1.224    81 C    1.180
    83   7 N    3.297 --    79 C    1.263    82 C    1.224    59 Zn   0.457
    84   6 C    3.935 --    82 C    1.324    91 C    1.314    85 C    1.025
    85   6 C    3.988 --    86 C    1.769    90 C    1.097    84 C    1.025
    86   6 C    3.971 --    85 C    1.769    87 C    1.013   109 H    0.972
    87   6 C    3.961 --    86 C    1.013   110 H    0.976   111 H    0.967
                            88 N    0.949
    88   7 N    3.246 --    89 C    1.159    87 C    0.949   112 H    0.928
                            90 C    0.127
    89   6 C    3.958 --    90 C    1.693    88 N    1.159   113 H    0.971
    90   6 C    3.968 --    89 C    1.693    85 C    1.097   114 H    0.974
                            88 N    0.127
    91   6 C    3.918 --    84 C    1.314    95 N    1.243    92 C    1.174
    92   6 C    3.964 --    93 C    1.656    91 C    1.174   115 H    0.974
    93   6 C    3.961 --    92 C    1.656    94 C    1.172   116 H    0.976
    94   6 C    3.924 --    60 C    1.356    95 N    1.233    93 C    1.172
    95   7 N    3.294 --    91 C    1.243    94 C    1.233    59 Zn   0.460
    96   1 H    1.002 --    60 C    0.972
    97   1 H    0.999 --    62 C    0.976
    98   1 H    1.007 --    63 C    0.974
    99   1 H    1.003 --    68 C    0.972
   100   1 H    1.019 --    69 C    0.976
   101   1 H    1.008 --    69 C    0.967
   102   1 H    0.964 --    70 N    0.928
   103   1 H    1.001 --    71 C    0.971
   104   1 H    1.003 --    72 C    0.974
   105   1 H    1.006 --    74 C    0.973
   106   1 H    1.002 --    75 C    0.974
   107   1 H    1.002 --    80 C    0.974
   108   1 H    1.006 --    81 C    0.973
   109   1 H    1.003 --    86 C    0.972
   110   1 H    1.019 --    87 C    0.976
   111   1 H    1.008 --    87 C    0.967
   112   1 H    0.964 --    88 N    0.928
   113   1 H    1.001 --    89 C    0.971
   114   1 H    1.003 --    90 C    0.974
   115   1 H    1.007 --    92 C    0.974
   116   1 H    0.999 --    93 C    0.976
   117   6 C    3.875 --   118 C    2.438    20 C    1.192   120 C    0.186
   118   6 C    3.934 --   117 C    2.438   119 C    1.343
   119   6 C    3.891 --   120 C    2.336   118 C    1.343   122 C    0.182
   120   6 C    3.924 --   119 C    2.336   121 C    1.368   117 C    0.186
   121   6 C    3.923 --   122 C    2.335   120 C    1.368   124 C    0.186
   122   6 C    3.892 --   121 C    2.335   123 C    1.344   119 C    0.182
   123   6 C    3.931 --   124 C    2.436   122 C    1.344
   124   6 C    3.876 --   123 C    2.436   134 C    1.194   121 C    0.186
   125   6 C    3.876 --   126 C    2.436   152 C    1.194   128 C    0.186
   126   6 C    3.931 --   125 C    2.436   127 C    1.344
   127   6 C    3.892 --   128 C    2.336   126 C    1.344   130 C    0.182
   128   6 C    3.923 --   127 C    2.336   129 C    1.368   125 C    0.186
   129   6 C    3.924 --   130 C    2.337   128 C    1.368   132 C    0.186
   130   6 C    3.891 --   129 C    2.337   131 C    1.343   127 C    0.182
   131   6 C    3.934 --   132 C    2.439   130 C    1.343
   132   6 C    3.876 --   131 C    2.439    78 C    1.191   129 C    0.186
   133  30 Zn   1.997 --   169 N    0.458   150 N    0.457   139 N    0.456
                           157 N    0.456
   134   6 C    3.926 --   168 C    1.252   135 C    1.250   124 C    1.194
   135   6 C    3.904 --   139 N    1.264   134 C    1.250   136 C    1.189
   136   6 C    3.961 --   137 C    1.643   135 C    1.189   170 H    0.974
   137   6 C    3.961 --   136 C    1.643   138 C    1.182   171 H    0.974
   138   6 C    3.911 --   140 C    1.322   139 N    1.223   137 C    1.182
   139   7 N    3.292 --   135 C    1.264   138 C    1.223   133 Zn   0.456
   140   6 C    3.930 --   138 C    1.322   147 C    1.318   141 C    1.023
   141   6 C    3.988 --   142 C    1.768   146 C    1.099   140 C    1.023
   142   6 C    3.972 --   141 C    1.768   143 C    1.013   172 H    0.972
   143   6 C    3.961 --   142 C    1.013   174 H    0.975   173 H    0.967
                           144 N    0.949
   144   7 N    3.249 --   145 C    1.161   143 C    0.949   175 H    0.928
                           146 C    0.127
   145   6 C    3.958 --   146 C    1.691   144 N    1.161   176 H    0.971
   146   6 C    3.967 --   145 C    1.691   141 C    1.099   177 H    0.973
                           144 N    0.127
   147   6 C    3.909 --   140 C    1.318   150 N    1.224   148 C    1.183
   148   6 C    3.961 --   149 C    1.642   147 C    1.183   178 H    0.973
   149   6 C    3.960 --   148 C    1.642   151 C    1.189   179 H    0.974
   150   7 N    3.292 --   151 C    1.263   147 C    1.224   133 Zn   0.457
   151   6 C    3.903 --   150 N    1.263   152 C    1.251   149 C    1.189
   152   6 C    3.926 --   151 C    1.251   153 C    1.250   125 C    1.194
   153   6 C    3.905 --   157 N    1.263   152 C    1.250   154 C    1.189
   154   6 C    3.961 --   155 C    1.642   153 C    1.189   180 H    0.974
   155   6 C    3.961 --   154 C    1.642   156 C    1.182   181 H    0.974
   156   6 C    3.911 --   158 C    1.320   157 N    1.224   155 C    1.182
   157   7 N    3.291 --   153 C    1.263   156 C    1.224   133 Zn   0.456
   158   6 C    3.931 --   156 C    1.320   165 C    1.319   159 C    1.025
   159   6 C    3.988 --   160 C    1.769   164 C    1.097   158 C    1.025
   160   6 C    3.972 --   159 C    1.769   161 C    1.013   182 H    0.972
   161   6 C    3.961 --   160 C    1.013   184 H    0.976   183 H    0.966
                           162 N    0.949
   162   7 N    3.247 --   163 C    1.160   161 C    0.949   185 H    0.928
                           164 C    0.127
   163   6 C    3.958 --   164 C    1.692   162 N    1.160   186 H    0.971
   164   6 C    3.968 --   163 C    1.692   159 C    1.097   187 H    0.974
                           162 N    0.127
   165   6 C    3.909 --   158 C    1.319   169 N    1.224   166 C    1.182
   166   6 C    3.961 --   167 C    1.644   165 C    1.182   188 H    0.973
   167   6 C    3.960 --   166 C    1.644   168 C    1.188   189 H    0.974
   168   6 C    3.902 --   169 N    1.263   134 C    1.252   167 C    1.188
   169   7 N    3.293 --   168 C    1.263   165 C    1.224   133 Zn   0.458
   170   1 H    1.002 --   136 C    0.974
   171   1 H    1.007 --   137 C    0.974
   172   1 H    1.003 --   142 C    0.972
   173   1 H    1.009 --   143 C    0.967
   174   1 H    1.018 --   143 C    0.975
   175   1 H    0.964 --   144 N    0.928
   176   1 H    1.002 --   145 C    0.971
   177   1 H    1.003 --   146 C    0.973
   178   1 H    1.005 --   148 C    0.973
   179   1 H    1.002 --   149 C    0.974
   180   1 H    1.002 --   154 C    0.974
   181   1 H    1.007 --   155 C    0.974
   182   1 H    1.003 --   160 C    0.972
   183   1 H    1.008 --   161 C    0.966
   184   1 H    1.019 --   161 C    0.976
   185   1 H    0.964 --   162 N    0.928
   186   1 H    1.001 --   163 C    0.971
   187   1 H    1.003 --   164 C    0.974
   188   1 H    1.006 --   166 C    0.973
   189   1 H    1.002 --   167 C    0.974
 ---------------------------------------------------------------------------

           -------------------------------------------------
          | TOTAL ENERGY             -316.796796053388 Eh   |
          | GRADIENT NORM               0.000484357607 Eh/α |
          | HOMO-LUMO GAP               0.956428312227 eV   |
           -------------------------------------------------

 * finished run on 2022/07/30 at 08:32:25.074
