   * xtb version 6.5.1 (b24c23e) compiled by 'conda@728c89f4b128' on 2022-07-12
          program call               : xtb Cu_H_C2_3.xyz --gfn 1 --opt -T 48

   ID    Z sym.   atoms
    1   29 Cu     1, 37, 77
    2    6 C      2-6, 8-11, 13-18, 20-24, 38-42, 44-47, 49-54, 56-60, 73-76,
                  78-82, 84-87, 89-94, 96-100
    3    7 N      7, 12, 19, 25, 43, 48, 55, 61, 83, 88, 95, 101
    4    1 H      26-36, 62-72, 102-111

          :  Hamiltonian                  GFN1-xTB          :
 * total energy  :  -203.4509359 Eh     change        0.5411493E-09 Eh
 * total energy  :  -203.9106934 Eh     change       -0.4597575E+00 Eh
 * total energy  :  -204.0665236 Eh     change       -0.1558303E+00 Eh
 * total energy  :  -204.1794348 Eh     change       -0.1129112E+00 Eh
 * total energy  :  -204.2270667 Eh     change       -0.4763188E-01 Eh
 * total energy  :  -204.2471752 Eh     change       -0.2010851E-01 Eh
 * total energy  :  -204.2584398 Eh     change       -0.1126464E-01 Eh
 * total energy  :  -204.2643726 Eh     change       -0.5932778E-02 Eh
 * total energy  :  -204.2690060 Eh     change       -0.4633421E-02 Eh
 * total energy  :  -204.2734462 Eh     change       -0.4440130E-02 Eh
 * total energy  :  -204.2927280 Eh     change       -0.1280310E-04 Eh
 * total energy  :  -204.2927411 Eh     change       -0.1310991E-04 Eh
 * total energy  :  -204.2927540 Eh     change       -0.1283569E-04 Eh
 * total energy  :  -204.2927650 Eh     change       -0.1108189E-04 Eh
 * total energy  :  -204.2927742 Eh     change       -0.9113279E-05 Eh
 * total energy  :  -204.2927821 Eh     change       -0.7900456E-05 Eh
 * total energy  :  -204.2927891 Eh     change       -0.7052884E-05 Eh
 * total energy  :  -204.2927943 Eh     change       -0.5209858E-05 Eh
 * total energy  :  -204.2927958 Eh     change       -0.1516443E-05 Eh
   *** GEOMETRY OPTIMIZATION CONVERGED AFTER 68 ITERATIONS ***

 final structure:
================
111
 xtb: 6.5.1 (b24c23e)
Cu          18.68889122827480       -0.02636830762545       -0.02006711936002
C           15.26228364380611       -0.03572073977434       -0.03451689109911
C           15.89807106611206       -0.81560061256256       -0.99003281619047
C           15.23105748763602       -1.62216405674171       -1.97537731457951
C           16.19612290885614       -2.21890708502119       -2.71820940172346
C           17.46041632154061       -1.78252860570565       -2.19220057002405
N           17.24865100252908       -0.93349558248057       -1.14516584569503
C           18.70200909764631       -2.16367745217584       -2.67951546480665
C           19.93719498327215       -1.76380332402406       -2.19112675441030
C           21.20184202333144       -2.17170364119260       -2.73193680877569
C           22.16252117503541       -1.57163611193958       -1.98431848040712
N           20.14620261437700       -0.92698025497656       -1.12815908227955
C           21.49257802054870       -0.79746092295027       -0.97976597418035
C           22.13999179841027       -0.02255511283177       -0.00112119136357
C           21.48083810354714        0.75200341321719        0.96979027277788
C           22.13808252159093        1.52858987064376        1.98085243860201
C           21.16789160011590        2.12808236261930        2.71665135995157
C           19.91010931527789        1.71737334289783        2.16201036748622
N           20.13264129150889        0.87959522231445        1.10261548525701
C           18.66851042782687        2.11467942737392        2.63615915584288
C           17.43325241804558        1.72724954075116        2.13774054595121
C           16.16222091848116        2.15770922395596        2.65229249974765
C           15.20664475005348        1.55324088490980        1.90347347796567
C           15.88621255342771        0.74868809781524        0.92512675474908
N           17.23483114231980        0.87480105287283        1.09078949315052
H           14.17722933392650       -0.03908058374412       -0.03844728466791
H           14.16016916304664       -1.70958980111637       -2.07267933032266
H           16.07924776970816       -2.89613497356760       -3.54984589198534
H           18.70877082275441       -2.84069860243734       -3.52767886296533
H           21.32497329703325       -2.83045925756314       -3.57715057858755
H           23.23250772931035       -1.63650442736176       -2.09875653403465
H           23.20666462753072        1.59533144485347        2.10727627299709
H           21.28026696207206        2.78780035928454        3.56263522006578
H           18.66402159965260        2.79365020891679        3.48278967312073
H           16.03466982175508        2.83629686616261        3.48124079149203
H           14.13450170833247        1.63422895285356        1.99219300110874
Cu          40.58220793504952        0.01097067204500       -0.01316587393162
C           44.00837909675302        0.02721473633902        0.00406256554754
C           43.37248048020196        1.25739525255663        0.09231365985650
C           44.03946491231622        2.52685103167252        0.19207449762393
C           43.07441760932557        3.47770404307202        0.25381150527303
C           41.81012441609359        2.79694523480442        0.19294889803362
N           42.02192823734086        1.45242456268109        0.09552379097760
C           40.56859859883492        3.41499392714275        0.22487792754637
C           39.33343924373909        2.78592198973190        0.17200330399907
C           38.06845906309638        3.46241723317451        0.19664043151407
C           37.10808464272562        2.50596890130985        0.12669736186857
N           39.12503666254956        1.43563268455862        0.08851270446706
C           37.77881660678715        1.23966390725640        0.06246845796041
C           37.13234089994373       -0.00589364229546       -0.02305155130257
C           37.79096562808926       -1.24510982100200       -0.10698079345899
C           37.13290876126606       -2.51779619352070       -0.17625239294834
C           38.10298430706081       -3.46469350949606       -0.24270884706956
C           39.36119949847891       -2.77595745418158       -0.20988746687522
N           39.13914514579639       -1.42790301857794       -0.12610176127409
C           40.60289270672813       -3.39274231389915       -0.25436538863169
C           41.83804779953314       -2.76274876809172       -0.21026433607737
C           43.10927854090443       -3.43153943158620       -0.25808757325178
C           44.06463979043762       -2.47178730576743       -0.18466345314903
C           43.38476134373529       -1.20870001327522       -0.09145270251649
N           42.03618125834699       -1.41636108703383       -0.10951239004099
H           45.09342104125630        0.03213823432899        0.01011467055390
H           45.11033703787883        2.65643387999252        0.21122977311220
H           43.19131241489669        4.54719441437825        0.33410985087001
H           40.56197472611845        4.49781454237459        0.29723151158868
H           37.94497690722962        4.53230222921709        0.25689340158643
H           36.03794093132641        2.63636490832550        0.11285318991279
H           36.06396548633318       -2.65852800017041       -0.16866721104766
H           37.99029407276672       -4.53565735832102       -0.30500099572809
H           40.60757422936772       -4.47547486213383       -0.32821515945775
H           43.23708293780386       -4.49981811355079       -0.33781934578939
H           45.13682777373456       -2.59130012876715       -0.19172488587409
C           23.55093397172725       -0.02207829979296        0.00538344584487
C           24.76755580173128       -0.02432874369625        0.00745238778573
C           34.50492704771933       -0.01714581470738       -0.02119844401955
C           35.72140486746628       -0.01207630953578       -0.02341852042742
Cu          29.63668346945913       -0.02168714267988       -0.00565808476442
C           26.17810377681100       -0.02489959055656        0.00668911934963
C           26.83332695268924        1.07455852850751        0.58981969430895
C           26.17209723513076        2.20760951182641        1.16985134229357
C           27.13976592384148        3.04266141040444        1.62679033484219
C           28.39899014934369        2.42608835374048        1.32363337727253
N           28.18041068153188        1.23214616390425        0.69162291777568
C           29.63961379201704        2.96318607127981        1.63350596479811
C           30.87919224760329        2.41150853514626        1.34585123060334
C           32.13972225501706        2.99450761858320        1.70499049723111
C           33.10562114326748        2.15909450302196        1.24492618201327
N           31.09510376600804        1.23797089844866        0.67597357532993
C           32.44178212577424        1.06439037283567        0.59796592974983
C           33.09440784258527       -0.01896108852674       -0.01693956610029
C           32.43970391352556       -1.10366519031206       -0.62709715337316
C           33.10124447972518       -2.19847914908640       -1.27623197320138
C           32.13371475162166       -3.03586384204427       -1.72932139428289
C           30.87453707948788       -2.45419396174100       -1.36322810767143
N           31.09283586879355       -1.27916822917130       -0.69676293371290
C           29.63392359875858       -3.00898384099689       -1.64028415159384
C           28.39458773463276       -2.47436406474247       -1.32098216785111
C           27.13454979132745       -3.09541390467149       -1.61119228553061
C           26.16855233459043       -2.26148651829982       -1.14869029391962
C           26.83147908120127       -1.12452994215325       -0.57840023491622
N           28.17811217301592       -1.27912546494884       -0.69063109404789
H           25.10308242914745        2.34072196180795        1.21235428197323
H           27.02441297000878        3.99373797600553        2.12245013958258
H           29.64051442709893        3.91451725297008        2.15613746973745
H           32.25707696510467        3.92158360909375        2.24376589828756
H           34.17488784596788        2.26276935040460        1.33634609000817
H           34.17019601340510       -2.30117358559129       -1.37289231569065
H           32.24910109271033       -3.96379732272553       -2.26707347366173
H           29.63271266815969       -3.96124177534953       -2.16122717714107
H           27.01751155474657       -4.04881759220658       -2.10196263797366
H           25.09969618458418       -2.39855092347167       -1.18020185548832

          :  Hamiltonian                  GFN1-xTB          :
         :: total energy            -204.292795833548 Eh    ::
         :: gradient norm              0.000213078597 Eh/a0 ::
         :: HOMO-LUMO gap              0.000416781663 eV    ::
         :: SCC energy              -207.348911679720 Eh    ::
         :: repulsion energy           3.156727522195 Eh    ::

    * Orbital Energies and Occupations

         #    Occupation            Energy/Eh            Energy/eV
      -------------------------------------------------------------
         1        2.0000           -0.7633274             -20.7712
       ...           ...                  ...                  ...
       179        2.0000           -0.4073627             -11.0849
       180        2.0000           -0.4073180             -11.0837
       181        2.0000           -0.4069088             -11.0726
       182        2.0000           -0.4068155             -11.0700
       183        2.0000           -0.4065021             -11.0615
       184        2.0000           -0.3982801             -10.8378
       185        2.0000           -0.3948058             -10.7432
       186        2.0000           -0.3948011             -10.7431
       187        2.0000           -0.3945175             -10.7354
       188        2.0000           -0.3891815             -10.5902
       189        2.0000           -0.3786614             -10.3039
       190        1.0256           -0.3545051              -9.6466
       191        0.9908           -0.3544305              -9.6445 (HOMO)
       192        0.9836           -0.3544152              -9.6441 (LUMO)
       193        0.0000           -0.3403307              -9.2609
       194                         -0.3294539              -8.9649
       195                         -0.3268691              -8.8946
       196                         -0.3268638              -8.8944
       197                         -0.3263731              -8.8811
       198                         -0.3187460              -8.6735
       199                         -0.2965840              -8.0705
       200                         -0.2888621              -7.8603
       201                         -0.2840396              -7.7291
       202                         -0.2256593              -6.1405
       ...                                ...                  ...
       395                          1.3418930              36.5148
      -------------------------------------------------------------
                  HL-Gap            0.0000153 Eh            0.0004 eV

Wiberg/Mayer (AO) data.
largest (>0.10) Wiberg bond orders for each atom

     #   Z sym  total        # sym  WBO       # sym  WBO       # sym  WBO
 ---------------------------------------------------------------------------
     1  29 Cu   2.195 --    25 N    0.507     7 N    0.507    12 N    0.505
                            19 N    0.504
     2   6 C    3.935 --    24 C    1.362     3 C    1.362    26 H    0.972
     3   6 C    3.917 --     2 C    1.362     7 N    1.234     4 C    1.166
     4   6 C    3.955 --     5 C    1.662     3 C    1.166    27 H    0.976
     5   6 C    3.957 --     4 C    1.662     6 C    1.166    28 H    0.976
     6   6 C    3.915 --     8 C    1.361     7 N    1.233     5 C    1.166
     7   7 N    3.247 --     3 C    1.234     6 C    1.233     1 Cu   0.507
     8   6 C    3.940 --     9 C    1.366     6 C    1.361    29 H    0.971
     9   6 C    3.910 --     8 C    1.366    12 N    1.218    10 C    1.174
    10   6 C    3.954 --    11 C    1.648     9 C    1.174    30 H    0.976
    11   6 C    3.957 --    10 C    1.648    13 C    1.182    31 H    0.970
    12   7 N    3.252 --    13 C    1.258     9 C    1.218     1 Cu   0.505
    13   6 C    3.903 --    14 C    1.266    12 N    1.258    11 C    1.182
    14   6 C    3.945 --    15 C    1.266    13 C    1.266    73 C    1.172
    15   6 C    3.903 --    14 C    1.266    19 N    1.258    16 C    1.182
    16   6 C    3.957 --    17 C    1.648    15 C    1.182    32 H    0.970
    17   6 C    3.954 --    16 C    1.648    18 C    1.174    33 H    0.976
    18   6 C    3.910 --    20 C    1.366    19 N    1.219    17 C    1.174
    19   7 N    3.251 --    15 C    1.258    18 C    1.219     1 Cu   0.504
    20   6 C    3.940 --    18 C    1.366    21 C    1.361    34 H    0.971
    21   6 C    3.915 --    20 C    1.361    25 N    1.233    22 C    1.166
    22   6 C    3.957 --    23 C    1.662    21 C    1.166    35 H    0.976
    23   6 C    3.955 --    22 C    1.662    24 C    1.166    36 H    0.976
    24   6 C    3.917 --     2 C    1.362    25 N    1.234    23 C    1.166
    25   7 N    3.247 --    24 C    1.234    21 C    1.233     1 Cu   0.507
    26   1 H    1.001 --     2 C    0.972
    27   1 H    0.998 --     4 C    0.976
    28   1 H    0.998 --     5 C    0.976
    29   1 H    1.002 --     8 C    0.971
    30   1 H    0.998 --    10 C    0.976
    31   1 H    1.006 --    11 C    0.970
    32   1 H    1.005 --    16 C    0.970
    33   1 H    0.998 --    17 C    0.976
    34   1 H    1.002 --    20 C    0.971
    35   1 H    0.998 --    22 C    0.976
    36   1 H    0.998 --    23 C    0.976
    37  29 Cu   2.195 --    61 N    0.507    43 N    0.507    48 N    0.504
                            55 N    0.504
    38   6 C    3.935 --    60 C    1.362    39 C    1.362    62 H    0.972
    39   6 C    3.917 --    38 C    1.362    43 N    1.234    40 C    1.166
    40   6 C    3.955 --    41 C    1.662    39 C    1.166    63 H    0.976
    41   6 C    3.957 --    40 C    1.662    42 C    1.166    64 H    0.976
    42   6 C    3.915 --    44 C    1.361    43 N    1.233    41 C    1.166
    43   7 N    3.247 --    39 C    1.234    42 C    1.233    37 Cu   0.507
    44   6 C    3.940 --    45 C    1.366    42 C    1.361    65 H    0.971
    45   6 C    3.910 --    44 C    1.366    48 N    1.219    46 C    1.174
    46   6 C    3.954 --    47 C    1.648    45 C    1.174    66 H    0.976
    47   6 C    3.957 --    46 C    1.648    49 C    1.182    67 H    0.971
    48   7 N    3.252 --    49 C    1.258    45 C    1.219    37 Cu   0.504
    49   6 C    3.903 --    50 C    1.267    48 N    1.258    47 C    1.182
    50   6 C    3.945 --    51 C    1.267    49 C    1.267    76 C    1.171
    51   6 C    3.903 --    50 C    1.267    55 N    1.258    52 C    1.182
    52   6 C    3.957 --    53 C    1.648    51 C    1.182    68 H    0.971
    53   6 C    3.954 --    52 C    1.648    54 C    1.174    69 H    0.976
    54   6 C    3.910 --    56 C    1.366    55 N    1.219    53 C    1.174
    55   7 N    3.251 --    51 C    1.258    54 C    1.219    37 Cu   0.504
    56   6 C    3.940 --    54 C    1.366    57 C    1.361    70 H    0.971
    57   6 C    3.915 --    56 C    1.361    61 N    1.233    58 C    1.166
    58   6 C    3.957 --    59 C    1.662    57 C    1.166    71 H    0.976
    59   6 C    3.955 --    58 C    1.662    60 C    1.166    72 H    0.976
    60   6 C    3.917 --    38 C    1.362    61 N    1.234    59 C    1.166
    61   7 N    3.247 --    60 C    1.234    57 C    1.233    37 Cu   0.507
    62   1 H    1.001 --    38 C    0.972
    63   1 H    0.998 --    40 C    0.976
    64   1 H    0.998 --    41 C    0.976
    65   1 H    1.002 --    44 C    0.971
    66   1 H    0.998 --    46 C    0.976
    67   1 H    1.005 --    47 C    0.971
    68   1 H    1.005 --    52 C    0.971
    69   1 H    0.998 --    53 C    0.976
    70   1 H    1.002 --    56 C    0.971
    71   1 H    0.998 --    58 C    0.976
    72   1 H    0.998 --    59 C    0.976
    73   6 C    3.934 --    74 C    2.584    14 C    1.172
    74   6 C    3.936 --    73 C    2.584    78 C    1.174
    75   6 C    3.936 --    76 C    2.584    90 C    1.173
    76   6 C    3.934 --    75 C    2.584    50 C    1.171
    77  29 Cu   2.166 --   101 N    0.499    88 N    0.499    83 N    0.499
                            95 N    0.499
    78   6 C    3.934 --    79 C    1.264   100 C    1.264    74 C    1.174
    79   6 C    3.904 --    78 C    1.264    83 N    1.261    80 C    1.182
    80   6 C    3.956 --    81 C    1.647    79 C    1.182   102 H    0.970
    81   6 C    3.955 --    80 C    1.647    82 C    1.175   103 H    0.976
    82   6 C    3.908 --    84 C    1.364    83 N    1.219    81 C    1.175
    83   7 N    3.244 --    79 C    1.261    82 C    1.219    77 Cu   0.499
    84   6 C    3.935 --    82 C    1.364    85 C    1.364   104 H    0.971
    85   6 C    3.908 --    84 C    1.364    88 N    1.219    86 C    1.175
    86   6 C    3.955 --    87 C    1.647    85 C    1.175   105 H    0.976
    87   6 C    3.956 --    86 C    1.647    89 C    1.182   106 H    0.971
    88   7 N    3.244 --    89 C    1.261    85 C    1.219    77 Cu   0.499
    89   6 C    3.904 --    90 C    1.265    88 N    1.261    87 C    1.182
    90   6 C    3.934 --    91 C    1.265    89 C    1.265    75 C    1.173
    91   6 C    3.904 --    90 C    1.265    95 N    1.261    92 C    1.182
    92   6 C    3.956 --    93 C    1.647    91 C    1.182   107 H    0.971
    93   6 C    3.955 --    92 C    1.647    94 C    1.175   108 H    0.976
    94   6 C    3.909 --    96 C    1.364    95 N    1.219    93 C    1.175
    95   7 N    3.244 --    91 C    1.261    94 C    1.219    77 Cu   0.499
    96   6 C    3.935 --    97 C    1.364    94 C    1.364   109 H    0.971
    97   6 C    3.909 --    96 C    1.364   101 N    1.219    98 C    1.175
    98   6 C    3.955 --    99 C    1.647    97 C    1.175   110 H    0.976
    99   6 C    3.956 --    98 C    1.647   100 C    1.182   111 H    0.970
   100   6 C    3.904 --    78 C    1.264   101 N    1.261    99 C    1.182
   101   7 N    3.244 --   100 C    1.261    97 C    1.219    77 Cu   0.499
   102   1 H    1.005 --    80 C    0.970
   103   1 H    0.998 --    81 C    0.976
   104   1 H    1.002 --    84 C    0.971
   105   1 H    0.998 --    86 C    0.976
   106   1 H    1.005 --    87 C    0.971
   107   1 H    1.005 --    92 C    0.971
   108   1 H    0.998 --    93 C    0.976
   109   1 H    1.002 --    96 C    0.971
   110   1 H    0.998 --    98 C    0.976
   111   1 H    1.005 --    99 C    0.970
 ---------------------------------------------------------------------------

           -------------------------------------------------
          | TOTAL ENERGY             -204.292795833548 Eh   |
          | GRADIENT NORM               0.000213078597 Eh/α |
          | HOMO-LUMO GAP               0.000416781663 eV   |
           -------------------------------------------------

 * finished run on 2022/07/30 at 04:11:54.358
