   * xtb version 6.5.1 (b24c23e) compiled by 'conda@728c89f4b128' on 2022-07-12
          program call               : xtb Zn_Ph3OH_C6_3.xyz --gfn 1 --opt -T 48

   ID    Z sym.   atoms
    1   30 Zn     1, 63, 137
    2    6 C      2-6, 8-11, 13, 15, 17-20, 22-27, 29-32, 34, 36, 38-42,
                  64-68, 70-73, 75, 77, 79-82, 84-89, 91-94, 96, 98, 100-104,
                  125-136, 138-142, 144-147, 149, 151, 153-156, 158-163,
                  165-168, 170, 172, 174-178
    3    7 N      7, 21, 28, 43, 69, 83, 90, 105, 143, 157, 164, 179
    4    8 O      12, 14, 16, 33, 35, 37, 74, 76, 78, 95, 97, 99, 148, 150,
                  152, 169, 171, 173
    5    1 H      44-62, 106-124, 180-197

          :  Hamiltonian                  GFN1-xTB          :
 * total energy  :  -382.8380353 Eh     change       -0.9929636E-08 Eh
 * total energy  :  -382.9996011 Eh     change       -0.1615658E+00 Eh
 * total energy  :  -383.0953648 Eh     change       -0.9576364E-01 Eh
 * total energy  :  -383.1386876 Eh     change       -0.4332282E-01 Eh
 * total energy  :  -383.1772247 Eh     change       -0.3853717E-01 Eh
 * total energy  :  -383.2207187 Eh     change       -0.4349397E-01 Eh
 * total energy  :  -383.2661015 Eh     change       -0.4538280E-01 Eh
 * total energy  :  -383.2973706 Eh     change       -0.3126913E-01 Eh
 * total energy  :  -383.3172270 Eh     change       -0.1985635E-01 Eh
 * total energy  :  -383.3363285 Eh     change       -0.1910146E-01 Eh
 * total energy  :  -383.5564259 Eh     change       -0.1953868E-04 Eh
 * total energy  :  -383.5564520 Eh     change       -0.2610452E-04 Eh
 * total energy  :  -383.5564901 Eh     change       -0.3809396E-04 Eh
 * total energy  :  -383.5565185 Eh     change       -0.2840081E-04 Eh
 * total energy  :  -383.5565300 Eh     change       -0.1153611E-04 Eh
 * total energy  :  -383.5565362 Eh     change       -0.6201440E-05 Eh
 * total energy  :  -383.5565418 Eh     change       -0.5524247E-05 Eh
 * total energy  :  -383.5565473 Eh     change       -0.5523340E-05 Eh
 * total energy  :  -383.5565515 Eh     change       -0.4189150E-05 Eh
   *** GEOMETRY OPTIMIZATION CONVERGED AFTER 88 ITERATIONS ***

 final structure:
================
197
 xtb: 6.5.1 (b24c23e)
Zn          30.68370761793189        0.01322566935989       -0.06504783054440
C           27.27686314501803        0.05092320832255       -0.18472354736848
C           27.90780375334544        1.28822468561904       -0.13787562287221
C           27.23422883564056        2.55601982455018       -0.09779200343185
C           28.19310514399517        3.51329752109348       -0.03516197348678
C           29.46595822021903        2.84200402040091       -0.04619396309151
N           29.25711707467784        1.49473017714352       -0.10240791753825
C           30.71647800286658        3.46819601869680        0.02181068814138
C           30.73136119183364        4.95320642060956        0.07100302154771
C           30.22541420881712        5.69671927888009       -0.99524117774364
C           30.24401048514043        7.08582949737111       -0.94773800365580
O           29.76292875208208        7.81846412309943       -1.98221846458668
C           30.76179214829601        7.73650616871235        0.17325783430066
O           30.76268185316469        9.10711877405801        0.19420942782073
C           31.26305326099764        6.99414750643977        1.23923370600301
O           31.75047666494625        7.70240326613534        2.30677469904273
C           31.25410650460418        5.60568282778218        1.19077506546964
C           31.95394810826607        2.81612390402304        0.04957507784384
C           33.23495731461058        3.46677794549668        0.06200925562694
C           34.17963269311490        2.49171719376660        0.06551167992860
N           32.14571758682483        1.45995273503541        0.03588230777564
C           33.48683436379829        1.23717556670780        0.04888534293332
C           34.11606226979155       -0.02438816084823        0.03365906299434
C           33.46103482154305       -1.27191327745612       -0.00552122879855
C           34.12816675192189       -2.54010291312992       -0.04172980250077
C           33.16411085443191       -3.49452741939359       -0.08662889426761
C           31.89644014522863       -2.81793547454734       -0.07139454562562
N           32.11555799107938       -1.46632913218661       -0.02844770824438
C           30.64604547742439       -3.44247335328566       -0.12688362477187
C           30.62955443388697       -4.92803337986256       -0.15130693610470
C           31.14090747288992       -5.65305384943768        0.92512854423208
C           31.12147862426655       -7.04274299851766        0.90246158451931
O           31.60830771218240       -7.75712026180737        1.94687696441404
C           30.59616027600342       -7.71281644550172       -0.20345497675020
O           30.59319010589115       -9.08373389084603       -0.19971960453300
C           30.08903476523677       -6.98910001062919       -1.27934637226373
O           29.59398769510681       -7.71571765745868       -2.33110467320503
C           30.10003046920665       -5.59997551544738       -1.25624623974404
C           29.40820294725317       -2.78824667356066       -0.16392117361688
C           28.12181311545164       -3.43300740525671       -0.17746449153822
C           27.18251700555263       -2.45427965375574       -0.19927149663892
C           27.88199779232640       -1.20029447403397       -0.18905417641725
N           29.22673088173934       -1.43604001464532       -0.16486754547912
H           26.19146531412390        0.06263900966560       -0.20742859003380
H           26.16319531921014        2.68476856720258       -0.10878196437825
H           28.05551724938105        4.58108455760469        0.02378003635255
H           29.83355531715458        5.20243355484346       -1.87483254378541
H           29.86292338597568        8.75911912357702       -1.76085965704722
H           31.15475725567824        9.39219954042916        1.03489476890477
H           32.07361281982592        7.10651972384350        2.99532006011098
H           31.63507154640313        5.03402616153226        2.02898082595469
H           33.39076375119649        4.53362340838842        0.05369062844932
H           35.25209943743738        2.60484719216172        0.07204752998640
H           35.19811965964464       -2.67485691402111       -0.03861661706449
H           33.29794207691945       -4.56302798766784       -0.13753236811252
H           31.53881949235568       -5.14348820618129        1.79319821842727
H           31.50512806360643       -8.70152010691340        1.74399393676437
H           30.19809382019427       -9.38293343423035       -1.03401281223132
H           29.26073480886051       -7.13132734371835       -3.02461696576683
H           29.71589444310345       -5.04325013651255       -2.10302467477263
H           27.96158704748747       -4.49925316191920       -0.15880179596772
H           26.10900593252801       -2.56075712631424       -0.21252948281894
Zn          62.77045761240137       -0.04278685049892       -0.05106773706816
C           66.17729345970434       -0.06847797437345       -0.18318366042184
C           65.54530738365740       -1.30276187223930       -0.27489812835126
C           66.21769472517575       -2.56733818588555       -0.38171105969544
C           65.25801994602898       -3.52488008387148       -0.42580014007830
C           63.98588831046218       -2.85581744361134       -0.35617423035881
N           64.19589979914876       -1.51108362614069       -0.25904341053884
C           62.73498603629918       -3.48483712475222       -0.35644394023046
C           62.71914013552747       -4.96605720243790       -0.47509825251885
C           63.21580595122395       -5.58451460104377       -1.62240350008173
C           63.19639698953937       -6.97015582692392       -1.73156809072847
O           63.66832754992008       -7.58153603105126       -2.84594491570787
C           62.68749167667919       -7.74301364682535       -0.68668286031395
O           62.68583796938453       -9.10738534856992       -0.82011327012895
C           62.19571514194340       -7.12556577922911        0.46027561506761
O           61.71695157293095       -7.94957983540749        1.44562328024753
C           62.20503488460154       -5.74046123823989        0.56832616766988
C           61.49811039021186       -2.83962712467511       -0.25273156088839
C           60.21669962444503       -3.48694512831301       -0.31173237842546
C           59.27270287857201       -2.51794038800546       -0.19761853648121
N           61.30727617590036       -1.49045698483049       -0.11302395475455
C           59.96637092385828       -1.26984750083830       -0.07345849057859
C           59.33815409189231       -0.01437880878245        0.05647813639357
C           59.99426880887721        1.22876738632849        0.16150954855921
C           59.32852477242233        2.49309750497578        0.27632576471236
C           60.29358629110993        3.44528663779160        0.34148941989408
C           61.56042163124310        2.77044820985429        0.27275251583096
N           61.33986395782492        1.42327891583144        0.15802195518161
C           62.81105478638464        3.39640858168456        0.28450869030714
C           62.82863681151325        4.87498616251778        0.43263077519141
C           62.33413341949915        5.46886765555242        1.59380975784558
C           62.35522844645654        6.85172402934145        1.73338857413176
O           61.88574869488376        7.43884621425635        2.86155342071911
C           62.86414341779357        7.64655958868261        0.70512382109591
O           62.86880229525117        9.00754324518607        0.86887803563890
C           63.35357274175434        7.05369159642110       -0.45569308667587
O           63.83262323955715        7.89842200824439       -1.42319934088513
C           63.34215794775349        5.67125838515437       -0.59435083367234
C           64.04812214265644        2.75061279101256        0.16659355290063
C           65.33472543075268        3.39283714902129        0.21933939958944
C           66.27333835418358        2.42268763644234        0.08343547729860
C           65.57316682464015        1.17550538349717       -0.04425050307924
N           64.22869421920198        1.40717317152361        0.01210083203157
H           67.26260125027497       -0.07816857443805       -0.21064271713312
H           67.28855852591322       -2.69470998126009       -0.41077333052170
H           65.39451203915364       -4.59251666147493       -0.49006974723359
H           63.60112395039839       -4.99418512321498       -2.44374384317154
H           63.56849523075976       -8.54109153927776       -2.73163973971824
H           62.30080712820416       -9.48514159997982       -0.01340126519982
H           61.40041157736830       -7.43465001570389        2.19939439760611
H           61.83105464710052       -5.26680130460835        1.46851388740503
H           60.06039695995712       -4.54611444459038       -0.43927524521688
H           58.20016712748285       -2.63045792426964       -0.20266662632574
H           58.25874389057392        2.62745913088349        0.29828467296670
H           60.16136282542448        4.51246729445507        0.41792772246427
H           61.94814939032588        4.86107165733022        2.40198025305963
H           61.98591361638631        8.40064103702441        2.76848362208851
H           63.24922310752228        9.40278120638274        0.06841610982726
H           64.14876556670683        7.39961646587571       -2.18790486919557
H           63.71332201497218        5.21714678731598       -1.50569751470082
H           65.49524540599484        4.45041208594006        0.35600133533227
H           67.34684560529796        2.52987777327729        0.07713363902660
C           39.31720561497558       -0.04867415597673        0.04476014888219
C           38.08863391039369       -0.04917260906787        0.04931850657821
C           36.74482268571967       -0.04474806515363        0.04919256644020
C           35.52070695053983       -0.03783469450631        0.04573528673812
C           40.66085128665891       -0.04570577091930        0.03745985411220
C           41.88511030559700       -0.04105832336233        0.02577783372881
C           55.36568995105750        0.01244204450544        0.07698946714528
C           54.13718451997878        0.01391864636705        0.07120810786797
C           52.79357954769945        0.01274990163222        0.06138543878525
C           51.56932554032682        0.00889319193176        0.05047061101050
C           56.70943986238634        0.00608574936489        0.07529599403971
C           57.93357493408377       -0.00117076598525        0.07085271187581
Zn          46.72745892378065       -0.01553365632320        0.01555678232132
C           43.28918651148694       -0.03418576109612        0.01908233029707
C           43.92631944430159        1.21977645504620        0.12123936559122
C           43.24142890828714        2.47017432742943        0.26080975578508
C           44.19174989799374        3.43869578452630        0.31807118647747
C           45.46670788137432        2.78785834645716        0.20566749425907
N           45.26819476670138        1.43701854707465        0.09689333178217
C           46.70875841056384        3.43231304345679        0.22769546036768
C           46.69972196534421        4.91514419908952        0.30833473647849
C           47.27810060431539        5.56656431592812        1.39816133281595
C           47.27495014363073        6.95605278220179        1.48705119953834
O           47.82669152999122        7.60043555536547        2.54873328616522
C           46.69347780178514        7.71517838361972        0.46658877205173
O           46.67970571268089        9.07290298559841        0.52065689723636
C           46.11958610845884        7.05568472757319       -0.62338164622863
O           45.57075203999914        7.85769545058865       -1.59130274827110
C           46.11292549348101        5.67046914321938       -0.70860718804607
C           47.95805440310081        2.80377310490531        0.17869211987758
C           49.22643684742462        3.47653260070615        0.15318016419209
C           50.18706578433655        2.51790051041337        0.10461690423344
N           48.17084297840350        1.45165432446084        0.12751466276069
C           49.51516203428240        1.25283852195499        0.08813842062671
C           50.16528941734580        0.00252602750936        0.03776889645574
C           49.52841581484490       -1.25323768709486       -0.02986869330332
C           50.21287437109326       -2.51168890616622       -0.05974070273997
C           49.26273361419361       -3.47818114027142       -0.13978419105968
C           47.98799463398868       -2.81713139208549       -0.16663538899996
N           48.18645540713323       -1.46442982636201       -0.08787131737119
C           46.74614108760851       -3.45748025552606       -0.23816603215323
C           46.75645689201929       -4.93825517337617       -0.36530245345950
C           47.34013955653538       -5.53393521328684       -1.48389712750773
C           47.33768874640367       -6.91793586447358       -1.61419306094962
O           47.88652030856522       -7.50868607534587       -2.70201434024863
C           46.75591057196214       -7.70664603379335       -0.62019383732225
O           46.77734456594580       -9.08614312444929       -0.78136647279729
C           46.20752442183143       -7.11474543099198        0.51619095588997
O           45.67313795365479       -7.88720802689555        1.50484653735361
C           46.19092393828104       -5.72961344166677        0.63494648428637
C           45.49672492707518       -2.82904997928919       -0.20476915136179
C           44.22849769904578       -3.49337377278683       -0.31793469806974
C           43.26766450771068       -2.53708375077348       -0.24172716485884
C           43.93911546788971       -1.28005413427254       -0.09322427304075
N           45.28358253285386       -1.48200695449251       -0.07881029117354
H           42.17053177105767        2.58516214507611        0.31485283743272
H           44.04310247033074        4.49960346668607        0.43966880502520
H           47.72065181218753        4.98768118077317        2.20106739573118
H           48.19772323578113        6.97260865408950        3.18245855123149
H           46.23560545193629        9.40272155027667       -0.27707423589986
H           45.19760858517287        7.32638744348765       -2.30651999057383
H           45.67290133287216        5.18321646752335       -1.57081192946021
H           49.36419686472124        4.54577569815081        0.15864408940689
H           51.25694398039633        2.64931085370125        0.07300933166881
H           51.28358835557513       -2.63314897763012       -0.01860013264539
H           49.41050321915779       -4.54569801566358       -0.16657185523314
H           47.77543314067786       -4.92851900833748       -2.26836902381873
H           47.79458774649837       -8.47139678034437       -2.60458806864219
H           45.91209035463983       -9.46644491393391       -0.58199949924494
H           45.98308793348595       -8.79984174319323        1.41660453458240
H           45.76201355457515       -5.27949401377632        1.52084098638852
H           44.09158789722724       -4.55472667335853       -0.44852170255207
H           42.19777695459781       -2.66360172816139       -0.28924231906977

          :  Hamiltonian                  GFN1-xTB          :
         :: total energy            -383.556551482511 Eh    ::
         :: gradient norm              0.000625825193 Eh/a0 ::
         :: HOMO-LUMO gap              0.917343126034 eV    ::
         :: SCC energy              -388.882376038827 Eh    ::
         :: repulsion energy           5.499224731486 Eh    ::

    * Orbital Energies and Occupations

         #    Occupation            Energy/Eh            Energy/eV
      -------------------------------------------------------------
         1        2.0000           -0.8113644             -22.0783
       ...           ...                  ...                  ...
       319        2.0000           -0.4106174             -11.1735
       320        2.0000           -0.4103301             -11.1656
       321        2.0000           -0.4099455             -11.1552
       322        2.0000           -0.4088736             -11.1260
       323        2.0000           -0.4083616             -11.1121
       324        2.0000           -0.4082580             -11.1093
       325        2.0000           -0.4050104             -11.0209
       326        2.0000           -0.3942262             -10.7274
       327        2.0000           -0.3934116             -10.7053
       328        2.0000           -0.3928838             -10.6909
       329        2.0000           -0.3870573             -10.5324
       330        2.0000           -0.3808144             -10.3625
       331        2.0000           -0.3736439             -10.1674 (HOMO)
       332                         -0.3399321              -9.2500 (LUMO)
       333                         -0.3307371              -8.9998
       334                         -0.3265114              -8.8848
       335                         -0.3258497              -8.8668
       336                         -0.3252814              -8.8514
       337                         -0.3241010              -8.8192
       338                         -0.3021489              -8.2219
       339                         -0.2929808              -7.9724
       340                         -0.2897882              -7.8855
       341                         -0.2817468              -7.6667
       342                         -0.2813404              -7.6557
       ...                                ...                  ...
       676                          1.5834991              43.0892
      -------------------------------------------------------------
                  HL-Gap            0.0337117 Eh            0.9173 eV

Wiberg/Mayer (AO) data.
largest (>0.10) Wiberg bond orders for each atom

     #   Z sym  total        # sym  WBO       # sym  WBO       # sym  WBO
 ---------------------------------------------------------------------------
     1  30 Zn   1.997 --     7 N    0.460    43 N    0.459    28 N    0.456
                            21 N    0.456
     2   6 C    3.926 --     3 C    1.358    42 C    1.356    44 H    0.971
     3   6 C    3.922 --     2 C    1.358     7 N    1.233     4 C    1.171
     4   6 C    3.960 --     5 C    1.659     3 C    1.171    45 H    0.976
     5   6 C    3.963 --     4 C    1.659     6 C    1.172    46 H    0.973
     6   6 C    3.917 --     8 C    1.315     7 N    1.244     5 C    1.172
     7   7 N    3.293 --     6 C    1.244     3 C    1.233     1 Zn   0.460
     8   6 C    3.933 --    18 C    1.324     6 C    1.315     9 C    1.026
     9   6 C    3.989 --    10 C    1.400    17 C    1.387     8 C    1.026
    10   6 C    3.977 --     9 C    1.400    11 C    1.380    47 H    0.970
    11   6 C    3.917 --    10 C    1.380    13 C    1.325    12 O    1.052
    12   8 O    2.047 --    11 C    1.052    48 H    0.848
    13   6 C    3.904 --    15 C    1.341    11 C    1.325    14 O    1.020
    14   8 O    2.020 --    13 C    1.020    49 H    0.846
    15   6 C    3.905 --    17 C    1.384    13 C    1.341    16 O    1.013
    16   8 O    2.024 --    15 C    1.013    50 H    0.861
    17   6 C    3.973 --     9 C    1.387    15 C    1.384    51 H    0.969
    18   6 C    3.912 --     8 C    1.324    21 N    1.224    19 C    1.180
    19   6 C    3.960 --    20 C    1.645    18 C    1.180    52 H    0.974
    20   6 C    3.961 --    19 C    1.645    22 C    1.187    53 H    0.974
    21   7 N    3.296 --    22 C    1.264    18 C    1.224     1 Zn   0.456
    22   6 C    3.902 --    21 N    1.264    23 C    1.252    20 C    1.187
    23   6 C    3.938 --    24 C    1.253    22 C    1.252   128 C    1.194
    24   6 C    3.902 --    28 N    1.264    23 C    1.253    25 C    1.186
    25   6 C    3.962 --    26 C    1.647    24 C    1.186    54 H    0.974
    26   6 C    3.960 --    25 C    1.647    27 C    1.179    55 H    0.973
    27   6 C    3.912 --    29 C    1.326    28 N    1.224    26 C    1.179
    28   7 N    3.297 --    24 C    1.264    27 C    1.224     1 Zn   0.456
    29   6 C    3.933 --    27 C    1.326    39 C    1.313    30 C    1.026
    30   6 C    3.989 --    31 C    1.399    38 C    1.387    29 C    1.026
    31   6 C    3.977 --    30 C    1.399    32 C    1.380    56 H    0.970
    32   6 C    3.917 --    31 C    1.380    34 C    1.325    33 O    1.052
    33   8 O    2.047 --    32 C    1.052    57 H    0.848
    34   6 C    3.904 --    36 C    1.341    32 C    1.325    35 O    1.019
    35   8 O    2.019 --    34 C    1.019    58 H    0.847
    36   6 C    3.905 --    38 C    1.384    34 C    1.341    37 O    1.012
    37   8 O    2.024 --    36 C    1.012    59 H    0.861
    38   6 C    3.973 --    30 C    1.387    36 C    1.384    60 H    0.969
    39   6 C    3.917 --    29 C    1.313    43 N    1.245    40 C    1.173
    40   6 C    3.963 --    41 C    1.657    39 C    1.173    61 H    0.974
    41   6 C    3.960 --    40 C    1.657    42 C    1.172    62 H    0.976
    42   6 C    3.922 --     2 C    1.356    43 N    1.233    41 C    1.172
    43   7 N    3.293 --    39 C    1.245    42 C    1.233     1 Zn   0.459
    44   1 H    1.002 --     2 C    0.971
    45   1 H    0.998 --     4 C    0.976
    46   1 H    1.006 --     5 C    0.973
    47   1 H    1.000 --    10 C    0.970
    48   1 H    0.878 --    12 O    0.848
    49   1 H    0.876 --    14 O    0.846
    50   1 H    0.881 --    16 O    0.861
    51   1 H    1.001 --    17 C    0.969
    52   1 H    1.006 --    19 C    0.974
    53   1 H    1.002 --    20 C    0.974
    54   1 H    1.002 --    25 C    0.974
    55   1 H    1.005 --    26 C    0.973
    56   1 H    1.000 --    31 C    0.970
    57   1 H    0.878 --    33 O    0.848
    58   1 H    0.876 --    35 O    0.847
    59   1 H    0.882 --    37 O    0.861
    60   1 H    1.001 --    38 C    0.969
    61   1 H    1.006 --    40 C    0.974
    62   1 H    0.998 --    41 C    0.976
    63  30 Zn   1.997 --    69 N    0.460   105 N    0.459    90 N    0.457
                            83 N    0.456
    64   6 C    3.926 --    65 C    1.358   104 C    1.356   106 H    0.971
    65   6 C    3.922 --    64 C    1.358    69 N    1.233    66 C    1.171
    66   6 C    3.960 --    67 C    1.659    65 C    1.171   107 H    0.976
    67   6 C    3.963 --    66 C    1.659    68 C    1.172   108 H    0.973
    68   6 C    3.917 --    70 C    1.315    69 N    1.244    67 C    1.172
    69   7 N    3.293 --    68 C    1.244    65 C    1.233    63 Zn   0.460
    70   6 C    3.933 --    80 C    1.325    68 C    1.315    71 C    1.025
    71   6 C    3.989 --    72 C    1.400    79 C    1.387    70 C    1.025
    72   6 C    3.977 --    71 C    1.400    73 C    1.380   109 H    0.970
    73   6 C    3.917 --    72 C    1.380    75 C    1.325    74 O    1.052
    74   8 O    2.047 --    73 C    1.052   110 H    0.848
    75   6 C    3.904 --    77 C    1.341    73 C    1.325    76 O    1.019
    76   8 O    2.020 --    75 C    1.019   111 H    0.847
    77   6 C    3.905 --    79 C    1.384    75 C    1.341    78 O    1.012
    78   8 O    2.024 --    77 C    1.012   112 H    0.861
    79   6 C    3.973 --    71 C    1.387    77 C    1.384   113 H    0.970
    80   6 C    3.913 --    70 C    1.325    83 N    1.224    81 C    1.179
    81   6 C    3.960 --    82 C    1.645    80 C    1.179   114 H    0.974
    82   6 C    3.961 --    81 C    1.645    84 C    1.187   115 H    0.974
    83   7 N    3.296 --    84 C    1.264    80 C    1.224    63 Zn   0.456
    84   6 C    3.902 --    83 N    1.264    85 C    1.252    82 C    1.187
    85   6 C    3.938 --    86 C    1.253    84 C    1.252   136 C    1.194
    86   6 C    3.902 --    90 N    1.264    85 C    1.253    87 C    1.186
    87   6 C    3.962 --    88 C    1.647    86 C    1.186   116 H    0.974
    88   6 C    3.960 --    87 C    1.647    89 C    1.178   117 H    0.973
    89   6 C    3.912 --    91 C    1.327    90 N    1.223    88 C    1.178
    90   7 N    3.297 --    86 C    1.264    89 C    1.223    63 Zn   0.457
    91   6 C    3.933 --    89 C    1.327   101 C    1.313    92 C    1.025
    92   6 C    3.989 --    93 C    1.400   100 C    1.388    91 C    1.025
    93   6 C    3.977 --    92 C    1.400    94 C    1.380   118 H    0.970
    94   6 C    3.917 --    93 C    1.380    96 C    1.325    95 O    1.052
    95   8 O    2.048 --    94 C    1.052   119 H    0.848
    96   6 C    3.904 --    98 C    1.342    94 C    1.325    97 O    1.020
    97   8 O    2.020 --    96 C    1.020   120 H    0.847
    98   6 C    3.905 --   100 C    1.384    96 C    1.342    99 O    1.012
    99   8 O    2.024 --    98 C    1.012   121 H    0.861
   100   6 C    3.973 --    92 C    1.388    98 C    1.384   122 H    0.970
   101   6 C    3.917 --    91 C    1.313   105 N    1.245   102 C    1.173
   102   6 C    3.963 --   103 C    1.657   101 C    1.173   123 H    0.974
   103   6 C    3.960 --   102 C    1.657   104 C    1.172   124 H    0.976
   104   6 C    3.922 --    64 C    1.356   105 N    1.233   103 C    1.172
   105   7 N    3.293 --   101 C    1.245   104 C    1.233    63 Zn   0.459
   106   1 H    1.002 --    64 C    0.971
   107   1 H    0.998 --    66 C    0.976
   108   1 H    1.006 --    67 C    0.973
   109   1 H    1.000 --    72 C    0.970
   110   1 H    0.878 --    74 O    0.848
   111   1 H    0.876 --    76 O    0.847
   112   1 H    0.882 --    78 O    0.861
   113   1 H    1.001 --    79 C    0.970
   114   1 H    1.006 --    81 C    0.974
   115   1 H    1.002 --    82 C    0.974
   116   1 H    1.002 --    87 C    0.974
   117   1 H    1.005 --    88 C    0.973
   118   1 H    1.000 --    93 C    0.970
   119   1 H    0.878 --    95 O    0.848
   120   1 H    0.876 --    97 O    0.847
   121   1 H    0.882 --    99 O    0.861
   122   1 H    1.001 --   100 C    0.970
   123   1 H    1.006 --   102 C    0.974
   124   1 H    0.998 --   103 C    0.976
   125   6 C    3.925 --   126 C    2.364   129 C    1.338   128 C    0.190
   126   6 C    3.924 --   125 C    2.364   127 C    1.337   130 C    0.190
   127   6 C    3.933 --   128 C    2.445   126 C    1.337
   128   6 C    3.889 --   127 C    2.445    23 C    1.194   125 C    0.190
   129   6 C    3.930 --   130 C    2.443   125 C    1.338
   130   6 C    3.890 --   129 C    2.443   138 C    1.196   126 C    0.190
   131   6 C    3.924 --   132 C    2.364   135 C    1.337   134 C    0.190
   132   6 C    3.925 --   131 C    2.364   133 C    1.338   136 C    0.190
   133   6 C    3.930 --   134 C    2.443   132 C    1.338
   134   6 C    3.890 --   133 C    2.443   159 C    1.196   131 C    0.190
   135   6 C    3.933 --   136 C    2.445   131 C    1.337
   136   6 C    3.889 --   135 C    2.445    85 C    1.194   132 C    0.190
   137  30 Zn   1.994 --   164 N    0.457   179 N    0.456   143 N    0.456
                           157 N    0.456
   138   6 C    3.926 --   178 C    1.251   139 C    1.249   130 C    1.196
   139   6 C    3.902 --   143 N    1.264   138 C    1.249   140 C    1.190
   140   6 C    3.959 --   141 C    1.641   139 C    1.190   180 H    0.974
   141   6 C    3.960 --   140 C    1.641   142 C    1.183   181 H    0.974
   142   6 C    3.910 --   144 C    1.319   143 N    1.224   141 C    1.183
   143   7 N    3.291 --   139 C    1.264   142 C    1.224   137 Zn   0.456
   144   6 C    3.929 --   154 C    1.320   142 C    1.319   145 C    1.027
   145   6 C    3.989 --   146 C    1.393   153 C    1.385   144 C    1.027
   146   6 C    3.974 --   145 C    1.393   147 C    1.380   182 H    0.969
   147   6 C    3.915 --   146 C    1.380   149 C    1.322   148 O    1.043
   148   8 O    2.051 --   147 C    1.043   183 H    0.867
   149   6 C    3.916 --   151 C    1.329   147 C    1.322   150 O    1.050
   150   8 O    2.046 --   149 C    1.050   184 H    0.851
   151   6 C    3.904 --   153 C    1.390   149 C    1.329   152 O    1.012
   152   8 O    2.025 --   151 C    1.012   185 H    0.861
   153   6 C    3.974 --   151 C    1.390   145 C    1.385   186 H    0.969
   154   6 C    3.910 --   144 C    1.320   157 N    1.224   155 C    1.183
   155   6 C    3.960 --   156 C    1.641   154 C    1.183   187 H    0.973
   156   6 C    3.959 --   155 C    1.641   158 C    1.189   188 H    0.974
   157   7 N    3.291 --   158 C    1.264   154 C    1.224   137 Zn   0.456
   158   6 C    3.902 --   157 N    1.264   159 C    1.249   156 C    1.189
   159   6 C    3.926 --   160 C    1.251   158 C    1.249   134 C    1.196
   160   6 C    3.902 --   164 N    1.263   159 C    1.251   161 C    1.188
   161   6 C    3.960 --   162 C    1.643   160 C    1.188   189 H    0.974
   162   6 C    3.960 --   161 C    1.643   163 C    1.181   190 H    0.973
   163   6 C    3.910 --   165 C    1.320   164 N    1.224   162 C    1.181
   164   7 N    3.292 --   160 C    1.263   163 C    1.224   137 Zn   0.457
   165   6 C    3.928 --   175 C    1.321   163 C    1.320   166 C    1.025
   166   6 C    3.989 --   167 C    1.399   174 C    1.398   165 C    1.025
   167   6 C    3.976 --   166 C    1.399   168 C    1.376   191 H    0.970
   168   6 C    3.917 --   167 C    1.376   170 C    1.334   169 O    1.055
   169   8 O    2.050 --   168 C    1.055   192 H    0.848
   170   6 C    3.887 --   172 C    1.347   168 C    1.334   171 O    0.976
   171   8 O    1.979 --   170 C    0.976   193 H    0.864
   172   6 C    3.910 --   174 C    1.379   170 C    1.347   173 O    1.029
   173   8 O    2.031 --   172 C    1.029   194 H    0.861
   174   6 C    3.976 --   166 C    1.398   172 C    1.379   195 H    0.970
   175   6 C    3.910 --   165 C    1.321   179 N    1.224   176 C    1.182
   176   6 C    3.960 --   177 C    1.643   175 C    1.182   196 H    0.974
   177   6 C    3.960 --   176 C    1.643   178 C    1.188   197 H    0.974
   178   6 C    3.902 --   179 N    1.264   138 C    1.251   177 C    1.188
   179   7 N    3.291 --   178 C    1.264   175 C    1.224   137 Zn   0.456
   180   1 H    1.002 --   140 C    0.974
   181   1 H    1.006 --   141 C    0.974
   182   1 H    1.001 --   146 C    0.969
   183   1 H    0.887 --   148 O    0.867
   184   1 H    0.881 --   150 O    0.851
   185   1 H    0.882 --   152 O    0.861
   186   1 H    1.001 --   153 C    0.969
   187   1 H    1.006 --   155 C    0.973
   188   1 H    1.002 --   156 C    0.974
   189   1 H    1.002 --   161 C    0.974
   190   1 H    1.005 --   162 C    0.973
   191   1 H    1.000 --   167 C    0.970
   192   1 H    0.881 --   169 O    0.848
   193   1 H    0.884 --   171 O    0.864
   194   1 H    0.885 --   173 O    0.861
   195   1 H    1.000 --   174 C    0.970
   196   1 H    1.006 --   176 C    0.974
   197   1 H    1.002 --   177 C    0.974
 ---------------------------------------------------------------------------

           -------------------------------------------------
          | TOTAL ENERGY             -383.556551482511 Eh   |
          | GRADIENT NORM               0.000625825193 Eh/α |
          | HOMO-LUMO GAP               0.917343126034 eV   |
           -------------------------------------------------

 * finished run on 2022/07/30 at 12:26:29.399
