   * xtb version 6.5.1 (b24c23e) compiled by 'conda@728c89f4b128' on 2022-07-12
          program call               : xtb BSA_C4_2.xyz --gfn 1 --opt -T 48

   ID    Z sym.   atoms
    1    6 C      1-5, 7-11, 16-20, 22-27, 29-33, 38-43, 66-70, 72-76, 81-85,
                  87-92, 94-98, 103-108, 131-134
    2    7 N      6, 21, 28, 44, 71, 86, 93, 109
    3   16 S      12, 34, 77, 99
    4    8 O      13-15, 35-37, 78-80, 100-102
    5    1 H      45-65, 110-130
########################################################################
[WARNING] Please study the warnings concerning your input carefully
-1- prog_main_parseArguments: Unknown option '-T' provided
########################################################################

          :  Hamiltonian                  GFN1-xTB          :
 * total energy  :  -262.0097050 Eh     change        0.3979039E-11 Eh
 * total energy  :  -262.3844003 Eh     change       -0.3746954E+00 Eh
 * total energy  :  -262.4748591 Eh     change       -0.9045878E-01 Eh
 * total energy  :  -262.5142961 Eh     change       -0.3943700E-01 Eh
 * total energy  :  -262.5273142 Eh     change       -0.1301813E-01 Eh
 * total energy  :  -262.5357526 Eh     change       -0.8438428E-02 Eh
 * total energy  :  -262.5393139 Eh     change       -0.3561285E-02 Eh
 * total energy  :  -262.5427379 Eh     change       -0.3423999E-02 Eh
 * total energy  :  -262.5452497 Eh     change       -0.2511774E-02 Eh
 * total energy  :  -262.5474913 Eh     change       -0.2241589E-02 Eh
 * total energy  :  -262.5640605 Eh     change       -0.1338581E-04 Eh
 * total energy  :  -262.5640757 Eh     change       -0.1528373E-04 Eh
 * total energy  :  -262.5640918 Eh     change       -0.1604604E-04 Eh
 * total energy  :  -262.5641067 Eh     change       -0.1493571E-04 Eh
 * total energy  :  -262.5641183 Eh     change       -0.1161658E-04 Eh
 * total energy  :  -262.5641300 Eh     change       -0.1164386E-04 Eh
 * total energy  :  -262.5641256 Eh     change        0.4364533E-05 Eh
 * total energy  :  -262.5641409 Eh     change       -0.1523548E-04 Eh
 * total energy  :  -262.5641456 Eh     change       -0.4786630E-05 Eh
   *** GEOMETRY OPTIMIZATION CONVERGED AFTER 83 ITERATIONS ***

 final structure:
================
134
 xtb: 6.5.1 (b24c23e)
C           12.77533182656349       -0.06318846611110        0.08932400828340
C           13.37328139671978       -1.27382002145508       -0.23511941533228
C           12.71173546672835       -2.50670526787939       -0.49707860074474
C           13.66384270136231       -3.44230251531834       -0.78777598313096
C           14.93789713129000       -2.80827782292945       -0.72225163470527
N           14.71233712581401       -1.50663696113542       -0.37638155657813
C           16.19518134154124       -3.38322575912088       -0.93905462539426
C           16.21431737094387       -4.81438603752482       -1.32655113223236
C           15.59089950962377       -5.23546388247566       -2.50407483771543
C           15.60800360440546       -6.57109912186887       -2.87051157127286
C           16.24918705916651       -7.47947517006366       -2.04383233508568
S           16.27839238364388       -9.17079610035703       -2.50444941042381
O           16.13872458248143       -9.32045168338261       -3.92356753864030
O           14.87817386894489       -9.62755801726728       -1.81862983728774
O           17.35206474485372       -9.85379321232893       -1.84606273320239
C           16.87761161648055       -7.09268025643456       -0.87131997750339
C           16.85822205672988       -5.75382657003911       -0.51707758871710
C           17.41671832337109       -2.71564348458524       -0.81813141426417
C           18.70478243412318       -3.31998185665640       -1.10848242461143
C           19.63352611915092       -2.37043620813879       -0.87278019670827
N           17.58320715629005       -1.41949751998957       -0.43802755548577
C           18.91114404421872       -1.18593937590658       -0.45034837142288
C           19.55987532700951        0.01655955724185       -0.10456083759120
C           18.93700519437855        1.22444332827662        0.26241699842168
C           19.59453060343831        2.43075770248389        0.62172917532876
C           18.63722829726668        3.36868062633528        0.89280232509349
C           17.36423461458748        2.76375868015925        0.69947478073750
N           17.59735422723464        1.46676569202311        0.32730351464751
C           16.10651814113980        3.34981143395643        0.88046780347161
C           16.08800580320414        4.78270741225895        1.25938422512445
C           16.64627371570366        5.74274918974998        0.41107576736213
C           16.62743331918091        7.08371412813234        0.75691675559832
C           16.05149564441806        7.45178710944602        1.96209369597825
S           16.01903556796396        9.14894580285900        2.40055963364672
O           16.06721586023232        9.97816002226433        1.23259101352676
O           17.46448023843958        9.22819677976500        3.13584931030373
O           15.00229192151103        9.40293620868841        3.37791377469319
C           15.48981340364803        6.52400450821542        2.82397175997816
C           15.50917239735084        5.18618325148327        2.46548111101728
C           14.88334058418848        2.68802176119413        0.72975933729944
C           13.58290144507069        3.32539611520731        0.87111885987319
C           12.66199313254392        2.36592762956693        0.65220599603438
C           13.39807525684774        1.14686967876900        0.36505368117918
N           14.73258415237937        1.38060543394260        0.41206796998688
H           11.69069817454570       -0.07209485509028        0.12583774782873
H           11.64337706603735       -2.64725702435642       -0.45901264614641
H           13.50415201775021       -4.48295216885808       -1.01902886622051
H           15.44305323425899       -0.81588284923273       -0.24157080304842
H           15.10716736247436       -4.50713673114157       -3.14451444089042
H           15.13852776729121       -6.90603878778587       -3.78694028462665
H           14.63988399304552      -10.51656607645287       -2.10848171511023
H           17.37409280481458       -7.82865588110112       -0.25151106835160
H           17.33413534176823       -5.43194891323379        0.40178364645567
H           18.85584163060481       -4.32806404395901       -1.45889798620248
H           20.70463128994906       -2.43671228961974       -0.97680389662006
H           20.66439933019051        2.55450939109442        0.66856433093355
H           18.79629496820927        4.38649899418306        1.20945139739654
H           16.86751193285061        0.78766925325781        0.13787814432548
H           17.07951714827167        5.43592500185200       -0.53378939867490
H           17.04622820696267        7.83677687403880        0.10127412441879
H           17.64216633271458       10.12930328749885        3.43179884732023
H           15.04346076764767        6.84722937056183        3.75600034546571
H           15.08552181851835        4.44325398050921        3.13105112202342
H           13.42156888625833        4.36790672822510        1.09317583945147
H           11.58650023296902        2.44611180040456        0.66666200586558
C           32.94989456676377        0.00692914642513        0.11085400447859
C           32.35164974335573        1.20473851548741        0.47935691466847
C           33.01290361436953        2.38873156369657        0.91199173732294
C           32.06053433664055        3.33552163234181        1.16285099087824
C           30.78657833829370        2.76300101953547        0.88220920244661
N           31.01248852502187        1.47655910546726        0.48371185290499
C           29.52912180993902        3.36466320950817        1.00520504027160
C           29.50978776667277        4.78286032728405        1.43771648393667
C           30.13165846285024        5.76579478173766        0.66336551788923
C           30.11455986738370        7.09184019882206        1.06314850313075
C           29.47492601504037        7.42138884483107        2.24717308962821
S           29.44605917351111        9.09862363050861        2.75669514141372
O           29.58477856896674        9.98020203924404        1.63448135548970
O           30.84691115276387        9.12060864675774        3.57931975585047
O           28.37315230177525        9.32672116336072        3.67842467358706
C           28.84792939917604        6.47015315497860        3.03543978102795
C           28.86729863256346        5.14788699176146        2.62362570425178
C           28.30761725467013        2.73443913616889        0.75383414475792
C           27.01932934420288        3.40009904028011        0.83055226219799
C           26.09080639239860        2.47062123361165        0.52450085646272
N           28.14142305048147        1.43483596953707        0.38567514945727
C           26.81351199894905        1.24332768861707        0.25105437882459
C           26.16520203281159        0.04130957580679       -0.09709184275206
C           26.78847030096589       -1.17665374823256       -0.42829634615846
C           26.13125918024614       -2.38941516983294       -0.76584608173485
C           27.08881578454899       -3.32771679145715       -1.03464845828341
C           28.36165881518702       -2.71237716022528       -0.87635180048435
N           28.12818745539672       -1.41621715612128       -0.50147507499446
C           29.61949181243428       -3.30446958373484       -1.03553648009233
C           29.63803034627567       -4.71918794367755       -1.47747661700161
C           29.07869502422068       -5.08075654403889       -2.70604003688137
C           29.09665398223207       -6.40027185207631       -3.12646147142757
C           29.67302797349175       -7.35320788312625       -2.30226329644767
S           29.70404255526427       -9.02394222775937       -2.83277320313998
O           29.65080452144165       -9.10637095864384       -4.26269270849439
O           28.26086998942705       -9.48197948952628       -2.24711568534458
O           30.72375197617897       -9.75744721878457       -2.14304276190003
C           30.23617970939159       -7.02606232983226       -1.07956508073125
C           30.21752664221329       -5.70255777801157       -0.67143608070556
C           30.84254587436788       -2.66368475501928       -0.81107459831659
C           32.14313459714047       -3.27817177069631       -1.03073821150944
C           33.06382282171408       -2.34928887417513       -0.70501339609607
C           32.32746328115434       -1.16459760715450       -0.29924574455036
N           30.99300751885452       -1.38778763996552       -0.38396969454434
H           34.03453007005887       -0.00469458792360        0.14661743582612
H           34.08126166319494        2.48803290983751        1.01849132641497
H           32.21999016853808        4.34020467915420        1.51938694179465
H           30.28198839853217        0.81933736874870        0.23135058751435
H           30.61421712374791        5.48964588670095       -0.26696109815607
H           30.58289608494604        7.86294182157827        0.46439531918138
H           31.08520889654484       10.02757904648748        3.80679738204151
H           28.35260441316099        6.76377064099282        3.95236531942103
H           28.39256575021752        4.38651712947965        3.23136731167741
H           26.86794609224815        4.43982800229464        1.07115169353484
H           25.01962964059950        2.58170864846020        0.47232103523254
H           25.06142616544281       -2.51932562066495       -0.79226918426093
H           26.93000796605034       -4.35813680089250       -1.30767395807601
H           28.85780141938785       -0.74017383208443       -0.30061187243976
H           28.64508619822171       -4.31824222874700       -3.34257846692864
H           28.67678709705421       -6.68900943414911       -4.08183164030226
H           28.07559373648718      -10.39816028442753       -2.48686214977015
H           30.68288915685943       -7.79568660433524       -0.46270390497608
H           30.64212144860918       -5.42762044279174        0.28695875329367
H           32.30474410162331       -4.27877277133838       -1.39794424522785
H           34.13933781702819       -2.42465338658809       -0.73532011340952
C           22.18787204121402        0.03443517638498       -0.12780036528840
C           20.96587932920723        0.02428059660438       -0.12180822715338
C           23.53720540902381        0.03718230664779       -0.12693651538336
C           24.75922928150763        0.04424084495743       -0.11872059916213

          :  Hamiltonian                  GFN1-xTB          :
         :: total energy            -262.564145639388 Eh    ::
         :: gradient norm              0.000736714745 Eh/a0 ::
         :: HOMO-LUMO gap              1.026083253406 eV    ::
         :: SCC energy              -266.121418220563 Eh    ::
         :: repulsion energy           3.673058599460 Eh    ::

    * Orbital Energies and Occupations

         #    Occupation            Energy/Eh            Energy/eV
      -------------------------------------------------------------
         1        2.0000           -1.0365735             -28.2066
       ...           ...                  ...                  ...
       213        2.0000           -0.4409535             -11.9990
       214        2.0000           -0.4390418             -11.9469
       215        2.0000           -0.4379637             -11.9176
       216        2.0000           -0.4370116             -11.8917
       217        2.0000           -0.4347360             -11.8298
       218        2.0000           -0.4339291             -11.8078
       219        2.0000           -0.4338281             -11.8051
       220        2.0000           -0.4321210             -11.7586
       221        2.0000           -0.4320654             -11.7571
       222        2.0000           -0.4162373             -11.3264
       223        2.0000           -0.4159367             -11.3182
       224        2.0000           -0.4071739             -11.0798
       225        2.0000           -0.3960173             -10.7762 (HOMO)
       226                         -0.3583095              -9.7501 (LUMO)
       227                         -0.3505234              -9.5382
       228                         -0.3501113              -9.5270
       229                         -0.3443556              -9.3704
       230                         -0.3214059              -8.7459
       231                         -0.3173971              -8.6368
       232                         -0.3091996              -8.4137
       233                         -0.3091927              -8.4136
       234                         -0.3050381              -8.3005
       235                         -0.3008503              -8.1866
       236                         -0.2958408              -8.0502
       ...                                ...                  ...
       472                          1.5013040              40.8526
      -------------------------------------------------------------
                  HL-Gap            0.0377079 Eh            1.0261 eV

Wiberg/Mayer (AO) data.
largest (>0.10) Wiberg bond orders for each atom

     #   Z sym  total        # sym  WBO       # sym  WBO       # sym  WBO
 ---------------------------------------------------------------------------
     1   6 C    3.927 --    43 C    1.367     2 C    1.347    45 H    0.970
     2   6 C    3.900 --     1 C    1.347     3 C    1.228     6 N    1.169
     3   6 C    3.954 --     4 C    1.597     2 C    1.228    46 H    0.976
     4   6 C    3.959 --     3 C    1.597     5 C    1.232    47 H    0.974
     5   6 C    3.898 --     7 C    1.303     4 C    1.232     6 N    1.179
     6   7 N    3.470 --     5 C    1.179     2 C    1.169    48 H    0.873
     7   6 C    3.937 --    18 C    1.333     5 C    1.303     8 C    1.031
     8   6 C    3.986 --     9 C    1.390    17 C    1.390     7 C    1.031
     9   6 C    3.986 --    10 C    1.451     8 C    1.390    49 H    0.971
                            16 C    0.105
    10   6 C    3.989 --     9 C    1.451    11 C    1.407    50 H    0.967
                            17 C    0.106
    11   6 C    3.929 --    16 C    1.407    10 C    1.407    12 S    0.754
    12  16 S    5.265 --    15 O    1.724    13 O    1.716    14 O    1.012
                            11 C    0.754
    13   8 O    2.074 --    12 S    1.716    15 O    0.139
    14   8 O    2.087 --    12 S    1.012    51 H    0.828
    15   8 O    2.082 --    12 S    1.724    13 O    0.139
    16   6 C    3.989 --    17 C    1.450    11 C    1.407    52 H    0.967
                             9 C    0.105
    17   6 C    3.987 --    16 C    1.450     8 C    1.390    53 H    0.971
                            10 C    0.106
    18   6 C    3.914 --     7 C    1.333    21 N    1.288    19 C    1.124
    19   6 C    3.965 --    20 C    1.711    18 C    1.124    54 H    0.973
    20   6 C    3.963 --    19 C    1.711    22 C    1.127    55 H    0.974
    21   7 N    3.022 --    22 C    1.343    18 C    1.288
    22   6 C    3.908 --    21 N    1.343    23 C    1.256    20 C    1.127
    23   6 C    3.938 --    22 C    1.256    24 C    1.253   132 C    1.189
    24   6 C    3.884 --    23 C    1.253    25 C    1.248    28 N    1.188
    25   6 C    3.959 --    26 C    1.584    24 C    1.248    56 H    0.975
    26   6 C    3.954 --    25 C    1.584    27 C    1.240    57 H    0.974
    27   6 C    3.899 --    29 C    1.307    26 C    1.240    28 N    1.168
    28   7 N    3.475 --    24 C    1.188    27 C    1.168    58 H    0.872
    29   6 C    3.923 --    40 C    1.321    27 C    1.307    30 C    1.032
    30   6 C    3.986 --    39 C    1.390    31 C    1.389    29 C    1.032
    31   6 C    3.985 --    32 C    1.451    30 C    1.389    59 H    0.971
                            38 C    0.106
    32   6 C    3.989 --    31 C    1.451    33 C    1.406    60 H    0.967
                            39 C    0.106
    33   6 C    3.929 --    38 C    1.407    32 C    1.406    34 S    0.754
    34  16 S    5.266 --    37 O    1.720    35 O    1.719    36 O    1.014
                            33 C    0.754
    35   8 O    2.078 --    34 S    1.719    37 O    0.139
    36   8 O    2.088 --    34 S    1.014    61 H    0.827
    37   8 O    2.079 --    34 S    1.720    35 O    0.139
    38   6 C    3.989 --    39 C    1.450    33 C    1.407    62 H    0.967
                            31 C    0.106
    39   6 C    3.986 --    38 C    1.450    30 C    1.390    63 H    0.971
                            32 C    0.106
    40   6 C    3.929 --    29 C    1.321    44 N    1.317    41 C    1.116
    41   6 C    3.967 --    42 C    1.725    40 C    1.116    64 H    0.973
    42   6 C    3.966 --    41 C    1.725    43 C    1.115    65 H    0.975
    43   6 C    3.927 --     1 C    1.367    44 N    1.300    42 C    1.115
    44   7 N    3.012 --    40 C    1.317    43 C    1.300
    45   1 H    1.001 --     1 C    0.970
    46   1 H    0.997 --     3 C    0.976
    47   1 H    1.003 --     4 C    0.974
    48   1 H    0.986 --     6 N    0.873
    49   1 H    1.003 --     9 C    0.971
    50   1 H    0.999 --    10 C    0.967
    51   1 H    0.854 --    14 O    0.828
    52   1 H    1.000 --    16 C    0.967
    53   1 H    1.003 --    17 C    0.971
    54   1 H    1.004 --    19 C    0.973
    55   1 H    1.003 --    20 C    0.974
    56   1 H    1.002 --    25 C    0.975
    57   1 H    1.003 --    26 C    0.974
    58   1 H    0.987 --    28 N    0.872
    59   1 H    1.003 --    31 C    0.971
    60   1 H    0.999 --    32 C    0.967
    61   1 H    0.853 --    36 O    0.827
    62   1 H    1.000 --    38 C    0.967
    63   1 H    1.003 --    39 C    0.971
    64   1 H    1.004 --    41 C    0.973
    65   1 H    0.998 --    42 C    0.975
    66   6 C    3.927 --   108 C    1.367    67 C    1.348   110 H    0.970
    67   6 C    3.900 --    66 C    1.348    68 C    1.228    71 N    1.169
    68   6 C    3.954 --    69 C    1.597    67 C    1.228   111 H    0.976
    69   6 C    3.959 --    68 C    1.597    70 C    1.232   112 H    0.974
    70   6 C    3.898 --    72 C    1.303    69 C    1.232    71 N    1.179
    71   7 N    3.470 --    70 C    1.179    67 C    1.169   113 H    0.873
    72   6 C    3.937 --    83 C    1.333    70 C    1.303    73 C    1.031
    73   6 C    3.986 --    74 C    1.390    82 C    1.390    72 C    1.031
    74   6 C    3.986 --    75 C    1.451    73 C    1.390   114 H    0.971
                            81 C    0.105
    75   6 C    3.989 --    74 C    1.451    76 C    1.407   115 H    0.967
                            82 C    0.106
    76   6 C    3.929 --    81 C    1.407    75 C    1.407    77 S    0.754
    77  16 S    5.265 --    80 O    1.724    78 O    1.716    79 O    1.012
                            76 C    0.754
    78   8 O    2.075 --    77 S    1.716    80 O    0.139
    79   8 O    2.087 --    77 S    1.012   116 H    0.828
    80   8 O    2.082 --    77 S    1.724    78 O    0.139
    81   6 C    3.989 --    82 C    1.450    76 C    1.407   117 H    0.967
                            74 C    0.105
    82   6 C    3.987 --    81 C    1.450    73 C    1.390   118 H    0.971
                            75 C    0.106
    83   6 C    3.914 --    72 C    1.333    86 N    1.288    84 C    1.124
    84   6 C    3.965 --    85 C    1.711    83 C    1.124   119 H    0.973
    85   6 C    3.963 --    84 C    1.711    87 C    1.127   120 H    0.974
    86   7 N    3.022 --    87 C    1.343    83 C    1.288
    87   6 C    3.908 --    86 N    1.343    88 C    1.256    85 C    1.127
    88   6 C    3.938 --    87 C    1.256    89 C    1.253   134 C    1.189
    89   6 C    3.884 --    88 C    1.253    90 C    1.248    93 N    1.188
    90   6 C    3.959 --    91 C    1.584    89 C    1.248   121 H    0.975
    91   6 C    3.954 --    90 C    1.584    92 C    1.240   122 H    0.974
    92   6 C    3.899 --    94 C    1.307    91 C    1.240    93 N    1.168
    93   7 N    3.475 --    89 C    1.188    92 C    1.168   123 H    0.872
    94   6 C    3.923 --   105 C    1.321    92 C    1.307    95 C    1.032
    95   6 C    3.986 --   104 C    1.390    96 C    1.389    94 C    1.032
    96   6 C    3.985 --    97 C    1.451    95 C    1.389   124 H    0.971
                           103 C    0.106
    97   6 C    3.989 --    96 C    1.451    98 C    1.407   125 H    0.967
                           104 C    0.106
    98   6 C    3.929 --   103 C    1.407    97 C    1.407    99 S    0.754
    99  16 S    5.266 --   102 O    1.720   100 O    1.719   101 O    1.014
                            98 C    0.754
   100   8 O    2.077 --    99 S    1.719   102 O    0.139
   101   8 O    2.088 --    99 S    1.014   126 H    0.827
   102   8 O    2.079 --    99 S    1.720   100 O    0.139
   103   6 C    3.989 --   104 C    1.450    98 C    1.407   127 H    0.967
                            96 C    0.106
   104   6 C    3.986 --   103 C    1.450    95 C    1.390   128 H    0.971
                            97 C    0.106
   105   6 C    3.929 --    94 C    1.321   109 N    1.317   106 C    1.116
   106   6 C    3.967 --   107 C    1.725   105 C    1.116   129 H    0.973
   107   6 C    3.966 --   106 C    1.725   108 C    1.115   130 H    0.975
   108   6 C    3.927 --    66 C    1.367   109 N    1.300   107 C    1.115
   109   7 N    3.012 --   105 C    1.317   108 C    1.300
   110   1 H    1.001 --    66 C    0.970
   111   1 H    0.997 --    68 C    0.976
   112   1 H    1.003 --    69 C    0.974
   113   1 H    0.986 --    71 N    0.873
   114   1 H    1.003 --    74 C    0.971
   115   1 H    0.999 --    75 C    0.967
   116   1 H    0.854 --    79 O    0.828
   117   1 H    1.000 --    81 C    0.967
   118   1 H    1.003 --    82 C    0.971
   119   1 H    1.004 --    84 C    0.973
   120   1 H    1.003 --    85 C    0.974
   121   1 H    1.002 --    90 C    0.975
   122   1 H    1.003 --    91 C    0.974
   123   1 H    0.987 --    93 N    0.872
   124   1 H    1.003 --    96 C    0.971
   125   1 H    0.999 --    97 C    0.967
   126   1 H    0.853 --   101 O    0.827
   127   1 H    1.000 --   103 C    0.967
   128   1 H    1.003 --   104 C    0.971
   129   1 H    1.004 --   106 C    0.973
   130   1 H    0.998 --   107 C    0.975
   131   6 C    3.933 --   132 C    2.475   133 C    1.309
   132   6 C    3.926 --   131 C    2.475    23 C    1.189   134 C    0.199
   133   6 C    3.933 --   134 C    2.475   131 C    1.309
   134   6 C    3.926 --   133 C    2.475    88 C    1.189   132 C    0.199
 ---------------------------------------------------------------------------

           -------------------------------------------------
          | TOTAL ENERGY             -262.564145639388 Eh   |
          | GRADIENT NORM               0.000736714745 Eh/α |
          | HOMO-LUMO GAP               1.026083253406 eV   |
           -------------------------------------------------

 * finished run on 2022/07/31 at 23:13:44.763
