   * xtb version 6.5.1 (b24c23e) compiled by 'conda@728c89f4b128' on 2022-07-12
          program call               : xtb Cu_DHP_C4_2.xyz --gfn 1 --opt -T 48

   ID    Z sym.   atoms
    1   29 Cu     1, 59
    2    6 C      2-6, 8-11, 13-17, 19-24, 26-29, 31-36, 60-64, 66-69, 71-75,
                  77-82, 84-87, 89-94, 117-120
    3    7 N      7, 12, 18, 25, 30, 37, 65, 70, 76, 83, 88, 95
    4    1 H      38-58, 96-116
########################################################################
[WARNING] Please study the warnings concerning your input carefully
-1- prog_main_parseArguments: Unknown option '-T' provided
########################################################################

          :  Hamiltonian                  GFN1-xTB          :
 * total energy  :  -204.8008783 Eh     change       -0.7599965E-10 Eh
 * total energy  :  -204.9780509 Eh     change       -0.1771726E+00 Eh
 * total energy  :  -205.0336320 Eh     change       -0.5558109E-01 Eh
 * total energy  :  -205.0562383 Eh     change       -0.2260632E-01 Eh
 * total energy  :  -205.0636070 Eh     change       -0.7368680E-02 Eh
 * total energy  :  -205.0669105 Eh     change       -0.3303465E-02 Eh
 * total energy  :  -205.0702711 Eh     change       -0.3360575E-02 Eh
 * total energy  :  -205.0719530 Eh     change       -0.1681936E-02 Eh
 * total energy  :  -205.0738338 Eh     change       -0.1880784E-02 Eh
 * total energy  :  -205.0751351 Eh     change       -0.1301348E-02 Eh
 * total energy  :  -205.0797610 Eh     change       -0.3378469E-04 Eh
 * total energy  :  -205.0797974 Eh     change       -0.3642523E-04 Eh
 * total energy  :  -205.0798105 Eh     change       -0.1301450E-04 Eh
 * total energy  :  -205.0798320 Eh     change       -0.2158581E-04 Eh
 * total energy  :  -205.0798434 Eh     change       -0.1136120E-04 Eh
 * total energy  :  -205.0798550 Eh     change       -0.1161883E-04 Eh
 * total energy  :  -205.0798692 Eh     change       -0.1414662E-04 Eh
 * total energy  :  -205.0798775 Eh     change       -0.8331971E-05 Eh
 * total energy  :  -205.0798796 Eh     change       -0.2127368E-05 Eh
   *** GEOMETRY OPTIMIZATION CONVERGED AFTER 36 ITERATIONS ***

 final structure:
================
120
 xtb: 6.5.1 (b24c23e)
Cu          13.91568195363632       -0.05092818436643       -0.00906021187813
C           10.51352610833449       -0.06259507621733       -0.14246823306164
C           11.14238424915451       -1.29885907982435       -0.15963661489593
C           10.46073544167341       -2.56110943437219       -0.18252245343809
C           11.41496171513132       -3.52501235269859       -0.19529403615354
C           12.68954434241794       -2.85985079326271       -0.19417532425078
N           12.49176654719524       -1.50896840402667       -0.16188510117410
C           13.93167939361840       -3.49945240643263       -0.21134191210733
C           13.94620768081979       -4.97995951797688       -0.30920070731984
C           13.42269814997741       -5.62112576985358       -1.36488428315478
C           13.41764413675170       -7.12347918563185       -1.47845303926943
N           14.36744162245921       -7.72871286831881       -0.54084593573525
C           14.71947200166659       -7.07433002372716        0.61168556343407
C           14.56881451561491       -5.74656815834560        0.76124583518944
C           15.16600416433981       -2.84865328683762       -0.14798508111798
C           16.44209033915861       -3.50112980434353       -0.22575589818623
C           17.39075171352556       -2.53402673826432       -0.14140150329421
N           15.35808442602900       -1.49760577823704       -0.02700438638393
C           16.70210949324187       -1.28459962841310       -0.01833492913716
C           17.34035167868344       -0.03767554651957        0.10146900786184
C           16.68610985727134        1.20371002112485        0.18926565753393
C           17.35565034558356        2.45756641111319        0.36203134474858
C           16.39599001358831        3.41707952731900        0.38970931102718
C           15.13283565000119        2.75562792283634        0.22540712288539
N           15.34281284206464        1.40640391129293        0.11329378224517
C           13.89234343852973        3.39692663987487        0.20177769614887
C           13.88703115241934        4.87714411368256        0.30476891432233
C           13.28157300876141        5.50924854448628        1.32140691111996
C           13.25216746819703        7.01093735992018        1.43930702548162
N           14.25482581738848        7.63088740569046        0.56862158378481
C           14.69819800785504        6.98282322141487       -0.55535875107586
C           14.57685236249509        5.65335389492055       -0.71625857970296
C           12.65979338639718        2.74865691696093        0.08801302486910
C           11.38475427703763        3.40539756544533       -0.01078172787901
C           10.44121948299164        2.43528518949749       -0.10323977215968
C           11.13104575039413        1.17764271516105       -0.07404632918945
N           12.47452055372738        1.39653892884098        0.03670111620981
H            9.42913387641439       -0.06600708020404       -0.18624901855616
H            9.38856200994983       -2.68063770972117       -0.17742784804974
H           11.27475215713209       -4.59400853746394       -0.19315032225401
H           12.96195672960406       -5.08593074929767       -2.18717060228449
H           13.70464471736008       -7.42673651964390       -2.49437249783095
H           12.40012959248276       -7.51739720129055       -1.29549246225539
H           14.29240245250957       -8.73379443784134       -0.47750555951555
H           15.20598338979700       -7.69554984200087        1.35698070570817
H           14.89872876964839       -5.23933053749531        1.65684291704053
H           16.58959125655441       -4.56279552232464       -0.34101940945251
H           18.46297455961064       -2.64638647909252       -0.16499363815038
H           18.42311816176797        2.57799171084259        0.45625135998892
H           16.52737303427299        4.47927171592704        0.51881174088498
H           12.76749342980928        4.96621784319865        2.10607544498026
H           13.46745534046546        7.31339851343282        2.47322768051435
H           12.24445518912240        7.39404850915024        1.19054389313263
H           14.17046554496819        8.63485553365555        0.50049128961701
H           15.22827179723630        7.61182267339427       -1.26356410158267
H           14.97719495821824        5.15224613588895       -1.58615576837830
H           11.23820870934882        4.47350493068184       -0.02129178682443
H            9.37220195730276        2.54792635072617       -0.19474415270622
Cu          27.37051820732311        0.05225329948657        0.00223761177857
C           30.77277691674660        0.09186071904210       -0.12362750618256
C           30.14381406789958        1.30300327262504        0.12468661996820
C           30.82544552215348        2.54061146085619        0.37392639454538
C           29.87120070074500        3.48494068694789        0.56753769025593
C           28.59664062048555        2.83524792619954        0.42477903897567
N           28.79441970295455        1.50888477638821        0.16650754140659
C           27.35452348916236        3.46389282694438        0.54423209551094
C           27.34015951558708        4.93093355206421        0.76612319661302
C           27.86489760310840        5.78344283048208       -0.12691863202336
C           27.87030769436258        7.27517643937038        0.08447554620612
N           26.91945938285004        7.66550058008566        1.12900392980966
C           26.56606937546236        6.77927904150013        2.11398145259809
C           26.71644757901770        5.45029164525699        1.97543189010269
C           26.12013307683156        2.81485339337032        0.46587839045372
C           24.84408225869782        3.46895276206390        0.52905959008794
C           23.89538704901661        2.50626492049103        0.40418267646578
N           25.92798167017332        1.46924039061894        0.29472833037101
C           24.58398111556386        1.25939523163781        0.25730589937187
C           23.94576617457730        0.01568678776003        0.10726831293383
C           24.60014119547886       -1.21551141581663       -0.07357212360253
C           23.93053493746766       -2.47716117246779       -0.17444213968748
C           24.89015984965851       -3.42022750754215       -0.35365706349114
C           26.15334351135366       -2.73898204797881       -0.37191666840310
N           25.94344267405951       -1.39716406333435       -0.19143114637793
C           27.39380020524506       -3.36036506543550       -0.53257410105858
C           27.39896425961475       -4.82814660671371       -0.74997568444329
C           28.00417445332327       -5.66394724561970        0.10725120644659
C           28.03331163222525       -7.15591806982139       -0.10012749326374
N           27.03045610890469       -7.57424919905498       -1.08352052908231
C           26.58744419379388       -6.69984416230329       -2.04223063495107
C           26.70916255119167       -5.36687113487704       -1.91394117121879
C           28.62643514447187       -2.70297778649129       -0.50396168208523
C           29.90151001759369       -3.32327574691141       -0.74100661569826
C           30.84511584130011       -2.35609881827981       -0.62220572629880
C           30.15527855328222       -1.13404409516896       -0.32374192875181
N           28.81174821419050       -1.37145242055709       -0.26335309388304
H           31.85719885771887        0.10454722340998       -0.16485323493615
H           31.89760935749186        2.65607538962666        0.40550198346890
H           30.01134562907365        4.52852551401919        0.79927302167074
H           28.32648696564177        5.43691298566854       -1.04437041631798
H           27.58458972004269        7.78947576652992       -0.84303930332714
H           28.88765994188165        7.62025192390016        0.34887510039587
H           26.99436880318414        8.63360523054079        1.40646139954434
H           26.07876541657618        7.22635023109263        2.97463773126648
H           26.38550481148080        4.76284788661871        2.74101541729709
H           24.69662730602861        4.53071320038623        0.64355710078014
H           22.82318598954350        2.62121631603752        0.40485079262698
H           22.86305659229798       -2.61491312269133       -0.10831373458398
H           24.75871781677789       -4.48532509901390       -0.45589709248490
H           28.51820383387161       -5.30222009333054        0.99030918229392
H           27.81803178859384       -7.67332904909478        0.84473065511415
H           29.04092917071149       -7.47683517642138       -0.42548110716650
H           27.11480348047860       -8.54014224336294       -1.36575669864402
H           26.05728829720490       -7.16197123805330       -2.86900167559490
H           26.30906659621338       -4.69058938015401       -2.65602037250100
H           30.04806744254621       -4.36415964754336       -0.98084388548492
H           31.91418471437079       -2.44658082467855       -0.73519615957399
C           19.96816930804118       -0.01764319971682        0.13524191450911
C           18.74632769853925       -0.03072361511927        0.12901094818050
C           21.31814811420713       -0.00810004547397        0.13729307906011
C           22.53975855998662        0.00283252954553        0.13139293064887

          :  Hamiltonian                  GFN1-xTB          :
         :: total energy            -205.079879612342 Eh    ::
         :: gradient norm              0.000842988604 Eh/a0 ::
         :: HOMO-LUMO gap              0.003202679656 eV    ::
         :: SCC energy              -208.166627840767 Eh    ::
         :: repulsion energy           3.191551900509 Eh    ::

    * Orbital Energies and Occupations

         #    Occupation            Energy/Eh            Energy/eV
      -------------------------------------------------------------
         1        2.0000           -0.7783067             -21.1788
       ...           ...                  ...                  ...
       178        2.0000           -0.3990425             -10.8585
       179        2.0000           -0.3989982             -10.8573
       180        2.0000           -0.3989970             -10.8573
       181        2.0000           -0.3989241             -10.8553
       182        2.0000           -0.3861226             -10.5069
       183        2.0000           -0.3861203             -10.5069
       184        2.0000           -0.3842308             -10.4555
       185        2.0000           -0.3731009             -10.1526
       186        2.0000           -0.3684089             -10.0249
       187        2.0000           -0.3684043             -10.0248
       188        2.0000           -0.3675502             -10.0015
       189        2.0000           -0.3663254              -9.9682
       190        1.0310           -0.3464559              -9.4275 (HOMO)
       191        0.9690           -0.3463382              -9.4243 (LUMO)
       192                         -0.3286010              -8.9417
       193                         -0.3177847              -8.6474
       194                         -0.3177822              -8.6473
       195                         -0.3146748              -8.5627
       196                         -0.2880603              -7.8385
       197                         -0.2809520              -7.6451
       198                         -0.2627521              -7.1498
       199                         -0.2627494              -7.1498
       200                         -0.2621948              -7.1347
       201                         -0.2610495              -7.1035
       ...                                ...                  ...
       406                          1.5283374              41.5882
      -------------------------------------------------------------
                  HL-Gap            0.0001177 Eh            0.0032 eV

Wiberg/Mayer (AO) data.
largest (>0.10) Wiberg bond orders for each atom

     #   Z sym  total        # sym  WBO       # sym  WBO       # sym  WBO
 ---------------------------------------------------------------------------
     1  29 Cu   2.185 --    37 N    0.505     7 N    0.504    18 N    0.503
                            25 N    0.502
     2   6 C    3.927 --     3 C    1.360    36 C    1.360    38 H    0.971
     3   6 C    3.920 --     2 C    1.360     7 N    1.230     4 C    1.172
     4   6 C    3.955 --     5 C    1.653     3 C    1.172    39 H    0.976
     5   6 C    3.958 --     4 C    1.653     6 C    1.174    40 H    0.974
     6   6 C    3.913 --     8 C    1.319     7 N    1.238     5 C    1.174
     7   7 N    3.242 --     6 C    1.238     3 C    1.230     1 Cu   0.504
     8   6 C    3.935 --    15 C    1.325     6 C    1.319     9 C    1.026
     9   6 C    3.988 --    10 C    1.767    14 C    1.097     8 C    1.026
    10   6 C    3.971 --     9 C    1.767    11 C    1.013    41 H    0.972
    11   6 C    3.961 --    10 C    1.013    42 H    0.976    43 H    0.966
                            12 N    0.949
    12   7 N    3.246 --    13 C    1.159    11 C    0.949    44 H    0.928
                            14 C    0.127
    13   6 C    3.958 --    14 C    1.693    12 N    1.159    45 H    0.971
    14   6 C    3.968 --    13 C    1.693     9 C    1.097    46 H    0.974
                            12 N    0.127
    15   6 C    3.907 --     8 C    1.325    18 N    1.222    16 C    1.181
    16   6 C    3.954 --    17 C    1.641    15 C    1.181    47 H    0.972
    17   6 C    3.957 --    16 C    1.641    19 C    1.187    48 H    0.974
    18   7 N    3.247 --    19 C    1.257    15 C    1.222     1 Cu   0.503
    19   6 C    3.898 --    20 C    1.260    18 N    1.257    17 C    1.187
    20   6 C    3.937 --    19 C    1.260    21 C    1.259   118 C    1.186
    21   6 C    3.898 --    20 C    1.259    25 N    1.257    22 C    1.187
    22   6 C    3.957 --    23 C    1.641    21 C    1.187    49 H    0.974
    23   6 C    3.954 --    22 C    1.641    24 C    1.181    50 H    0.972
    24   6 C    3.907 --    26 C    1.325    25 N    1.222    23 C    1.181
    25   7 N    3.247 --    21 C    1.257    24 C    1.222     1 Cu   0.502
    26   6 C    3.935 --    24 C    1.325    33 C    1.319    27 C    1.026
    27   6 C    3.988 --    28 C    1.767    32 C    1.097    26 C    1.026
    28   6 C    3.971 --    27 C    1.767    29 C    1.013    51 H    0.972
    29   6 C    3.961 --    28 C    1.013    52 H    0.976    53 H    0.966
                            30 N    0.949
    30   7 N    3.247 --    31 C    1.160    29 C    0.949    54 H    0.928
                            32 C    0.127
    31   6 C    3.958 --    32 C    1.693    30 N    1.160    55 H    0.971
    32   6 C    3.968 --    31 C    1.693    27 C    1.097    56 H    0.974
                            30 N    0.127
    33   6 C    3.913 --    26 C    1.319    37 N    1.238    34 C    1.174
    34   6 C    3.958 --    35 C    1.653    33 C    1.174    57 H    0.974
    35   6 C    3.955 --    34 C    1.653    36 C    1.172    58 H    0.976
    36   6 C    3.920 --     2 C    1.360    37 N    1.230    35 C    1.172
    37   7 N    3.242 --    33 C    1.238    36 C    1.230     1 Cu   0.505
    38   1 H    1.002 --     2 C    0.971
    39   1 H    0.998 --     4 C    0.976
    40   1 H    1.007 --     5 C    0.974
    41   1 H    1.004 --    10 C    0.972
    42   1 H    1.019 --    11 C    0.976
    43   1 H    1.008 --    11 C    0.966
    44   1 H    0.964 --    12 N    0.928
    45   1 H    1.001 --    13 C    0.971
    46   1 H    1.003 --    14 C    0.974
    47   1 H    1.006 --    16 C    0.972
    48   1 H    1.003 --    17 C    0.974
    49   1 H    1.003 --    22 C    0.974
    50   1 H    1.006 --    23 C    0.972
    51   1 H    1.003 --    28 C    0.972
    52   1 H    1.019 --    29 C    0.976
    53   1 H    1.008 --    29 C    0.966
    54   1 H    0.964 --    30 N    0.928
    55   1 H    1.001 --    31 C    0.971
    56   1 H    1.003 --    32 C    0.974
    57   1 H    1.007 --    34 C    0.974
    58   1 H    0.998 --    35 C    0.976
    59  29 Cu   2.185 --    95 N    0.505    65 N    0.504    76 N    0.503
                            83 N    0.502
    60   6 C    3.927 --    61 C    1.360    94 C    1.360    96 H    0.971
    61   6 C    3.920 --    60 C    1.360    65 N    1.230    62 C    1.172
    62   6 C    3.955 --    63 C    1.653    61 C    1.172    97 H    0.976
    63   6 C    3.958 --    62 C    1.653    64 C    1.174    98 H    0.974
    64   6 C    3.913 --    66 C    1.319    65 N    1.238    63 C    1.174
    65   7 N    3.242 --    64 C    1.238    61 C    1.230    59 Cu   0.504
    66   6 C    3.935 --    73 C    1.325    64 C    1.319    67 C    1.026
    67   6 C    3.988 --    68 C    1.767    72 C    1.097    66 C    1.026
    68   6 C    3.971 --    67 C    1.767    69 C    1.013    99 H    0.972
    69   6 C    3.961 --    68 C    1.013   100 H    0.976   101 H    0.966
                            70 N    0.949
    70   7 N    3.246 --    71 C    1.159    69 C    0.949   102 H    0.928
                            72 C    0.127
    71   6 C    3.958 --    72 C    1.693    70 N    1.159   103 H    0.971
    72   6 C    3.968 --    71 C    1.693    67 C    1.097   104 H    0.974
                            70 N    0.127
    73   6 C    3.907 --    66 C    1.325    76 N    1.222    74 C    1.181
    74   6 C    3.954 --    75 C    1.641    73 C    1.181   105 H    0.972
    75   6 C    3.957 --    74 C    1.641    77 C    1.187   106 H    0.974
    76   7 N    3.247 --    77 C    1.257    73 C    1.222    59 Cu   0.503
    77   6 C    3.898 --    78 C    1.260    76 N    1.257    75 C    1.187
    78   6 C    3.937 --    77 C    1.260    79 C    1.259   120 C    1.186
    79   6 C    3.898 --    78 C    1.259    83 N    1.257    80 C    1.187
    80   6 C    3.957 --    81 C    1.641    79 C    1.187   107 H    0.974
    81   6 C    3.954 --    80 C    1.641    82 C    1.181   108 H    0.972
    82   6 C    3.907 --    84 C    1.325    83 N    1.222    81 C    1.181
    83   7 N    3.247 --    79 C    1.257    82 C    1.222    59 Cu   0.502
    84   6 C    3.935 --    82 C    1.325    91 C    1.319    85 C    1.026
    85   6 C    3.988 --    86 C    1.767    90 C    1.097    84 C    1.026
    86   6 C    3.971 --    85 C    1.767    87 C    1.013   109 H    0.972
    87   6 C    3.961 --    86 C    1.013   110 H    0.976   111 H    0.966
                            88 N    0.949
    88   7 N    3.247 --    89 C    1.160    87 C    0.949   112 H    0.928
                            90 C    0.127
    89   6 C    3.958 --    90 C    1.693    88 N    1.160   113 H    0.971
    90   6 C    3.968 --    89 C    1.693    85 C    1.097   114 H    0.974
                            88 N    0.127
    91   6 C    3.913 --    84 C    1.319    95 N    1.238    92 C    1.174
    92   6 C    3.958 --    93 C    1.653    91 C    1.174   115 H    0.974
    93   6 C    3.955 --    92 C    1.653    94 C    1.172   116 H    0.976
    94   6 C    3.920 --    60 C    1.360    95 N    1.230    93 C    1.172
    95   7 N    3.242 --    91 C    1.238    94 C    1.230    59 Cu   0.505
    96   1 H    1.002 --    60 C    0.971
    97   1 H    0.998 --    62 C    0.976
    98   1 H    1.007 --    63 C    0.974
    99   1 H    1.004 --    68 C    0.972
   100   1 H    1.019 --    69 C    0.976
   101   1 H    1.008 --    69 C    0.966
   102   1 H    0.964 --    70 N    0.928
   103   1 H    1.001 --    71 C    0.971
   104   1 H    1.003 --    72 C    0.974
   105   1 H    1.006 --    74 C    0.972
   106   1 H    1.003 --    75 C    0.974
   107   1 H    1.003 --    80 C    0.974
   108   1 H    1.006 --    81 C    0.972
   109   1 H    1.003 --    86 C    0.972
   110   1 H    1.019 --    87 C    0.976
   111   1 H    1.008 --    87 C    0.966
   112   1 H    0.964 --    88 N    0.928
   113   1 H    1.001 --    89 C    0.971
   114   1 H    1.003 --    90 C    0.974
   115   1 H    1.007 --    92 C    0.974
   116   1 H    0.998 --    93 C    0.976
   117   6 C    3.936 --   118 C    2.479   119 C    1.306
   118   6 C    3.926 --   117 C    2.479    20 C    1.186   120 C    0.200
   119   6 C    3.936 --   120 C    2.479   117 C    1.306
   120   6 C    3.926 --   119 C    2.479    78 C    1.186   118 C    0.200
 ---------------------------------------------------------------------------

           -------------------------------------------------
          | TOTAL ENERGY             -205.079879612342 Eh   |
          | GRADIENT NORM               0.000842988604 Eh/α |
          | HOMO-LUMO GAP               0.003202679656 eV   |
           -------------------------------------------------

 * finished run on 2022/07/30 at 05:37:24.958
