   * xtb version 6.5.1 (b24c23e) compiled by 'conda@728c89f4b128' on 2022-07-12
          program call               : xtb Zn_H_C8_2.xyz --gfn 1 --opt -T 48

   ID    Z sym.   atoms
    1   30 Zn     1, 37
    2    6 C      2-6, 8-11, 13-18, 20-24, 38-42, 44-47, 49-54, 56-60, 73-80
    3    7 N      7, 12, 19, 25, 43, 48, 55, 61
    4    1 H      26-36, 62-72
########################################################################
[WARNING] Please study the warnings concerning your input carefully
-1- prog_main_parseArguments: Unknown option '-T' provided
########################################################################

          :  Hamiltonian                  GFN1-xTB          :
 * total energy  :  -139.5339099 Eh     change       -0.4232561E-09 Eh
 * total energy  :  -140.0579012 Eh     change       -0.5239912E+00 Eh
 * total energy  :  -140.1594924 Eh     change       -0.1015912E+00 Eh
 * total energy  :  -140.1973808 Eh     change       -0.3788849E-01 Eh
 * total energy  :  -140.2096743 Eh     change       -0.1229350E-01 Eh
 * total energy  :  -140.2173657 Eh     change       -0.7691326E-02 Eh
 * total energy  :  -140.2222363 Eh     change       -0.4870682E-02 Eh
 * total energy  :  -140.2260009 Eh     change       -0.3764599E-02 Eh
 * total energy  :  -140.2284361 Eh     change       -0.2435125E-02 Eh
 * total energy  :  -140.2305628 Eh     change       -0.2126691E-02 Eh
 * total energy  :  -140.2340367 Eh     change       -0.8216213E-05 Eh
 * total energy  :  -140.2340361 Eh     change        0.6185567E-06 Eh
 * total energy  :  -140.2340394 Eh     change       -0.3324727E-05 Eh
 * total energy  :  -140.2340428 Eh     change       -0.3336939E-05 Eh
 * total energy  :  -140.2340280 Eh     change        0.1479612E-04 Eh
 * total energy  :  -140.2340446 Eh     change       -0.1668101E-04 Eh
 * total energy  :  -140.2340312 Eh     change        0.1342177E-04 Eh
 * total energy  :  -140.2340501 Eh     change       -0.1889257E-04 Eh
 * total energy  :  -140.2340548 Eh     change       -0.4687519E-05 Eh
   *** GEOMETRY OPTIMIZATION CONVERGED AFTER 29 ITERATIONS ***

 final structure:
================
80
 xtb: 6.5.1 (b24c23e)
Zn           5.21925366164444       -0.00853482606461       -0.00951319146544
C            1.79280820270380       -0.05208430808456       -0.05201473927332
C            2.43866120029981       -0.92103322758284       -0.92483356047488
C            1.78845764450136       -1.82752913057547       -1.83335949754323
C            2.76535377489992       -2.49153913964402       -2.50067663516453
C            4.02338905355131       -1.99872831227291       -2.00727465273941
N            3.79032697845127       -1.05094610366452       -1.05495162700589
C            5.27846194530006       -2.42256608785074       -2.43104437632190
C            6.51108985678596       -1.97180144508504       -1.97519708514573
C            7.78815825864277       -2.43905820797451       -2.43795906479873
C            8.73563620176836       -1.75501259581252       -1.74716697190702
N            6.70574003318761       -1.01546519925488       -1.01527948470070
C            8.04607083314158       -0.86362910694286       -0.85696855267838
C            8.67161110841838        0.02948302894945        0.03770241406565
C            8.00291708056916        0.91164877460366        0.91101352174183
C            8.64757834288339        1.82015293833793        1.81733418666903
C            7.66624811820977        2.48539820019853        2.47882805192461
C            6.41304550005533        1.98873641504014        1.98231864869789
N            6.65542663340809        1.03452191515535        1.03129570520215
C            5.15842911666453        2.41049104547238        2.40523193041683
C            3.92501798044339        1.95408872955205        1.95238921113340
C            2.64312140013833        2.41318154840374        2.41621265331683
C            1.69996748499101        1.72277098782640        1.72750543676761
C            2.39484233594907        0.83355541758517        0.83515896639659
N            3.73925383753755        0.99840997167092        0.99752901658500
H            0.70739122418637       -0.06700446689516       -0.06427364293042
H            0.71952685503580       -1.93160947893310       -1.93719629091928
H            2.65821993672408       -3.24924478680653       -3.26134695667802
H            5.29767402607291       -3.18936998817609       -3.19945745282697
H            7.92974223734197       -3.19435968747782       -3.19512812244870
H            9.80811940573096       -1.83816996532769       -1.82612365130410
H            9.71550634850368        1.92697401598920        1.92508023074251
H            7.76972123030680        3.24593350347833        3.23695695514878
H            5.13938912449996        3.17800616033897        3.17296406015199
H            2.49792878373456        3.16857834151769        3.17286580135840
H            0.62653035613605        1.79860862064305        1.80627697111827
Zn          23.86718662671272        0.00795631158156       -0.00330504128226
C           27.29361867583722        0.07303966466430       -0.00498062341599
C           26.64618128484413        1.30231727125562       -0.06580041623037
C           27.29478615408726        2.58499766513652       -0.12879051318106
C           26.31671958812040        3.52402813589988       -0.17508991709635
C           25.05954730833118        2.82595263234556       -0.14065326979034
N           25.29428640990499        1.48427552758532       -0.07495104495443
C           23.80373472957057        3.42312575116052       -0.16829766710672
C           22.57187084483653        2.78142952536406       -0.13465757474471
C           21.29399521914684        3.43690591097622       -0.16268274936649
C           20.34768815638234        2.46486934762218       -0.11260392271159
N           22.37886353879446        1.42779154243768       -0.06889223143735
C           21.03877404985369        1.20728134042193       -0.05412812156486
C           20.41490549923454       -0.05618924115258        0.00640794920854
C           21.08514601342809       -1.29555517855422        0.05931696393659
C           20.44214202773984       -2.57827403124930        0.11876467614275
C           21.42467064580244       -3.51421596763809        0.16122285570917
C           22.67698082655269       -2.81112917544263        0.12837473344385
N           22.43287199087579       -1.46567814352629        0.06576091465475
C           23.93233599268958       -3.40612707932126        0.15774396799468
C           25.16496352932416       -2.76233800166898        0.12909699163526
C           26.44766119897994       -3.41252178943860        0.16226346889403
C           27.38961572616970       -2.43723439242242        0.11693683017647
C           26.69318070213822       -1.17984171217036        0.05539742010332
N           25.34905796168218       -1.41268678396361        0.06484155402451
H           28.37900993330793        0.09368751466950       -0.00495419588805
H           28.36353795304703        2.73315363549273       -0.13596750734065
H           26.42252446807291        4.59651792229548       -0.22786452415174
H           23.78321176775200        4.50738989361241       -0.22090271395520
H           21.15110948153297        4.50498298202294       -0.21400673472592
H           19.27506868567992        2.57816609910844       -0.11520762990713
H           19.37440422176770       -2.73115105332644        0.12642423813343
H           21.32253565886970       -4.58705174934967        0.21090961190576
H           23.95268180823212       -4.49047240680032        0.20918795759932
H           26.59416754348278       -4.48028473435196        0.21376021810870
H           28.46318963134509       -2.54502195927908        0.12379315029170
C           10.07675756814404        0.03603401188073        0.05788478060712
C           11.30131651673861        0.02180157389020        0.06532217354742
C           12.64402328674970        0.00430309024379        0.06886136256075
C           13.87437804538597       -0.02034125242886        0.06085666573721
C           15.21242208032617       -0.04278644963267        0.05246796083553
C           16.44272158121477       -0.06522516937842        0.04210343959614
C           17.78560519650022       -0.07415907620742        0.02948994528751
C           19.01009175838630       -0.07641755270444        0.01545036360439

          :  Hamiltonian                  GFN1-xTB          :
         :: total energy            -140.234054800465 Eh    ::
         :: gradient norm              0.000661891530 Eh/a0 ::
         :: HOMO-LUMO gap              1.212422835108 eV    ::
         :: SCC energy              -142.624862571748 Eh    ::
         :: repulsion energy           2.456509450710 Eh    ::

    * Orbital Energies and Occupations

         #    Occupation            Energy/Eh            Energy/eV
      -------------------------------------------------------------
         1        2.0000           -0.7585833             -20.6421
       ...           ...                  ...                  ...
       117        2.0000           -0.4210342             -11.4569
       118        2.0000           -0.4209925             -11.4558
       119        2.0000           -0.4203436             -11.4381
       120        2.0000           -0.4203429             -11.4381
       121        2.0000           -0.4197841             -11.4229
       122        2.0000           -0.4195006             -11.4152
       123        2.0000           -0.4194973             -11.4151
       124        2.0000           -0.4107894             -11.1781
       125        2.0000           -0.4051232             -11.0240
       126        2.0000           -0.3921010             -10.6696
       127        2.0000           -0.3920987             -10.6695
       128        2.0000           -0.3847026             -10.4683
       129        2.0000           -0.3784528             -10.2982 (HOMO)
       130                         -0.3338971              -9.0858 (LUMO)
       131                         -0.3271624              -8.9025
       132                         -0.3245032              -8.8302
       133                         -0.3245002              -8.8301
       134                         -0.2972235              -8.0879
       135                         -0.2962900              -8.0625
       136                         -0.2842141              -7.7339
       137                         -0.2714535              -7.3866
       138                         -0.2216992              -6.0327
       139                         -0.2216958              -6.0326
       140                         -0.2131024              -5.7988
       ...                                ...                  ...
       276                          1.6101849              43.8154
      -------------------------------------------------------------
                  HL-Gap            0.0445557 Eh            1.2124 eV

Wiberg/Mayer (AO) data.
largest (>0.10) Wiberg bond orders for each atom

     #   Z sym  total        # sym  WBO       # sym  WBO       # sym  WBO
 ---------------------------------------------------------------------------
     1  30 Zn   1.997 --    25 N    0.461     7 N    0.460    19 N    0.456
                            12 N    0.456
     2   6 C    3.933 --    24 C    1.358     3 C    1.358    26 H    0.972
     3   6 C    3.922 --     2 C    1.358     7 N    1.238     4 C    1.166
     4   6 C    3.960 --     5 C    1.665     3 C    1.166    27 H    0.976
     5   6 C    3.963 --     4 C    1.665     6 C    1.167    28 H    0.976
     6   6 C    3.919 --     8 C    1.354     7 N    1.239     5 C    1.167
     7   7 N    3.298 --     6 C    1.239     3 C    1.238     1 Zn   0.460
     8   6 C    3.939 --     9 C    1.366     6 C    1.354    29 H    0.971
     9   6 C    3.914 --     8 C    1.366    12 N    1.219    10 C    1.172
    10   6 C    3.959 --    11 C    1.654     9 C    1.172    30 H    0.976
    11   6 C    3.962 --    10 C    1.654    13 C    1.180    31 H    0.974
    12   7 N    3.300 --    13 C    1.269     9 C    1.219     1 Zn   0.456
    13   6 C    3.902 --    12 N    1.269    14 C    1.254    11 C    1.180
    14   6 C    3.944 --    15 C    1.255    13 C    1.254    73 C    1.192
    15   6 C    3.902 --    19 N    1.268    14 C    1.255    16 C    1.180
    16   6 C    3.962 --    17 C    1.654    15 C    1.180    32 H    0.974
    17   6 C    3.959 --    16 C    1.654    18 C    1.172    33 H    0.976
    18   6 C    3.914 --    20 C    1.366    19 N    1.220    17 C    1.172
    19   7 N    3.300 --    15 C    1.268    18 C    1.220     1 Zn   0.456
    20   6 C    3.939 --    18 C    1.366    21 C    1.354    34 H    0.971
    21   6 C    3.919 --    20 C    1.354    25 N    1.239    22 C    1.167
    22   6 C    3.963 --    23 C    1.665    21 C    1.167    35 H    0.976
    23   6 C    3.960 --    22 C    1.665    24 C    1.166    36 H    0.976
    24   6 C    3.922 --     2 C    1.358    25 N    1.238    23 C    1.166
    25   7 N    3.298 --    21 C    1.239    24 C    1.238     1 Zn   0.461
    26   1 H    1.001 --     2 C    0.972
    27   1 H    0.998 --     4 C    0.976
    28   1 H    0.998 --     5 C    0.976
    29   1 H    1.002 --     8 C    0.971
    30   1 H    0.998 --    10 C    0.976
    31   1 H    1.002 --    11 C    0.974
    32   1 H    1.002 --    16 C    0.974
    33   1 H    0.998 --    17 C    0.976
    34   1 H    1.002 --    20 C    0.971
    35   1 H    0.998 --    22 C    0.976
    36   1 H    0.998 --    23 C    0.976
    37  30 Zn   1.997 --    61 N    0.461    43 N    0.460    55 N    0.456
                            48 N    0.456
    38   6 C    3.933 --    60 C    1.358    39 C    1.358    62 H    0.972
    39   6 C    3.922 --    38 C    1.358    43 N    1.238    40 C    1.166
    40   6 C    3.960 --    41 C    1.665    39 C    1.166    63 H    0.976
    41   6 C    3.963 --    40 C    1.665    42 C    1.167    64 H    0.976
    42   6 C    3.919 --    44 C    1.354    43 N    1.239    41 C    1.167
    43   7 N    3.298 --    42 C    1.239    39 C    1.238    37 Zn   0.460
    44   6 C    3.939 --    45 C    1.366    42 C    1.354    65 H    0.971
    45   6 C    3.914 --    44 C    1.366    48 N    1.219    46 C    1.172
    46   6 C    3.959 --    47 C    1.654    45 C    1.172    66 H    0.976
    47   6 C    3.962 --    46 C    1.654    49 C    1.180    67 H    0.974
    48   7 N    3.300 --    49 C    1.269    45 C    1.219    37 Zn   0.456
    49   6 C    3.902 --    48 N    1.269    50 C    1.254    47 C    1.180
    50   6 C    3.944 --    51 C    1.255    49 C    1.254    80 C    1.192
    51   6 C    3.902 --    55 N    1.268    50 C    1.255    52 C    1.180
    52   6 C    3.962 --    53 C    1.654    51 C    1.180    68 H    0.974
    53   6 C    3.959 --    52 C    1.654    54 C    1.172    69 H    0.976
    54   6 C    3.914 --    56 C    1.366    55 N    1.220    53 C    1.172
    55   7 N    3.300 --    51 C    1.268    54 C    1.220    37 Zn   0.456
    56   6 C    3.939 --    54 C    1.366    57 C    1.354    70 H    0.971
    57   6 C    3.919 --    56 C    1.354    61 N    1.239    58 C    1.167
    58   6 C    3.963 --    59 C    1.665    57 C    1.167    71 H    0.976
    59   6 C    3.960 --    58 C    1.665    60 C    1.166    72 H    0.976
    60   6 C    3.922 --    38 C    1.358    61 N    1.238    59 C    1.166
    61   7 N    3.298 --    57 C    1.239    60 C    1.238    37 Zn   0.461
    62   1 H    1.001 --    38 C    0.972
    63   1 H    0.998 --    40 C    0.976
    64   1 H    0.998 --    41 C    0.976
    65   1 H    1.002 --    44 C    0.971
    66   1 H    0.998 --    46 C    0.976
    67   1 H    1.002 --    47 C    0.974
    68   1 H    1.002 --    52 C    0.974
    69   1 H    0.998 --    53 C    0.976
    70   1 H    1.002 --    56 C    0.971
    71   1 H    0.998 --    58 C    0.976
    72   1 H    0.998 --    59 C    0.976
    73   6 C    3.877 --    74 C    2.440    14 C    1.192    76 C    0.187
    74   6 C    3.935 --    73 C    2.440    75 C    1.343
    75   6 C    3.893 --    76 C    2.338    74 C    1.343    78 C    0.182
    76   6 C    3.925 --    75 C    2.338    77 C    1.367    73 C    0.187
    77   6 C    3.925 --    78 C    2.338    76 C    1.367    80 C    0.186
    78   6 C    3.893 --    77 C    2.338    79 C    1.342    75 C    0.182
    79   6 C    3.935 --    80 C    2.440    78 C    1.342
    80   6 C    3.877 --    79 C    2.440    50 C    1.192    77 C    0.186
 ---------------------------------------------------------------------------

           -------------------------------------------------
          | TOTAL ENERGY             -140.234054800465 Eh   |
          | GRADIENT NORM               0.000661891530 Eh/α |
          | HOMO-LUMO GAP               1.212422835108 eV   |
           -------------------------------------------------

 * finished run on 2022/07/30 at 07:04:11.583
