   * xtb version 6.5.1 (b24c23e) compiled by 'conda@728c89f4b128' on 2022-07-12
          program call               : xtb Zn_Ph_C4_3.xyz --gfn 1 --opt -T 48

   ID    Z sym.   atoms
    1   30 Zn     1, 57, 121
    2    6 C      2-6, 8-11, 13-29, 32-37, 58-62, 64-67, 69-85, 88-93,
                  113-120, 122-126, 128-131, 133-149, 152-157
    3    7 N      7, 12, 30, 31, 63, 68, 86, 87, 127, 132, 150, 151
    4    1 H      38-56, 94-112, 158-175

          :  Hamiltonian                  GFN1-xTB          :
 * total energy  :  -289.6782349 Eh     change       -0.3205969E-09 Eh
 * total energy  :  -290.0350780 Eh     change       -0.3568432E+00 Eh
 * total energy  :  -290.1681715 Eh     change       -0.1330934E+00 Eh
 * total energy  :  -290.2466397 Eh     change       -0.7846821E-01 Eh
 * total energy  :  -290.3141462 Eh     change       -0.6750654E-01 Eh
 * total energy  :  -290.3564377 Eh     change       -0.4229152E-01 Eh
 * total energy  :  -290.3790248 Eh     change       -0.2258704E-01 Eh
 * total energy  :  -290.3953581 Eh     change       -0.1633327E-01 Eh
 * total energy  :  -290.4052897 Eh     change       -0.9931670E-02 Eh
 * total energy  :  -290.4148323 Eh     change       -0.9542560E-02 Eh
 * total energy  :  -290.4908175 Eh     change       -0.1056991E-03 Eh
 * total energy  :  -290.4908662 Eh     change       -0.4871455E-04 Eh
 * total energy  :  -290.4909216 Eh     change       -0.5533281E-04 Eh
 * total energy  :  -290.4909451 Eh     change       -0.2351664E-04 Eh
 * total energy  :  -290.4909727 Eh     change       -0.2760863E-04 Eh
 * total energy  :  -290.4909880 Eh     change       -0.1529820E-04 Eh
 * total energy  :  -290.4909990 Eh     change       -0.1102480E-04 Eh
 * total energy  :  -290.4910061 Eh     change       -0.7101994E-05 Eh
 * total energy  :  -290.4910097 Eh     change       -0.3598873E-05 Eh
   *** GEOMETRY OPTIMIZATION CONVERGED AFTER 55 ITERATIONS ***

 final structure:
================
175
 xtb: 6.5.1 (b24c23e)
Zn          28.82691640193816       -0.01352854571700        0.00424072787939
C           25.41576923850207       -0.04125985722438       -0.03368548964936
C           26.04545225709994       -1.27873334249775       -0.09467634672523
C           25.37130198775726       -2.54623451947179       -0.13623500054098
C           26.33022639348685       -3.50516798144690       -0.16935471219728
C           27.60325230178758       -2.83426980249225       -0.15729285524755
N           27.39480777656192       -1.48689112274446       -0.10577358824675
C           28.85374942920595       -3.46385799283480       -0.16443070250564
C           30.09292918126870       -2.81698108048627       -0.10966359422009
C           31.37226153490045       -3.46892802413601       -0.16074497535426
C           32.31920617427918       -2.49779283991586       -0.10340589565815
N           30.28757500026011       -1.46336114142997       -0.03252216767914
C           31.62950562965676       -1.24372165561696       -0.02469649468360
C           32.26116803690893        0.01524750145287        0.03277858717393
C           31.60765837572684        1.26311832152986        0.08766797410161
C           32.27524195392432        2.53107333891152        0.11940950193043
C           31.31148405480737        3.48639710583544        0.16135808142901
C           30.04393871756827        2.80992100049186        0.16298938678396
C           28.79343373556378        3.43679240830893        0.18606889418380
C           28.77879010656278        4.91953950496298        0.26751903115623
C           28.22527688391949        5.67919139616251       -0.76395075425405
C           28.21263098806377        7.06380454296372       -0.68688657855796
C           28.74743628195689        7.70629030777501        0.42149361246592
C           29.29851004734936        6.95780184483422        1.45267096378352
C           29.31705730391502        5.57321135368118        1.37678915287797
C           27.55387298049970        2.78738785913374        0.13835467975440
C           26.26931080239024        3.43264630500143        0.20511656351156
C           25.32736340933549        2.45873596678442        0.13840735702336
C           26.02365139472185        1.20645053279626        0.04018514647050
N           27.36908760516695        1.43862354726912        0.04690493758247
N           30.26217845224233        1.45877491988889        0.10965279430937
C           28.86497492341093       -4.94727055170702       -0.23786599177144
C           28.34452100303861       -5.60338061335330       -1.35422012182691
C           28.35722474540865       -6.98839714859832       -1.42341152262685
C           28.88428335078897       -7.73462676569819       -0.37812997754183
C           29.40209554198296       -7.08952325389910        0.73685960695968
C           29.39566172355826       -5.70450273498980        0.80715903336303
H           24.33010720200004       -0.05083362203828       -0.03193749250520
H           24.30005983080991       -2.67416346808676       -0.13225315734943
H           26.19309575436515       -4.57456679641208       -0.18785939087555
H           31.52471684464475       -4.53307502616566       -0.24288843460586
H           33.39142755370748       -2.61270811143161       -0.11857550473791
H           33.34513740093657        2.66595917499986        0.10477757024668
H           31.44533352798265        4.55609473918372        0.17670550593055
H           27.81840335406627        5.17950014111705       -1.63616954890903
H           27.78419730166955        7.64386990851873       -1.49682576034232
H           28.73492232542829        8.78866566294887        0.48149714716852
H           29.71536956641736        7.45476701874157        2.32175585004185
H           29.73695022412429        4.98987472045696        2.18877990785241
H           26.11317933492575        4.49507078618268        0.30339191646627
H           24.25412447487843        2.56647192764139        0.16065223018681
H           27.94346897866224       -5.02160750856997       -2.17685732665922
H           27.95488400924039       -7.48730576939701       -2.29830978688907
H           28.89143776404618       -8.81731675462975       -0.43234064204270
H           29.81278923505342       -7.66798914594755        1.55702209665326
H           29.79004797642961       -5.20273028292987        1.68392279895625
Zn          55.78601143052833        0.05372439969887        0.01639564522221
C           59.19701824846369        0.07763257915559       -0.04194848325133
C           58.56915490512154        1.31751251952256       -0.04581630868284
C           59.24534293563976        2.58456129771535       -0.03636542941661
C           58.28797474510839        3.54551771309697       -0.02301183928125
C           57.01380368297473        2.87672527749216       -0.03283126230140
N           57.22011763884987        1.52806115652732       -0.04034106590277
C           55.76443200075003        3.50809358321071       -0.00570811009792
C           54.52440863003948        2.86145307041710        0.03108258363118
C           53.24596084911590        3.51697592855386        0.01730253422416
C           52.29762977611983        2.54580777303468        0.04256962236463
N           54.32775447849462        1.50612437540259        0.05368908094289
C           52.98545533224593        1.28844206485896        0.06343829216547
C           52.35193884769635        0.02906618026058        0.07221249740166
C           53.00370720282777       -1.22089623036154        0.06665992982515
C           52.33387084067935       -2.48788048473085        0.04616774354478
C           53.29603014891911       -3.44565626642324        0.03634442715340
C           54.56493075152224       -2.77206837366550        0.05883936655764
C           55.81435996424636       -3.40141561173847        0.04459703106285
C           55.82661420806205       -4.88629939610180        0.05766029163824
C           56.37445959364011       -5.59844277906055       -1.01017667055147
C           56.38386375127825       -6.98516305583629       -0.99774067229867
C           55.85151041490326       -7.67734749774911        0.08154520922280
C           55.30647147050711       -6.97639672313892        1.14872569855631
C           55.29120044982983       -5.58972536614456        1.13749387580073
C           57.05485567814385       -2.75248082181629        0.01844771046623
C           58.33859673174796       -3.40205547934584        0.05008318952749
C           59.28192468594871       -2.42762006820707        0.02110725153728
C           58.58735438911475       -1.17117488331059       -0.01877618476459
N           57.24155224679972       -1.40131796527445       -0.01479599095268
N           54.34890522575726       -1.41950847971168        0.06883779465561
C           55.75602159832590        4.99322142807363       -0.01802829281875
C           56.27393035118816        5.69341051854836       -1.10853574712440
C           56.26460179639479        7.08010734494131       -1.12078184288727
C           55.74328920053044        7.78409788119099       -0.04379380893365
C           55.22794697994419        7.09501144693660        1.04571550786565
C           55.23122936476206        5.70825682464893        1.05920066797979
H           60.28268952427990        0.08551355925477       -0.04593629693959
H           60.31681622630963        2.71055583560382       -0.03255280122607
H           58.42704873257148        4.61447486822536        0.00415778143319
H           53.09475461907980        4.58381441883006       -0.01999133765441
H           51.22556477076323        2.66307069311780        0.04123587721371
H           51.26362712049888       -2.62024572903729        0.03426670170828
H           53.16007062479533       -4.51467460969359        0.00342917366550
H           56.77928115977522       -5.05967922519227       -1.85979327303211
H           56.80785542620440       -7.52789793598585       -1.83532240380045
H           55.86143595839446       -8.76131300848430        0.09089781309150
H           54.89167593489142       -7.51230582640616        1.99536817228800
H           54.87602909987483       -5.04391428679659        1.97751146310439
H           58.49337111519066       -4.46798447394453        0.10135400455510
H           60.35507460373734       -2.53786747213416        0.03318588734905
H           56.67040404703864        5.14493788944564       -1.95590207224762
H           56.66514302066433        7.61350372475183       -1.97591839047360
H           55.73875427114565        8.86811459228999       -0.05349363817324
H           54.82174434196818        7.64030238041254        1.89048597595510
H           54.83913659794803        5.17198587363388        1.91634745925499
C           34.88895017114979        0.03517491280719        0.01268232218877
C           33.66660835096020        0.02734348729107        0.02388669639856
C           36.23817226024092        0.04046108643792        0.00182273545609
C           37.46067834779673        0.04050869761417       -0.00532339771380
C           48.37469427482948        0.01425072845762        0.06548798384597
C           47.15218456743942        0.01229031394307        0.05377521278361
C           49.72398274175917        0.01680976593935        0.07099782601774
C           50.94640806097708        0.01915025205776        0.07315621351277
Zn          42.30691895318616        0.02676893305224        0.00751987275561
C           38.86561635164281        0.03711361020915       -0.00980324656865
C           39.50601632028503       -1.21884531619241       -0.02444247603538
C           38.82498478814220       -2.47956331164471       -0.01740499188105
C           39.77876355588653       -3.44597556149569       -0.03514951377192
C           41.05228721572168       -2.78293032319327       -0.06064703661219
N           40.84925726415166       -1.42857957970819       -0.04716228548592
C           42.29644983143266       -3.42241462072799       -0.06755977850588
C           43.54422206708076       -2.79023924854334       -0.04581145469837
C           44.81394888786180       -3.45898794575008       -0.09682817853617
C           45.77338558565199       -2.49844767621244       -0.06600483031469
N           43.75504083682245       -1.43790914581173        0.00211875932429
C           45.09965050265970       -1.23538454347987       -0.00455744909973
C           45.74724860566486        0.01608967248217        0.04123860841251
C           45.10650180280457        1.27167122882691        0.07383180753575
C           45.78669504495043        2.53043242174312        0.14993568325748
C           44.83289970538357        3.49705897197978        0.15983897722436
C           43.56039256371280        2.83644693408279        0.08126667995793
C           42.31632138953501        3.47638882512953        0.07700738887876
C           42.32095735978368        4.96152878380039        0.10979154098042
C           41.76865406590682        5.64595966774282        1.19314731991697
C           41.77790504535224        7.03238518003250        1.22549651528458
C           42.33253097211628        7.75152826819749        0.17547558187006
C           42.88093869565752        7.07792338322110       -0.90750534361202
C           42.87870052401021        5.69142843605506       -0.94052101844145
C           41.06861824225804        2.84436147695138        0.04865883046297
C           39.79957392318619        3.51474344754026        0.00204587106689
C           38.84021097376749        2.55386754503516       -0.01962197682937
C           39.51354212439855        1.28930024564770        0.00351652067601
N           40.85763934049725        1.49117457625312        0.03929343500438
N           43.76371510049976        1.48274209008175        0.03819559301921
C           42.29197789524311       -4.90770278875857       -0.09664302515912
C           41.75945310839732       -5.59303493456159       -1.18918144311123
C           41.75737668459090       -6.97970065660102       -1.21391039030016
C           42.28053040477925       -7.69791736868167       -0.14720289599974
C           42.80983822012085       -7.02325290090415        0.94456622753576
C           42.81912829005073       -5.63666164343539        0.97002014959451
H           37.75379272480944       -2.60249236186949        0.00456105650606
H           39.63422372204818       -4.51429404617119       -0.02114939609744
H           44.95224862264558       -4.52637849408006       -0.15970176532414
H           46.84395936681921       -2.62649651441184       -0.08921761761416
H           46.85721735918597        2.65212016954347        0.19686773762667
H           44.97692722424081        4.56347287804342        0.22599966305755
H           41.34516382835160        5.08549949430605        2.01927186091500
H           41.35098606194622        7.55358804729108        2.07527398001031
H           42.33742816641497        8.83536334603326        0.20119053745775
H           43.31247995620488        7.63503608176788       -1.73177290498549
H           43.29782216013243        5.16707091391068       -1.79219388056820
H           39.66168765890450        4.58373212720291       -0.02268834313105
H           37.77011218589703        2.68287531003593       -0.05569666428123
H           41.36001063172367       -5.03353677669522       -2.02785817582845
H           41.34575760780153       -7.50189931834747       -2.07059618228973
H           42.27568429091901       -8.78188277886966       -0.16666014421872
H           43.21689521856725       -7.57945901115270        1.78182526487874
H           43.22292006874399       -5.11116096977168        1.82837077344012

          :  Hamiltonian                  GFN1-xTB          :
         :: total energy            -290.491009705951 Eh    ::
         :: gradient norm              0.000606021583 Eh/a0 ::
         :: HOMO-LUMO gap              0.908172815358 eV    ::
         :: SCC energy              -295.382571457464 Eh    ::
         :: repulsion energy           5.049999850063 Eh    ::

    * Orbital Energies and Occupations

         #    Occupation            Energy/Eh            Energy/eV
      -------------------------------------------------------------
         1        2.0000           -0.7585009             -20.6399
       ...           ...                  ...                  ...
       257        2.0000           -0.4189865             -11.4012
       258        2.0000           -0.4188554             -11.3976
       259        2.0000           -0.4188514             -11.3975
       260        2.0000           -0.4180518             -11.3758
       261        2.0000           -0.4177664             -11.3680
       262        2.0000           -0.4174549             -11.3595
       263        2.0000           -0.4131036             -11.2411
       264        2.0000           -0.3919499             -10.6655
       265        2.0000           -0.3914389             -10.6516
       266        2.0000           -0.3914353             -10.6515
       267        2.0000           -0.3880543             -10.5595
       268        2.0000           -0.3802241             -10.3464
       269        2.0000           -0.3713720             -10.1055 (HOMO)
       270                         -0.3379973              -9.1974 (LUMO)
       271                         -0.3278005              -8.9199
       272                         -0.3242546              -8.8234
       273                         -0.3240508              -8.8179
       274                         -0.3240311              -8.8173
       275                         -0.3191526              -8.6846
       276                         -0.2976465              -8.0994
       277                         -0.2897789              -7.8853
       278                         -0.2861467              -7.7864
       279                         -0.2621837              -7.1344
       280                         -0.2621663              -7.1339
       ...                                ...                  ...
       588                          1.5212849              41.3963
      -------------------------------------------------------------
                  HL-Gap            0.0333747 Eh            0.9082 eV

Wiberg/Mayer (AO) data.
largest (>0.10) Wiberg bond orders for each atom

     #   Z sym  total        # sym  WBO       # sym  WBO       # sym  WBO
 ---------------------------------------------------------------------------
     1  30 Zn   1.998 --     7 N    0.460    30 N    0.459    12 N    0.457
                            31 N    0.456
     2   6 C    3.926 --     3 C    1.357    29 C    1.357    38 H    0.971
     3   6 C    3.922 --     2 C    1.357     7 N    1.233     4 C    1.171
     4   6 C    3.960 --     5 C    1.658     3 C    1.171    39 H    0.976
     5   6 C    3.963 --     4 C    1.658     6 C    1.173    40 H    0.973
     6   6 C    3.918 --     8 C    1.314     7 N    1.244     5 C    1.173
     7   7 N    3.293 --     6 C    1.244     3 C    1.233     1 Zn   0.460
     8   6 C    3.933 --     9 C    1.324     6 C    1.314    32 C    1.026
     9   6 C    3.913 --     8 C    1.324    12 N    1.224    10 C    1.179
    10   6 C    3.960 --    11 C    1.646     9 C    1.179    41 H    0.973
    11   6 C    3.962 --    10 C    1.646    13 C    1.187    42 H    0.974
    12   7 N    3.297 --    13 C    1.263     9 C    1.224     1 Zn   0.457
    13   6 C    3.903 --    12 N    1.263    14 C    1.253    11 C    1.187
    14   6 C    3.937 --    15 C    1.253    13 C    1.253   114 C    1.191
    15   6 C    3.903 --    31 N    1.263    14 C    1.253    16 C    1.187
    16   6 C    3.962 --    17 C    1.645    15 C    1.187    43 H    0.974
    17   6 C    3.960 --    16 C    1.645    18 C    1.179    44 H    0.973
    18   6 C    3.913 --    19 C    1.324    31 N    1.224    17 C    1.179
    19   6 C    3.933 --    18 C    1.324    26 C    1.314    20 C    1.027
    20   6 C    3.988 --    21 C    1.395    25 C    1.395    19 C    1.027
                            23 C    0.108
    21   6 C    3.988 --    22 C    1.447    20 C    1.395    45 H    0.973
                            24 C    0.110
    22   6 C    3.995 --    21 C    1.447    23 C    1.438    46 H    0.973
                            25 C    0.110
    23   6 C    3.990 --    22 C    1.438    24 C    1.438    47 H    0.974
                            20 C    0.108
    24   6 C    3.995 --    25 C    1.447    23 C    1.438    48 H    0.973
                            21 C    0.110
    25   6 C    3.988 --    24 C    1.447    20 C    1.395    49 H    0.973
                            22 C    0.110
    26   6 C    3.918 --    19 C    1.314    30 N    1.244    27 C    1.173
    27   6 C    3.963 --    28 C    1.658    26 C    1.173    50 H    0.973
    28   6 C    3.960 --    27 C    1.658    29 C    1.171    51 H    0.976
    29   6 C    3.922 --     2 C    1.357    30 N    1.233    28 C    1.171
    30   7 N    3.293 --    26 C    1.244    29 C    1.233     1 Zn   0.459
    31   7 N    3.297 --    15 C    1.263    18 C    1.224     1 Zn   0.456
    32   6 C    3.988 --    37 C    1.396    33 C    1.396     8 C    1.026
                            35 C    0.108
    33   6 C    3.988 --    34 C    1.447    32 C    1.396    52 H    0.973
                            36 C    0.110
    34   6 C    3.995 --    33 C    1.447    35 C    1.438    53 H    0.973
                            37 C    0.110
    35   6 C    3.990 --    34 C    1.438    36 C    1.438    54 H    0.974
                            32 C    0.108
    36   6 C    3.995 --    37 C    1.447    35 C    1.438    55 H    0.973
                            33 C    0.110
    37   6 C    3.988 --    36 C    1.447    32 C    1.396    56 H    0.973
                            34 C    0.110
    38   1 H    1.002 --     2 C    0.971
    39   1 H    0.998 --     4 C    0.976
    40   1 H    1.005 --     5 C    0.973
    41   1 H    1.005 --    10 C    0.973
    42   1 H    1.003 --    11 C    0.974
    43   1 H    1.003 --    16 C    0.974
    44   1 H    1.005 --    17 C    0.973
    45   1 H    1.005 --    21 C    0.973
    46   1 H    1.003 --    22 C    0.973
    47   1 H    1.003 --    23 C    0.974
    48   1 H    1.003 --    24 C    0.973
    49   1 H    1.005 --    25 C    0.973
    50   1 H    1.005 --    27 C    0.973
    51   1 H    0.998 --    28 C    0.976
    52   1 H    1.005 --    33 C    0.973
    53   1 H    1.003 --    34 C    0.973
    54   1 H    1.003 --    35 C    0.974
    55   1 H    1.003 --    36 C    0.973
    56   1 H    1.005 --    37 C    0.973
    57  30 Zn   1.998 --    63 N    0.460    86 N    0.459    68 N    0.457
                            87 N    0.457
    58   6 C    3.926 --    59 C    1.357    85 C    1.357    94 H    0.971
    59   6 C    3.922 --    58 C    1.357    63 N    1.233    60 C    1.171
    60   6 C    3.960 --    61 C    1.658    59 C    1.171    95 H    0.976
    61   6 C    3.963 --    60 C    1.658    62 C    1.173    96 H    0.973
    62   6 C    3.918 --    64 C    1.314    63 N    1.244    61 C    1.173
    63   7 N    3.293 --    62 C    1.244    59 C    1.233    57 Zn   0.460
    64   6 C    3.933 --    65 C    1.324    62 C    1.314    88 C    1.026
    65   6 C    3.913 --    64 C    1.324    68 N    1.224    66 C    1.179
    66   6 C    3.960 --    67 C    1.645    65 C    1.179    97 H    0.973
    67   6 C    3.962 --    66 C    1.645    69 C    1.187    98 H    0.974
    68   7 N    3.297 --    69 C    1.263    65 C    1.224    57 Zn   0.457
    69   6 C    3.903 --    68 N    1.263    70 C    1.253    67 C    1.187
    70   6 C    3.937 --    71 C    1.253    69 C    1.253   120 C    1.191
    71   6 C    3.903 --    87 N    1.263    70 C    1.253    72 C    1.187
    72   6 C    3.962 --    73 C    1.645    71 C    1.187    99 H    0.974
    73   6 C    3.960 --    72 C    1.645    74 C    1.179   100 H    0.973
    74   6 C    3.913 --    75 C    1.324    87 N    1.224    73 C    1.179
    75   6 C    3.933 --    74 C    1.324    82 C    1.314    76 C    1.027
    76   6 C    3.988 --    81 C    1.395    77 C    1.395    75 C    1.027
                            79 C    0.108
    77   6 C    3.988 --    78 C    1.447    76 C    1.395   101 H    0.973
                            80 C    0.109
    78   6 C    3.995 --    77 C    1.447    79 C    1.438   102 H    0.973
                            81 C    0.110
    79   6 C    3.990 --    80 C    1.438    78 C    1.438   103 H    0.974
                            76 C    0.108
    80   6 C    3.995 --    81 C    1.447    79 C    1.438   104 H    0.973
                            77 C    0.109
    81   6 C    3.988 --    80 C    1.447    76 C    1.395   105 H    0.973
                            78 C    0.110
    82   6 C    3.918 --    75 C    1.314    86 N    1.244    83 C    1.173
    83   6 C    3.963 --    84 C    1.658    82 C    1.173   106 H    0.973
    84   6 C    3.960 --    83 C    1.658    85 C    1.171   107 H    0.976
    85   6 C    3.922 --    58 C    1.357    86 N    1.233    84 C    1.171
    86   7 N    3.293 --    82 C    1.244    85 C    1.233    57 Zn   0.459
    87   7 N    3.297 --    71 C    1.263    74 C    1.224    57 Zn   0.457
    88   6 C    3.988 --    93 C    1.396    89 C    1.396    64 C    1.026
                            91 C    0.108
    89   6 C    3.988 --    90 C    1.447    88 C    1.396   108 H    0.973
                            92 C    0.110
    90   6 C    3.995 --    89 C    1.447    91 C    1.438   109 H    0.973
                            93 C    0.110
    91   6 C    3.990 --    92 C    1.438    90 C    1.438   110 H    0.974
                            88 C    0.108
    92   6 C    3.995 --    93 C    1.447    91 C    1.438   111 H    0.973
                            89 C    0.110
    93   6 C    3.988 --    92 C    1.447    88 C    1.396   112 H    0.973
                            90 C    0.110
    94   1 H    1.002 --    58 C    0.971
    95   1 H    0.998 --    60 C    0.976
    96   1 H    1.005 --    61 C    0.973
    97   1 H    1.005 --    66 C    0.973
    98   1 H    1.003 --    67 C    0.974
    99   1 H    1.003 --    72 C    0.974
   100   1 H    1.005 --    73 C    0.973
   101   1 H    1.005 --    77 C    0.973
   102   1 H    1.003 --    78 C    0.973
   103   1 H    1.003 --    79 C    0.974
   104   1 H    1.003 --    80 C    0.973
   105   1 H    1.005 --    81 C    0.973
   106   1 H    1.005 --    83 C    0.973
   107   1 H    0.998 --    84 C    0.976
   108   1 H    1.005 --    89 C    0.973
   109   1 H    1.003 --    90 C    0.973
   110   1 H    1.003 --    91 C    0.974
   111   1 H    1.003 --    92 C    0.973
   112   1 H    1.005 --    93 C    0.973
   113   6 C    3.934 --   114 C    2.472   115 C    1.311
   114   6 C    3.924 --   113 C    2.472    14 C    1.191   116 C    0.199
   115   6 C    3.931 --   116 C    2.471   113 C    1.311
   116   6 C    3.925 --   115 C    2.471   122 C    1.194   114 C    0.199
   117   6 C    3.931 --   118 C    2.471   119 C    1.311
   118   6 C    3.925 --   117 C    2.471   134 C    1.194   120 C    0.199
   119   6 C    3.934 --   120 C    2.472   117 C    1.311
   120   6 C    3.924 --   119 C    2.472    70 C    1.191   118 C    0.199
   121  30 Zn   1.995 --   132 N    0.457   151 N    0.457   127 N    0.456
                           150 N    0.456
   122   6 C    3.925 --   123 C    1.251   149 C    1.251   116 C    1.194
   123   6 C    3.903 --   127 N    1.264   122 C    1.251   124 C    1.189
   124   6 C    3.960 --   125 C    1.642   123 C    1.189   158 H    0.974
   125   6 C    3.960 --   124 C    1.642   126 C    1.182   159 H    0.973
   126   6 C    3.911 --   128 C    1.320   127 N    1.224   125 C    1.182
   127   7 N    3.291 --   123 C    1.264   126 C    1.224   121 Zn   0.456
   128   6 C    3.928 --   126 C    1.320   129 C    1.320   152 C    1.025
   129   6 C    3.911 --   128 C    1.320   132 N    1.224   130 C    1.182
   130   6 C    3.960 --   131 C    1.642   129 C    1.182   160 H    0.973
   131   6 C    3.960 --   130 C    1.642   133 C    1.189   161 H    0.974
   132   7 N    3.291 --   133 C    1.264   129 C    1.224   121 Zn   0.457
   133   6 C    3.903 --   132 N    1.264   134 C    1.251   131 C    1.189
   134   6 C    3.925 --   133 C    1.251   135 C    1.251   118 C    1.194
   135   6 C    3.903 --   151 N    1.264   134 C    1.251   136 C    1.189
   136   6 C    3.960 --   137 C    1.642   135 C    1.189   162 H    0.974
   137   6 C    3.960 --   136 C    1.642   138 C    1.182   163 H    0.973
   138   6 C    3.911 --   139 C    1.320   151 N    1.224   137 C    1.182
   139   6 C    3.928 --   146 C    1.320   138 C    1.320   140 C    1.025
   140   6 C    3.988 --   145 C    1.396   141 C    1.396   139 C    1.025
                           143 C    0.108
   141   6 C    3.988 --   142 C    1.447   140 C    1.396   164 H    0.973
                           144 C    0.110
   142   6 C    3.995 --   141 C    1.447   143 C    1.438   165 H    0.973
                           145 C    0.110
   143   6 C    3.990 --   144 C    1.438   142 C    1.438   166 H    0.974
                           140 C    0.108
   144   6 C    3.995 --   145 C    1.447   143 C    1.438   167 H    0.973
                           141 C    0.110
   145   6 C    3.988 --   144 C    1.447   140 C    1.396   168 H    0.973
                           142 C    0.110
   146   6 C    3.911 --   139 C    1.320   150 N    1.224   147 C    1.182
   147   6 C    3.960 --   148 C    1.642   146 C    1.182   169 H    0.973
   148   6 C    3.960 --   147 C    1.642   149 C    1.189   170 H    0.974
   149   6 C    3.903 --   150 N    1.264   122 C    1.251   148 C    1.189
   150   7 N    3.291 --   149 C    1.264   146 C    1.224   121 Zn   0.456
   151   7 N    3.291 --   135 C    1.264   138 C    1.224   121 Zn   0.457
   152   6 C    3.988 --   153 C    1.396   157 C    1.396   128 C    1.025
                           155 C    0.108
   153   6 C    3.988 --   154 C    1.447   152 C    1.396   171 H    0.973
                           156 C    0.110
   154   6 C    3.995 --   153 C    1.447   155 C    1.438   172 H    0.973
                           157 C    0.110
   155   6 C    3.990 --   154 C    1.438   156 C    1.438   173 H    0.974
                           152 C    0.108
   156   6 C    3.995 --   157 C    1.447   155 C    1.438   174 H    0.973
                           153 C    0.110
   157   6 C    3.988 --   156 C    1.447   152 C    1.396   175 H    0.973
                           154 C    0.110
   158   1 H    1.003 --   124 C    0.974
   159   1 H    1.005 --   125 C    0.973
   160   1 H    1.005 --   130 C    0.973
   161   1 H    1.003 --   131 C    0.974
   162   1 H    1.003 --   136 C    0.974
   163   1 H    1.005 --   137 C    0.973
   164   1 H    1.005 --   141 C    0.973
   165   1 H    1.003 --   142 C    0.973
   166   1 H    1.003 --   143 C    0.974
   167   1 H    1.003 --   144 C    0.973
   168   1 H    1.005 --   145 C    0.973
   169   1 H    1.005 --   147 C    0.973
   170   1 H    1.003 --   148 C    0.974
   171   1 H    1.005 --   153 C    0.973
   172   1 H    1.003 --   154 C    0.973
   173   1 H    1.003 --   155 C    0.974
   174   1 H    1.003 --   156 C    0.973
   175   1 H    1.005 --   157 C    0.973
 ---------------------------------------------------------------------------

           -------------------------------------------------
          | TOTAL ENERGY             -290.491009705951 Eh   |
          | GRADIENT NORM               0.000606021583 Eh/α |
          | HOMO-LUMO GAP               0.908172815358 eV   |
           -------------------------------------------------

 * finished run on 2022/07/30 at 11:23:35.867
