   * xtb version 6.5.1 (b24c23e) compiled by 'conda@728c89f4b128' on 2022-07-12
          program call               : xtb Cu_C2Py_C8_3.xyz --gfn 1 --opt -T 48

   ID    Z sym.   atoms
    1   29 Cu     1, 59, 133
    2    6 C      2-6, 8-13, 15-19, 21-26, 28-33, 35-40, 60-64, 66-71, 73-77,
                  79-84, 86-91, 93-98, 117-132, 134-138, 140-145, 147-151,
                  153-158, 160-165, 167-172
    3    7 N      7, 14, 20, 27, 34, 41, 65, 72, 78, 85, 92, 99, 139, 146,
                  152, 159, 166, 173
    4    1 H      42-58, 100-116, 174-189

          :  Hamiltonian                  GFN1-xTB          :
 * total energy  :  -345.5700831 Eh     change       -0.1782951E-08 Eh
 * total energy  :  -345.9714698 Eh     change       -0.4013867E+00 Eh
 * total energy  :  -346.1438210 Eh     change       -0.1723512E+00 Eh
 * total energy  :  -346.2507858 Eh     change       -0.1069648E+00 Eh
 * total energy  :  -346.3430554 Eh     change       -0.9226954E-01 Eh
 * total energy  :  -346.4080229 Eh     change       -0.6496754E-01 Eh
 * total energy  :  -346.4475255 Eh     change       -0.3950254E-01 Eh
 * total energy  :  -346.4775996 Eh     change       -0.3007417E-01 Eh
 * total energy  :  -346.4983913 Eh     change       -0.2079165E-01 Eh
 * total energy  :  -346.5115362 Eh     change       -0.1314495E-01 Eh
 * total energy  :  -346.5494921 Eh     change       -0.1625075E-04 Eh
 * total energy  :  -346.5495030 Eh     change       -0.1088657E-04 Eh
 * total energy  :  -346.5495098 Eh     change       -0.6854933E-05 Eh
 * total energy  :  -346.5495173 Eh     change       -0.7474877E-05 Eh
 * total energy  :  -346.5495291 Eh     change       -0.1173624E-04 Eh
 * total energy  :  -346.5495439 Eh     change       -0.1485673E-04 Eh
 * total energy  :  -346.5495581 Eh     change       -0.1418857E-04 Eh
 * total energy  :  -346.5495700 Eh     change       -0.1193627E-04 Eh
 * total energy  :  -346.5495730 Eh     change       -0.2937144E-05 Eh
   *** GEOMETRY OPTIMIZATION CONVERGED AFTER 122 ITERATIONS ***

 final structure:
================
189
 xtb: 6.5.1 (b24c23e)
Cu          27.16450020819629       -0.14595611349473       -0.09816150359830
C           23.74931092377726       -0.09976040385066       -0.06194617901976
C           24.39484114962857        0.77905982415151        0.79454556995511
C           23.73505238367533        1.69373670982843        1.68167167818634
C           24.70661380214252        2.37041686548827        2.34480222312195
C           25.96429312980827        1.87215089147012        1.86672423413640
N           25.75008085240296        0.91096756502072        0.92863311092996
C           27.22059438266567        2.31490342061226        2.31075567613768
C           27.24069191565801        3.32148607782727        3.30221665491234
C           27.25003431249643        4.18366145855665        4.15601078035676
C           27.25612586667928        5.18450554464729        5.15447193473619
C           28.45466690351199        5.68795065515578        5.67351485119281
C           28.40330702792354        6.66472795556829        6.65194740736766
N           27.26305744057159        7.15614511982540        7.13052584359404
C           26.11932913431078        6.68316712558728        6.64183010421639
C           26.06120231959937        5.70729940228203        5.66298297336369
C           28.45497788259576        1.83210208801143        1.85019278715423
C           29.73040064655099        2.29048270775525        2.31372643157450
C           30.67359472962951        1.58629715958925        1.63588705311623
N           28.63193885947176        0.86421977769579        0.90419570213190
C           29.97674067051778        0.69687665991820        0.75622475146843
C           30.60179402293845       -0.20442023500247       -0.12265994489453
C           29.93300725128091       -1.07996049652034       -0.99577930696335
C           30.58649901250936       -1.98810264135862       -1.88950833697567
C           29.61036719354748       -2.65468243236040       -2.55846828982073
C           28.35808544292942       -2.15610708513099       -2.07397561463451
N           28.58137367827153       -1.19985820377759       -1.12590836207530
C           27.10173984045807       -2.59839598594266       -2.51580929384949
C           27.07906254384330       -3.60259655479599       -3.50960680236879
C           27.06922203452865       -4.46398764989370       -4.36417724591695
C           27.06166813675255       -5.47064286349631       -5.35674873667770
C           28.25580031679066       -5.99852580937844       -5.86191933985635
C           28.19608398818106       -6.98425398096438       -6.83070519613849
N           27.05150834753481       -7.46183448477574       -7.31302896170621
C           25.91210168487177       -6.96462611649647       -6.83857480611011
C           25.86232780419282       -5.97799311020139       -5.86998822700556
C           25.86764134863152       -2.12231796030745       -2.04562916704685
C           24.58709755374852       -2.58514532811318       -2.49770273465565
C           23.64865673787284       -1.88704069588350       -1.80946645657598
C           24.35188757603624       -0.99344220670974       -0.93424614341534
N           25.69978901081924       -1.15997959347138       -1.09929412705742
H           22.66427598344987       -0.08590843726442       -0.04906701252861
H           22.66522271525178        1.79473563832537        1.77462330752839
H           24.59512255604267        3.13962947399885        3.09246102183716
H           29.40586907214008        5.31577546718237        5.31258401391953
H           29.31777530086613        7.07290731170050        7.07272511161205
H           25.20769944543339        7.10592609288527        7.05432616708619
H           25.10743722731736        5.35031957493413        5.29343998609375
H           29.87517159988914        3.05342739405753        3.06189719413153
H           31.74657923581476        1.65590417255685        1.71660531249423
H           31.65508980981145       -2.09461035553129       -1.98605434545917
H           29.71879714216029       -3.41721596884497       -3.31313309094987
H           29.21012049897767       -5.63834224823886       -5.49698603074953
H           29.10696354577482       -7.41181037089200       -7.23986607973301
H           24.99688743839536       -7.37651906762457       -7.25409830332424
H           24.91169293497863       -5.60170357752153       -5.51180003801311
H           24.43920748495012       -3.34755003922499       -3.24603907698695
H           22.57472212218871       -1.96003445244524       -1.87819563448506
Cu          64.40019692536856       -0.21406915212815       -0.12992377685870
C           67.81571356515708       -0.23630519293535       -0.12499710474047
C           67.18443617048375       -1.42945489633193       -0.44212290094349
C           67.85870808422213       -2.65442824860387       -0.76435453274892
C           66.89797607717384       -3.58141131433410       -1.00802063731893
C           65.63263828406221       -2.92744863751378       -0.83593854531670
N           65.83148499794203       -1.62592976858894       -0.49480541863212
C           64.38342875482891       -3.54779934211473       -0.99579646977296
C           64.37457394241524       -4.91598638830946       -1.34875554014151
C           64.36483724857533       -6.09125444058226       -1.65042580519746
C           64.34734984011510       -7.46084815546090       -2.00050490927683
C           63.14067029362651       -8.15048435498705       -2.16798281341445
C           63.17626838940105       -9.49027411326064       -2.51078214314409
N           64.30879480508277      -10.16508394439788       -2.69172782022274
C           65.46006170677343       -9.51662755234220       -2.53458357733058
C           65.53394444645612       -8.17803739551729       -2.19284058569403
C           63.14182504285850       -2.91477796899129       -0.83191672771577
C           61.87385270309233       -3.55958589933596       -0.99920283680409
C           60.91969360469395       -2.62297554350726       -0.76023619018729
N           62.94956793100220       -1.60595345024333       -0.49554942618299
C           61.60235428818457       -1.40405903677312       -0.44603160796668
C           60.96240195798827       -0.19082525102767       -0.13796675975606
C           61.61660000188088        1.01340184895018        0.17410537874444
C           60.94871404967658        2.24067780775492        0.48739005932361
C           61.91419402499000        3.16380334851090        0.73354604755408
C           63.17426338826402        2.50242737349583        0.57085674152140
N           62.96616257547656        1.19712607832208        0.23032923636171
C           64.42362714849710        3.11841345756223        0.74004087207103
C           64.43433099878769        4.48624202323405        1.09433637840699
C           64.44730284618281        5.66154344824291        1.39581205958700
C           64.46637644817415        7.03141471563780        1.74471107669998
C           63.28033416962359        7.75063577009309        1.93295987682900
C           63.35527179470832        9.09002592442015        2.27122562721636
N           64.50710735592361        9.73748749642020        2.42858327124982
C           65.63906933527082        9.06073279998332        2.25163658879886
C           65.67360952991643        7.71992896888975        1.91261645054424
C           65.66516919807128        2.48203731372172        0.58211698886745
C           66.93841773812922        3.11981599963006        0.75699335692206
C           67.88783337391285        2.18086318511482        0.51492494754647
C           67.19879716227543        0.96467479562923        0.19076699784754
N           65.84829306683403        1.17835794159621        0.24051148625279
H           68.90089004520563       -0.24315373743099       -0.12368751623871
H           68.93004744380389       -2.77524624083913       -0.79620221649505
H           67.02136097792464       -4.61755837378468       -1.28061174798994
H           62.19543427893341       -7.63944039707240       -2.03020227324504
H           62.25516503163595      -10.04976366181059       -2.64663858897596
H           66.36491599905848      -10.09722158842976       -2.68979168839553
H           66.49352840706950       -7.68921905080910       -2.07509270420124
H           61.74087475904873       -4.59600169309139       -1.26549756308653
H           59.84805766623784       -2.73779134587022       -0.79150475636438
H           59.87845294739975        2.36916041483083        0.51336194266084
H           61.79400385571491        4.20121160539818        1.00210187642709
H           62.32037084135223        7.26271694715257        1.81466135330620
H           62.45090936915970        9.67219706785412        2.42329249083932
H           66.56066360491901        9.61938047620155        2.38770397127788
H           66.61847291237348        7.20736908805361        1.77786824037252
H           67.07458871746394        4.15420331447519        1.03015563598627
H           68.96054299853257        2.28812725385004        0.54905970967546
C           32.00781888855779       -0.23406411240961       -0.13264436213885
C           33.23118834973126       -0.27106274209696       -0.14681228980195
C           34.57380764318926       -0.31012989021720       -0.17027108754171
C           35.80305791343877       -0.35111958053024       -0.19595839334869
C           37.14009348754829       -0.40172432248938       -0.23379815118648
C           38.36895106765697       -0.44652297394358       -0.27135399042453
C           39.71074591057220       -0.49319955283545       -0.31161318402603
C           40.93381224963864       -0.53105437448625       -0.34815548554652
C           50.62802656455337       -0.42465796974940       -0.28557343514995
C           51.85052271459821       -0.36907357427863       -0.25210836895466
C           53.19222028888872       -0.31519495799442       -0.22169275735100
C           54.42146284968024       -0.26894260270943       -0.19912537285395
C           55.75921066406806       -0.23296275819724       -0.17541893661455
C           56.98899449811400       -0.20251696210794       -0.16143418519320
C           58.33217830578798       -0.18843847703968       -0.15149169095300
C           59.55617228210158       -0.18433191775148       -0.14229731920871
Cu          45.78227846361805       -0.56327339444433       -0.37851851942123
C           42.33910258612860       -0.56022648350913       -0.37175197388146
C           42.98555248203018        0.15070951546747       -1.39823580408562
C           42.30966680180464        0.86750121457076       -2.43733173044763
C           43.26944968769174        1.40651116418082       -3.23337587233808
C           44.53327310354175        1.02521471262867       -2.67795129324829
N           44.33347822271094        0.26086345438003       -1.56550630126008
C           45.77966783653673        1.39995697003896       -3.20338700189798
C           45.77751374591603        2.18480447349970       -4.37876165733582
C           45.77297077857465        2.84423449774127       -5.39733298526376
C           45.76133198373258        3.60729009860969       -6.58749793538317
C           46.95076305546048        4.00835298967755       -7.20691019258081
C           46.88209503804480        4.74892489799355       -8.37349530361742
N           45.73335213703707        5.10408359769066       -8.94344165204230
C           44.59816379283162        4.72778047185077       -8.35999383704923
C           44.55734821657374        3.98619816819928       -7.19288382300645
C           47.02673419976689        1.06330970309274       -2.65479543384710
C           48.28874343448433        1.48267018737611       -3.18631748108671
C           49.24928757266608        0.96710612884516       -2.37579049723829
N           47.22849718541042        0.30168135500384       -1.54083254160504
C           48.57579960213862        0.22688161706179       -1.35156846794904
C           49.22375020475273       -0.47683333897139       -0.32091397201246
C           48.57804417804778       -1.23589995169253        0.67111290808577
C           49.25425137217710       -1.97434052323314        1.69479899311475
C           48.29564391124097       -2.57892618724020        2.44376884570008
C           47.03205217265773       -2.20568661399808        1.88247720988563
N           47.23095919507450       -1.39089572616817        0.80615751931468
C           45.78637866516704       -2.61514673353731        2.38264806312609
C           45.78694625362711       -3.47648396909045        3.50315223868654
C           45.78332504227596       -4.22370755856258        4.45914274464483
C           45.77590360542816       -5.09821653952166        5.57001429038025
C           44.57464665828316       -5.54638317523386        6.13193168000486
C           44.62084233896214       -6.40465940598459        7.21596358099314
N           45.75869260971452       -6.83109280004460        7.75828348519500
C           46.90487942216283       -6.40920232478482        7.23019501273365
C           46.96817221980407       -5.55094754401854        6.14694741075301
C           44.53844312172757       -2.23444863160520        1.86533617141234
C           43.27607772026960       -2.63573491348388        2.40989975368858
C           42.31431900675931       -2.05359305746391        1.64734992591012
C           42.98757936047964       -1.30128317837368        0.63189604771967
N           44.33583681247295       -1.42586251240931        0.78527707512926
H           41.23864052341701        0.93977112528383       -2.53876591943532
H           43.14249114596328        2.01167074415431       -4.11678361380048
H           47.90851830014524        3.74039454294114       -6.77740538610571
H           47.78919086268273        5.07227468954013       -8.87602492426646
H           43.67921403565129        5.03485372591121       -8.85105789802883
H           43.61011349303113        3.70073056665078       -6.75146515187547
H           48.41397034089270        2.09497388102767       -4.06505221746678
H           50.31942168253615        1.07010729188043       -2.45826868944382
H           50.32477586674079       -2.02078461013601        1.81489907567632
H           48.42302333479069       -3.21881071844374        3.30230742546273
H           43.62531077277657       -5.22430742818172        5.72127584692622
H           43.70416471872078       -6.76831748294302        7.67134521011672
H           47.81430690040552       -6.77659374696939        7.69696285057553
H           47.92387660714180       -5.23269611985405        5.74830522086130
H           43.15119479409876       -3.27765740523115        3.26727416281178
H           41.24361584166595       -2.12479093715825        1.75279236620228

          :  Hamiltonian                  GFN1-xTB          :
         :: total energy            -346.549572980152 Eh    ::
         :: gradient norm              0.000820812107 Eh/a0 ::
         :: HOMO-LUMO gap              0.000005657681 eV    ::
         :: SCC energy              -352.623832321938 Eh    ::
         :: repulsion energy           6.231283997465 Eh    ::

    * Orbital Energies and Occupations

         #    Occupation            Energy/Eh            Energy/eV
      -------------------------------------------------------------
         1        2.0000           -0.7735922             -21.0505
       ...           ...                  ...                  ...
       311        2.0000           -0.4169361             -11.3454
       312        2.0000           -0.4167098             -11.3393
       313        2.0000           -0.4165558             -11.3351
       314        2.0000           -0.4165136             -11.3339
       315        2.0000           -0.4134059             -11.2493
       316        2.0000           -0.4044505             -11.0057
       317        2.0000           -0.4044468             -11.0056
       318        2.0000           -0.4043431             -11.0027
       319        2.0000           -0.3922565             -10.6738
       320        2.0000           -0.3917048             -10.6588
       321        2.0000           -0.3884630             -10.5706
       322        1.0201           -0.3652142              -9.9380
       323        0.9900           -0.3651499              -9.9362 (HOMO)
       324        0.9899           -0.3651497              -9.9362 (LUMO)
       325                         -0.3467890              -9.4366
       326                         -0.3449793              -9.3874
       327                         -0.3449772              -9.3873
       328                         -0.3446409              -9.3782
       329                         -0.3424513              -9.3186
       330                         -0.3416628              -9.2971
       331                         -0.3237436              -8.8095
       332                         -0.3171975              -8.6314
       333                         -0.3170642              -8.6278
       334                         -0.2993616              -8.1460
       ...                                ...                  ...
       671                          1.6001912              43.5434
      -------------------------------------------------------------
                  HL-Gap            0.0000002 Eh            0.0000 eV

Wiberg/Mayer (AO) data.
largest (>0.10) Wiberg bond orders for each atom

     #   Z sym  total        # sym  WBO       # sym  WBO       # sym  WBO
 ---------------------------------------------------------------------------
     1  29 Cu   2.180 --     7 N    0.503    41 N    0.503    27 N    0.501
                            20 N    0.501
     2   6 C    3.930 --     3 C    1.364    40 C    1.364    42 H    0.971
     3   6 C    3.908 --     2 C    1.364     7 N    1.219     4 C    1.173
     4   6 C    3.955 --     5 C    1.650     3 C    1.173    43 H    0.975
     5   6 C    3.957 --     4 C    1.650     6 C    1.180    44 H    0.974
     6   6 C    3.904 --     8 C    1.269     7 N    1.258     5 C    1.180
     7   7 N    3.243 --     6 C    1.258     3 C    1.219     1 Cu   0.503
     8   6 C    3.933 --    17 C    1.276     6 C    1.269     9 C    1.159
     9   6 C    3.958 --    10 C    2.626     8 C    1.159
    10   6 C    3.933 --     9 C    2.626    11 C    1.141
    11   6 C    3.987 --    12 C    1.351    16 C    1.350    10 C    1.141
    12   6 C    3.973 --    13 C    1.457    11 C    1.351    45 H    0.974
                            15 C    0.104
    13   6 C    3.973 --    12 C    1.457    14 N    1.407    46 H    0.972
                            16 C    0.104
    14   7 N    2.994 --    13 C    1.407    15 C    1.407
    15   6 C    3.973 --    16 C    1.457    14 N    1.407    47 H    0.972
                            12 C    0.104
    16   6 C    3.973 --    15 C    1.457    11 C    1.350    48 H    0.974
                            13 C    0.104
    17   6 C    3.898 --     8 C    1.276    20 N    1.239    18 C    1.188
    18   6 C    3.954 --    19 C    1.637    17 C    1.188    49 H    0.974
    19   6 C    3.956 --    18 C    1.637    21 C    1.189    50 H    0.974
    20   7 N    3.246 --    21 C    1.246    17 C    1.239     1 Cu   0.501
    21   6 C    3.888 --    22 C    1.262    20 N    1.246    19 C    1.189
    22   6 C    3.938 --    21 C    1.262    23 C    1.262   117 C    1.185
    23   6 C    3.887 --    22 C    1.262    27 N    1.246    24 C    1.189
    24   6 C    3.956 --    25 C    1.637    23 C    1.189    51 H    0.974
    25   6 C    3.954 --    24 C    1.637    26 C    1.188    52 H    0.974
    26   6 C    3.897 --    28 C    1.276    27 N    1.239    25 C    1.188
    27   7 N    3.246 --    23 C    1.246    26 C    1.239     1 Cu   0.501
    28   6 C    3.933 --    26 C    1.276    37 C    1.270    29 C    1.159
    29   6 C    3.958 --    30 C    2.626    28 C    1.159
    30   6 C    3.933 --    29 C    2.626    31 C    1.141
    31   6 C    3.987 --    36 C    1.351    32 C    1.350    30 C    1.141
    32   6 C    3.973 --    33 C    1.457    31 C    1.350    53 H    0.974
                            35 C    0.104
    33   6 C    3.973 --    32 C    1.457    34 N    1.407    54 H    0.972
                            36 C    0.104
    34   7 N    2.994 --    35 C    1.407    33 C    1.407
    35   6 C    3.973 --    36 C    1.457    34 N    1.407    55 H    0.972
                            32 C    0.104
    36   6 C    3.974 --    35 C    1.457    31 C    1.351    56 H    0.974
                            33 C    0.104
    37   6 C    3.904 --    28 C    1.270    41 N    1.258    38 C    1.180
    38   6 C    3.957 --    39 C    1.650    37 C    1.180    57 H    0.974
    39   6 C    3.955 --    38 C    1.650    40 C    1.173    58 H    0.976
    40   6 C    3.908 --     2 C    1.364    41 N    1.220    39 C    1.173
    41   7 N    3.243 --    37 C    1.258    40 C    1.220     1 Cu   0.503
    42   1 H    1.001 --     2 C    0.971
    43   1 H    0.997 --     4 C    0.975
    44   1 H    1.003 --     5 C    0.974
    45   1 H    1.002 --    12 C    0.974
    46   1 H    1.013 --    13 C    0.972
    47   1 H    1.013 --    15 C    0.972
    48   1 H    1.002 --    16 C    0.974
    49   1 H    1.002 --    18 C    0.974
    50   1 H    1.001 --    19 C    0.974
    51   1 H    1.002 --    24 C    0.974
    52   1 H    1.003 --    25 C    0.974
    53   1 H    1.002 --    32 C    0.974
    54   1 H    1.013 --    33 C    0.972
    55   1 H    1.013 --    35 C    0.972
    56   1 H    1.002 --    36 C    0.974
    57   1 H    1.002 --    38 C    0.974
    58   1 H    0.997 --    39 C    0.976
    59  29 Cu   2.180 --    99 N    0.503    65 N    0.503    78 N    0.501
                            85 N    0.501
    60   6 C    3.930 --    98 C    1.364    61 C    1.364   100 H    0.971
    61   6 C    3.908 --    60 C    1.364    65 N    1.220    62 C    1.173
    62   6 C    3.955 --    63 C    1.650    61 C    1.173   101 H    0.975
    63   6 C    3.957 --    62 C    1.650    64 C    1.180   102 H    0.974
    64   6 C    3.904 --    66 C    1.270    65 N    1.258    63 C    1.180
    65   7 N    3.243 --    64 C    1.258    61 C    1.220    59 Cu   0.503
    66   6 C    3.933 --    75 C    1.276    64 C    1.270    67 C    1.159
    67   6 C    3.958 --    68 C    2.626    66 C    1.159
    68   6 C    3.933 --    67 C    2.626    69 C    1.141
    69   6 C    3.987 --    74 C    1.351    70 C    1.350    68 C    1.141
    70   6 C    3.973 --    71 C    1.457    69 C    1.350   103 H    0.974
                            73 C    0.104
    71   6 C    3.973 --    70 C    1.457    72 N    1.407   104 H    0.972
                            74 C    0.104
    72   7 N    2.994 --    73 C    1.407    71 C    1.407
    73   6 C    3.973 --    74 C    1.457    72 N    1.407   105 H    0.972
                            70 C    0.104
    74   6 C    3.973 --    73 C    1.457    69 C    1.351   106 H    0.974
                            71 C    0.104
    75   6 C    3.897 --    66 C    1.276    78 N    1.239    76 C    1.188
    76   6 C    3.954 --    77 C    1.637    75 C    1.188   107 H    0.974
    77   6 C    3.956 --    76 C    1.637    79 C    1.189   108 H    0.974
    78   7 N    3.246 --    79 C    1.246    75 C    1.239    59 Cu   0.501
    79   6 C    3.887 --    80 C    1.261    78 N    1.246    77 C    1.189
    80   6 C    3.938 --    81 C    1.262    79 C    1.261   132 C    1.186
    81   6 C    3.888 --    80 C    1.262    85 N    1.246    82 C    1.189
    82   6 C    3.956 --    83 C    1.637    81 C    1.189   109 H    0.974
    83   6 C    3.954 --    82 C    1.637    84 C    1.188   110 H    0.974
    84   6 C    3.897 --    86 C    1.276    85 N    1.239    83 C    1.188
    85   7 N    3.246 --    81 C    1.246    84 C    1.239    59 Cu   0.501
    86   6 C    3.933 --    84 C    1.276    95 C    1.269    87 C    1.159
    87   6 C    3.958 --    88 C    2.626    86 C    1.159
    88   6 C    3.933 --    87 C    2.626    89 C    1.141
    89   6 C    3.987 --    90 C    1.350    94 C    1.350    88 C    1.141
    90   6 C    3.973 --    91 C    1.457    89 C    1.350   111 H    0.974
                            93 C    0.104
    91   6 C    3.973 --    90 C    1.457    92 N    1.407   112 H    0.972
                            94 C    0.104
    92   7 N    2.994 --    91 C    1.407    93 C    1.407
    93   6 C    3.973 --    94 C    1.457    92 N    1.407   113 H    0.972
                            90 C    0.104
    94   6 C    3.973 --    93 C    1.457    89 C    1.350   114 H    0.974
                            91 C    0.104
    95   6 C    3.904 --    86 C    1.269    99 N    1.258    96 C    1.180
    96   6 C    3.957 --    97 C    1.650    95 C    1.180   115 H    0.974
    97   6 C    3.955 --    96 C    1.650    98 C    1.173   116 H    0.975
    98   6 C    3.908 --    60 C    1.364    99 N    1.219    97 C    1.173
    99   7 N    3.243 --    95 C    1.258    98 C    1.219    59 Cu   0.503
   100   1 H    1.001 --    60 C    0.971
   101   1 H    0.997 --    62 C    0.975
   102   1 H    1.002 --    63 C    0.974
   103   1 H    1.002 --    70 C    0.974
   104   1 H    1.013 --    71 C    0.972
   105   1 H    1.013 --    73 C    0.972
   106   1 H    1.002 --    74 C    0.974
   107   1 H    1.002 --    76 C    0.974
   108   1 H    1.002 --    77 C    0.974
   109   1 H    1.001 --    82 C    0.974
   110   1 H    1.002 --    83 C    0.974
   111   1 H    1.002 --    90 C    0.974
   112   1 H    1.013 --    91 C    0.972
   113   1 H    1.013 --    93 C    0.972
   114   1 H    1.002 --    94 C    0.974
   115   1 H    1.002 --    96 C    0.974
   116   1 H    0.997 --    97 C    0.975
   117   6 C    3.877 --   118 C    2.446    22 C    1.185   120 C    0.187
   118   6 C    3.936 --   117 C    2.446   119 C    1.339
   119   6 C    3.893 --   120 C    2.342   118 C    1.339   122 C    0.182
   120   6 C    3.926 --   119 C    2.342   121 C    1.365   117 C    0.187
   121   6 C    3.925 --   122 C    2.341   120 C    1.365   124 C    0.187
   122   6 C    3.893 --   121 C    2.341   123 C    1.340   119 C    0.182
   123   6 C    3.934 --   124 C    2.444   122 C    1.340
   124   6 C    3.877 --   123 C    2.444   134 C    1.187   121 C    0.187
   125   6 C    3.877 --   126 C    2.443   154 C    1.188   128 C    0.187
   126   6 C    3.934 --   125 C    2.443   127 C    1.341
   127   6 C    3.893 --   128 C    2.340   126 C    1.341   130 C    0.182
   128   6 C    3.925 --   127 C    2.340   129 C    1.365   125 C    0.187
   129   6 C    3.926 --   130 C    2.341   128 C    1.365   132 C    0.187
   130   6 C    3.893 --   129 C    2.341   131 C    1.340   127 C    0.182
   131   6 C    3.936 --   132 C    2.446   130 C    1.340
   132   6 C    3.877 --   131 C    2.446    80 C    1.186   129 C    0.187
   133  29 Cu   2.153 --   159 N    0.496   139 N    0.496   152 N    0.496
                           173 N    0.496
   134   6 C    3.929 --   135 C    1.260   172 C    1.260   124 C    1.187
   135   6 C    3.888 --   134 C    1.260   139 N    1.248   136 C    1.190
   136   6 C    3.954 --   137 C    1.635   135 C    1.190   174 H    0.974
   137   6 C    3.955 --   136 C    1.635   138 C    1.189   175 H    0.974
   138   6 C    3.896 --   140 C    1.273   139 N    1.241   137 C    1.189
   139   7 N    3.241 --   135 C    1.248   138 C    1.241   133 Cu   0.496
   140   6 C    3.930 --   149 C    1.274   138 C    1.273   141 C    1.159
   141   6 C    3.958 --   142 C    2.626   140 C    1.159
   142   6 C    3.933 --   141 C    2.626   143 C    1.141
   143   6 C    3.987 --   144 C    1.351   148 C    1.350   142 C    1.141
   144   6 C    3.973 --   145 C    1.457   143 C    1.351   176 H    0.974
                           147 C    0.104
   145   6 C    3.973 --   144 C    1.457   146 N    1.407   177 H    0.972
                           148 C    0.104
   146   7 N    2.994 --   145 C    1.407   147 C    1.407
   147   6 C    3.973 --   148 C    1.457   146 N    1.407   178 H    0.972
                           144 C    0.104
   148   6 C    3.973 --   147 C    1.457   143 C    1.350   179 H    0.974
                           145 C    0.104
   149   6 C    3.896 --   140 C    1.274   152 N    1.240   150 C    1.188
   150   6 C    3.954 --   151 C    1.636   149 C    1.188   180 H    0.974
   151   6 C    3.954 --   150 C    1.636   153 C    1.189   181 H    0.974
   152   7 N    3.240 --   153 C    1.248   149 C    1.240   133 Cu   0.496
   153   6 C    3.888 --   154 C    1.260   152 N    1.248   151 C    1.189
   154   6 C    3.929 --   155 C    1.260   153 C    1.260   125 C    1.188
   155   6 C    3.888 --   154 C    1.260   159 N    1.248   156 C    1.190
   156   6 C    3.954 --   157 C    1.636   155 C    1.190   182 H    0.974
   157   6 C    3.954 --   156 C    1.636   158 C    1.189   183 H    0.974
   158   6 C    3.896 --   160 C    1.274   159 N    1.240   157 C    1.189
   159   7 N    3.241 --   155 C    1.248   158 C    1.240   133 Cu   0.496
   160   6 C    3.930 --   158 C    1.274   169 C    1.273   161 C    1.159
   161   6 C    3.958 --   162 C    2.626   160 C    1.159
   162   6 C    3.933 --   161 C    2.626   163 C    1.141
   163   6 C    3.987 --   168 C    1.351   164 C    1.350   162 C    1.141
   164   6 C    3.973 --   165 C    1.457   163 C    1.350   184 H    0.974
                           167 C    0.104
   165   6 C    3.973 --   164 C    1.457   166 N    1.407   185 H    0.972
                           168 C    0.104
   166   7 N    2.994 --   167 C    1.407   165 C    1.407
   167   6 C    3.973 --   168 C    1.457   166 N    1.407   186 H    0.972
                           164 C    0.104
   168   6 C    3.973 --   167 C    1.457   163 C    1.351   187 H    0.974
                           165 C    0.104
   169   6 C    3.896 --   160 C    1.273   173 N    1.241   170 C    1.188
   170   6 C    3.955 --   171 C    1.636   169 C    1.188   188 H    0.974
   171   6 C    3.954 --   170 C    1.636   172 C    1.190   189 H    0.974
   172   6 C    3.888 --   134 C    1.260   173 N    1.248   171 C    1.190
   173   7 N    3.240 --   172 C    1.248   169 C    1.241   133 Cu   0.496
   174   1 H    1.001 --   136 C    0.974
   175   1 H    1.002 --   137 C    0.974
   176   1 H    1.002 --   144 C    0.974
   177   1 H    1.013 --   145 C    0.972
   178   1 H    1.013 --   147 C    0.972
   179   1 H    1.002 --   148 C    0.974
   180   1 H    1.002 --   150 C    0.974
   181   1 H    1.001 --   151 C    0.974
   182   1 H    1.001 --   156 C    0.974
   183   1 H    1.002 --   157 C    0.974
   184   1 H    1.002 --   164 C    0.974
   185   1 H    1.013 --   165 C    0.972
   186   1 H    1.013 --   167 C    0.972
   187   1 H    1.002 --   168 C    0.974
   188   1 H    1.002 --   170 C    0.974
   189   1 H    1.001 --   171 C    0.974
 ---------------------------------------------------------------------------

           -------------------------------------------------
          | TOTAL ENERGY             -346.549572980152 Eh   |
          | GRADIENT NORM               0.000820812107 Eh/α |
          | HOMO-LUMO GAP               0.000005657681 eV   |
           -------------------------------------------------

 * finished run on 2022/07/30 at 08:17:09.153
