   * xtb version 6.5.1 (b24c23e) compiled by 'conda@728c89f4b128' on 2022-07-12
          program call               : xtb Zn_PhNH2_C4_2.xyz --gfn 1 --opt -T 48

   ID    Z sym.   atoms
    1   30 Zn     1, 61
    2    6 C      2-6, 8-12, 14-18, 20-25, 27-31, 33-38, 62-66, 68-72, 74-78,
                  80-85, 87-91, 93-98, 121-124
    3    7 N      7, 13, 19, 26, 32, 39, 67, 73, 79, 86, 92, 99
    4    1 H      40-60, 100-120
########################################################################
[WARNING] Please study the warnings concerning your input carefully
-1- prog_main_parseArguments: Unknown option '-T' provided
########################################################################

          :  Hamiltonian                  GFN1-xTB          :
 * total energy  :  -205.1616750 Eh     change       -0.2463025E-09 Eh
 * total energy  :  -206.0433571 Eh     change       -0.8816821E+00 Eh
 * total energy  :  -206.1533447 Eh     change       -0.1099876E+00 Eh
 * total energy  :  -206.2100345 Eh     change       -0.5668976E-01 Eh
 * total energy  :  -206.2261453 Eh     change       -0.1611085E-01 Eh
 * total energy  :  -206.2353647 Eh     change       -0.9219361E-02 Eh
 * total energy  :  -206.2412166 Eh     change       -0.5851948E-02 Eh
 * total energy  :  -206.2454875 Eh     change       -0.4270866E-02 Eh
 * total energy  :  -206.2486984 Eh     change       -0.3210888E-02 Eh
 * total energy  :  -206.2512353 Eh     change       -0.2536894E-02 Eh
 * total energy  :  -206.2642667 Eh     change       -0.6719980E-04 Eh
 * total energy  :  -206.2643069 Eh     change       -0.4017974E-04 Eh
 * total energy  :  -206.2643443 Eh     change       -0.3737168E-04 Eh
 * total energy  :  -206.2643660 Eh     change       -0.2173830E-04 Eh
 * total energy  :  -206.2644050 Eh     change       -0.3897938E-04 Eh
 * total energy  :  -206.2644269 Eh     change       -0.2191491E-04 Eh
 * total energy  :  -206.2644379 Eh     change       -0.1102254E-04 Eh
 * total energy  :  -206.2644504 Eh     change       -0.1246247E-04 Eh
 * total energy  :  -206.2644552 Eh     change       -0.4829087E-05 Eh
   *** GEOMETRY OPTIMIZATION CONVERGED AFTER 39 ITERATIONS ***

 final structure:
================
124
 xtb: 6.5.1 (b24c23e)
Zn          15.36882123651884        0.04337296173279       -0.02860794941117
C           11.96135758708322        0.14438570062808        0.08645778363770
C           12.59566869570746        1.25881209678716       -0.44984674356024
C           11.92686119647813        2.41386445754927       -0.97895003061316
C           12.88995810181654        3.27275141368111       -1.39869252013073
C           14.16018699392255        2.65687653116585       -1.12122038454591
N           13.94583314645100        1.43350975737119       -0.55613101968488
C           15.41318666065023        3.21479860939332       -1.40604078911971
C           15.43370659133140        4.58212339020950       -1.98122253890086
C           15.99617835868882        4.82215373627013       -3.23703676067322
C           16.01878097723705        6.09789735095833       -3.77288054926829
C           15.47817664477218        7.16869510753821       -3.05681122956101
N           15.54401851499191        8.45469120412605       -3.56712108101996
C           14.92422374300801        6.93940600793479       -1.79515813254766
C           14.89743663078645        5.65886196145748       -1.27117191589923
C           16.64831051037025        2.59461868359697       -1.18459625730305
C           17.93175166047371        3.19321081239691       -1.42591303316920
C           18.87286997760609        2.27999979065904       -1.07398948805934
N           16.83492306744679        1.33573903766054       -0.67781156195748
C           18.17570176478947        1.11950361185103       -0.60426511886052
C           18.80024633116130       -0.05346053848348       -0.13408619966601
C           18.14050992038479       -1.19281139277577        0.36972077760031
C           18.79883425781459       -2.39009298179885        0.80113297137276
C           17.83102522337590       -3.24858862015416        1.21407781686213
C           16.57099107460710       -2.57866106309379        1.04946751711587
N           16.79664102014149       -1.33391339461183        0.52396257513867
C           15.31912864020224       -3.12425110004237        1.35686354849868
C           15.29626265269592       -4.48410831433070        1.94959205008254
C           15.91920958161173       -4.73992164139650        3.17326912494491
C           15.89582748131709       -6.00618284281421        3.73110595183990
C           15.25764908566480       -7.05431550610809        3.06364042146452
N           15.19850204239845       -8.31445180970131        3.63555653868252
C           14.62794168511468       -6.80614435280246        1.84159290615124
C           14.64781609017875       -5.53455264821856        1.29595534004925
C           14.08476508601096       -2.49425839801408        1.15223468352330
C           12.80210052597346       -3.03248423614466        1.51961382862704
C           11.86535422436105       -2.11860408259912        1.16118451226105
C           12.56392198896662       -1.00642377763363        0.58104877158692
N           13.90526757229770       -1.26151414500958        0.59499945810297
H           10.87674654341642        0.17665686654693        0.12452132335948
H           10.85609278111487        2.53783137118067       -1.02663423840240
H           12.75542825051697        4.23430630358881       -1.86805211555684
H           16.40313364469541        3.99357736638829       -3.80639604947038
H           16.45371284199605        6.27047332012491       -4.75137154709901
H           15.63637400722676        8.50943133939065       -4.56893966845302
H           14.86750279201059        9.09719700444309       -3.18682178893018
H           14.51583031703858        7.76885873457819       -1.22810547240691
H           14.47431863453709        5.49053129842307       -0.28678284497523
H           18.09243751265346        4.19065120632051       -1.80219269195575
H           19.94578173235272        2.38052365622060       -1.11733585210947
H           19.86513747492126       -2.55069134692868        0.77902264684844
H           17.95756825267735       -4.25299157140307        1.58517650959248
H           16.40956430130423       -3.92948024708963        3.70150837338008
H           16.37339710796483       -6.18933739482543        4.68745078090966
H           15.92315477476142       -8.51098531600370        4.30732736808606
H           15.03272413210242       -9.06662898842245        2.98615909010833
H           14.12700169636852       -7.61491552536945        1.32065798377423
H           14.17134723755015       -5.35408001901679        0.33841798185199
H           12.64301445335771       -3.98307310352801        2.00322969214621
H           10.79498072575312       -2.17823646493828        1.28313126394988
Zn          28.83651477684076       -0.04788380739674        0.01944628602596
C           32.24401619187513       -0.00775693304534        0.16648546650496
C           31.60981184455065       -1.07068148473641        0.79883305904594
C           32.27880563021099       -2.15012115489377        1.46866802522160
C           31.31583914201851       -2.97463329191836        1.95270741230117
C           30.04552175946076       -2.40286625196943        1.59335160997453
N           30.25966172866476       -1.25578804049185        0.88607426537427
C           28.79264437360684       -2.94832544319186        1.90186041059704
C           28.77233022015611       -4.18279030615993        2.72430890695512
C           28.20939692469143       -5.36232345482299        2.23160168385157
C           28.18709095586421       -6.51331996328793        2.99966351107051
C           28.72841105896875       -6.50738365970179        4.28749523118926
N           28.66279773523597       -7.64305777145686        5.07774866093277
C           29.28264520322020       -5.32881809346873        4.79249269421308
C           29.30918429911625       -4.18510353693958        4.01387825111659
C           27.55742493609540       -2.42080842375327        1.50805032768194
C           26.27402553427828       -2.95199274358331        1.87490015656723
C           25.33284609578576       -2.15368832144372        1.30890054472941
N           27.37072147960150       -1.30295944998544        0.73868619784555
C           26.02995438509639       -1.12150217474535        0.60024571847652
C           25.40498505533299       -0.08155936617833       -0.11734451372796
C           26.06439853401898        0.96757098903315       -0.78938799073652
C           25.40598054549792        1.98858480438761       -1.54898140229745
C           26.37379056237374        2.80677920901410       -2.03694529264060
C           27.63390367081339        2.29938555389117       -1.56981669090120
N           27.40831366791864        1.17375672205109       -0.82239055407981
C           28.88568522633264        2.85714048278362       -1.85492202469324
C           28.90826706504063        4.10287566196756       -2.66033598184999
C           28.28503949544826        5.26377595450446       -2.19686381543552
C           28.30831137173169        6.42879661093181       -2.94339631799578
C           28.94670952104783        6.45245261537317       -4.18568285076680
N           29.00575051709401        7.62588439776487       -4.91919696923713
C           29.57668178006668        5.29713751168077       -4.65463139868399
C           29.55687149559628        4.13931165656245       -3.89692834359088
C           30.12023207733704        2.33858825699777       -1.44328455086755
C           31.40281095709521        2.94229527312465       -1.68904505195279
C           32.33971674275406        2.13859766486330       -1.12562710841652
C           31.64133075541750        1.04043344365781       -0.51919969709551
N           30.29994618278257        1.19292498109935       -0.72387207895298
H           33.32863016355998        0.00615248718631        0.21434724320270
H           33.34959453080547       -2.25840871704390        1.54525865020444
H           31.45043884187244       -3.89735355907261        2.49442256564477
H           27.80179808320541       -5.37976408243026        1.22668281169070
H           27.75182061196109       -7.42440128263882        2.60364273452366
H           28.57027039939029       -8.50816014691067        4.56972513220205
H           29.33960532733805       -7.68101592274966        5.82325800466637
H           29.69137670660944       -5.31382321015460        5.79700694633533
H           29.73257831732165       -3.27135271254185        4.41659993742209
H           26.11345487483566       -3.81651405342452        2.49870436016886
H           24.25992354164823       -2.24465983230281        1.36970799681143
H           24.33964645447293        2.05900302519023       -1.69472787817796
H           26.24712660381149        3.67084395140160       -2.66932801399034
H           27.79453234524746        5.25565206720262       -1.22958593699833
H           27.83050146030534        7.32679065480923       -2.56720130840555
H           28.28106362954332        8.29418616099689       -4.71134894873803
H           29.17170930626219        7.50103416326501       -5.90502034447145
H           30.07779310729511        5.31044225469616       -5.61647311446895
H           30.03355958944503        3.24180423919003       -4.27603329826369
H           31.56179712171014        3.87067289548124       -2.21406800883719
H           33.41008484050526        2.27326481696874       -1.10813211568877
C           21.42780394458081       -0.08693967422069       -0.17300774553361
C           20.20550684759712       -0.08380297215845       -0.16006951134819
C           22.77750419269852       -0.09233518014054       -0.17002723159338
C           23.99968090019226       -0.08680035434626       -0.15514173029649

          :  Hamiltonian                  GFN1-xTB          :
         :: total energy            -206.264455226117 Eh    ::
         :: gradient norm              0.000815832538 Eh/a0 ::
         :: HOMO-LUMO gap              1.053524324554 eV    ::
         :: SCC energy              -209.580303351657 Eh    ::
         :: repulsion energy           3.424271759998 Eh    ::

    * Orbital Energies and Occupations

         #    Occupation            Energy/Eh            Energy/eV
      -------------------------------------------------------------
         1        2.0000           -0.7756715             -21.1071
       ...           ...                  ...                  ...
       177        2.0000           -0.4110975             -11.1865
       178        2.0000           -0.4109423             -11.1823
       179        2.0000           -0.4109049             -11.1813
       180        2.0000           -0.4094417             -11.1415
       181        2.0000           -0.4086643             -11.1203
       182        2.0000           -0.3966260             -10.7927
       183        2.0000           -0.3943501             -10.7308
       184        2.0000           -0.3929516             -10.6928
       185        2.0000           -0.3929460             -10.6926
       186        2.0000           -0.3834103             -10.4331
       187        2.0000           -0.3834094             -10.4331
       188        2.0000           -0.3757753             -10.2254
       189        2.0000           -0.3648269              -9.9274 (HOMO)
       190                         -0.3261106              -8.8739 (LUMO)
       191                         -0.3152044              -8.5771
       192                         -0.3152028              -8.5771
       193                         -0.3124409              -8.5019
       194                         -0.2853381              -7.7644
       195                         -0.2777815              -7.5588
       196                         -0.2535714              -6.9000
       197                         -0.2535692              -6.9000
       198                         -0.2533264              -6.8934
       199                         -0.2533234              -6.8933
       200                         -0.2455334              -6.6813
       ...                                ...                  ...
       412                          1.5288618              41.6024
      -------------------------------------------------------------
                  HL-Gap            0.0387163 Eh            1.0535 eV

Wiberg/Mayer (AO) data.
largest (>0.10) Wiberg bond orders for each atom

     #   Z sym  total        # sym  WBO       # sym  WBO       # sym  WBO
 ---------------------------------------------------------------------------
     1  30 Zn   2.001 --    39 N    0.460     7 N    0.460    19 N    0.457
                            26 N    0.457
     2   6 C    3.925 --    38 C    1.356     3 C    1.356    40 H    0.972
     3   6 C    3.923 --     2 C    1.356     7 N    1.233     4 C    1.173
     4   6 C    3.959 --     5 C    1.655     3 C    1.173    41 H    0.976
     5   6 C    3.963 --     4 C    1.655     6 C    1.175    42 H    0.974
     6   6 C    3.917 --     8 C    1.312     7 N    1.244     5 C    1.175
     7   7 N    3.293 --     6 C    1.244     3 C    1.233     1 Zn   0.460
     8   6 C    3.933 --    16 C    1.322     6 C    1.312     9 C    1.031
     9   6 C    3.988 --    15 C    1.382    10 C    1.382     8 C    1.031
    10   6 C    3.988 --    11 C    1.467     9 C    1.382    43 H    0.973
                            14 C    0.100
    11   6 C    3.990 --    10 C    1.467    12 C    1.355    44 H    0.972
                            15 C    0.100
    12   6 C    3.952 --    14 C    1.356    11 C    1.355    13 N    1.112
    13   7 N    3.131 --    12 C    1.112    45 H    0.934    46 H    0.934
    14   6 C    3.990 --    15 C    1.467    12 C    1.356    47 H    0.972
                            10 C    0.100
    15   6 C    3.988 --    14 C    1.467     9 C    1.382    48 H    0.973
                            11 C    0.100
    16   6 C    3.912 --     8 C    1.322    19 N    1.225    17 C    1.181
    17   6 C    3.960 --    18 C    1.643    16 C    1.181    49 H    0.973
    18   6 C    3.962 --    17 C    1.643    20 C    1.188    50 H    0.974
    19   7 N    3.297 --    20 C    1.262    16 C    1.225     1 Zn   0.457
    20   6 C    3.904 --    19 N    1.262    21 C    1.253    18 C    1.188
    21   6 C    3.936 --    20 C    1.253    22 C    1.253   122 C    1.190
    22   6 C    3.904 --    26 N    1.262    21 C    1.253    23 C    1.189
    23   6 C    3.961 --    24 C    1.643    22 C    1.189    51 H    0.974
    24   6 C    3.960 --    23 C    1.643    25 C    1.182    52 H    0.973
    25   6 C    3.912 --    27 C    1.322    26 N    1.225    24 C    1.182
    26   7 N    3.297 --    22 C    1.262    25 C    1.225     1 Zn   0.457
    27   6 C    3.933 --    25 C    1.322    35 C    1.312    28 C    1.031
    28   6 C    3.988 --    29 C    1.382    34 C    1.382    27 C    1.031
    29   6 C    3.988 --    30 C    1.467    28 C    1.382    53 H    0.973
                            33 C    0.100
    30   6 C    3.990 --    29 C    1.467    31 C    1.356    54 H    0.972
                            34 C    0.100
    31   6 C    3.952 --    30 C    1.356    33 C    1.355    32 N    1.112
    32   7 N    3.131 --    31 C    1.112    56 H    0.934    55 H    0.934
    33   6 C    3.990 --    34 C    1.467    31 C    1.355    57 H    0.972
                            29 C    0.100
    34   6 C    3.988 --    33 C    1.467    28 C    1.382    58 H    0.973
                            30 C    0.100
    35   6 C    3.917 --    27 C    1.312    39 N    1.244    36 C    1.175
    36   6 C    3.963 --    37 C    1.656    35 C    1.175    59 H    0.973
    37   6 C    3.959 --    36 C    1.656    38 C    1.173    60 H    0.976
    38   6 C    3.923 --     2 C    1.356    39 N    1.233    37 C    1.173
    39   7 N    3.293 --    35 C    1.244    38 C    1.233     1 Zn   0.460
    40   1 H    1.002 --     2 C    0.972
    41   1 H    0.999 --     4 C    0.976
    42   1 H    1.006 --     5 C    0.974
    43   1 H    1.005 --    10 C    0.973
    44   1 H    0.999 --    11 C    0.972
    45   1 H    0.961 --    13 N    0.934
    46   1 H    0.961 --    13 N    0.934
    47   1 H    0.999 --    14 C    0.972
    48   1 H    1.005 --    15 C    0.973
    49   1 H    1.006 --    17 C    0.973
    50   1 H    1.003 --    18 C    0.974
    51   1 H    1.003 --    23 C    0.974
    52   1 H    1.006 --    24 C    0.973
    53   1 H    1.005 --    29 C    0.973
    54   1 H    0.999 --    30 C    0.972
    55   1 H    0.961 --    32 N    0.934
    56   1 H    0.961 --    32 N    0.934
    57   1 H    0.999 --    33 C    0.972
    58   1 H    1.005 --    34 C    0.973
    59   1 H    1.006 --    36 C    0.973
    60   1 H    0.998 --    37 C    0.976
    61  30 Zn   2.001 --    99 N    0.460    67 N    0.460    79 N    0.457
                            86 N    0.457
    62   6 C    3.925 --    98 C    1.356    63 C    1.356   100 H    0.972
    63   6 C    3.923 --    62 C    1.356    67 N    1.233    64 C    1.173
    64   6 C    3.959 --    65 C    1.655    63 C    1.173   101 H    0.976
    65   6 C    3.963 --    64 C    1.655    66 C    1.175   102 H    0.974
    66   6 C    3.917 --    68 C    1.312    67 N    1.244    65 C    1.175
    67   7 N    3.293 --    66 C    1.244    63 C    1.233    61 Zn   0.460
    68   6 C    3.933 --    76 C    1.322    66 C    1.312    69 C    1.031
    69   6 C    3.988 --    70 C    1.382    75 C    1.382    68 C    1.031
    70   6 C    3.988 --    71 C    1.467    69 C    1.382   103 H    0.973
                            74 C    0.100
    71   6 C    3.990 --    70 C    1.467    72 C    1.355   104 H    0.972
                            75 C    0.100
    72   6 C    3.952 --    74 C    1.356    71 C    1.355    73 N    1.112
    73   7 N    3.131 --    72 C    1.112   105 H    0.934   106 H    0.934
    74   6 C    3.990 --    75 C    1.467    72 C    1.356   107 H    0.972
                            70 C    0.100
    75   6 C    3.988 --    74 C    1.467    69 C    1.382   108 H    0.973
                            71 C    0.100
    76   6 C    3.912 --    68 C    1.322    79 N    1.225    77 C    1.181
    77   6 C    3.960 --    78 C    1.644    76 C    1.181   109 H    0.973
    78   6 C    3.962 --    77 C    1.644    80 C    1.188   110 H    0.974
    79   7 N    3.297 --    80 C    1.262    76 C    1.225    61 Zn   0.457
    80   6 C    3.904 --    79 N    1.262    81 C    1.253    78 C    1.188
    81   6 C    3.936 --    80 C    1.253    82 C    1.253   124 C    1.190
    82   6 C    3.904 --    86 N    1.262    81 C    1.253    83 C    1.189
    83   6 C    3.961 --    84 C    1.643    82 C    1.189   111 H    0.974
    84   6 C    3.960 --    83 C    1.643    85 C    1.182   112 H    0.973
    85   6 C    3.912 --    87 C    1.322    86 N    1.225    84 C    1.182
    86   7 N    3.297 --    82 C    1.262    85 C    1.225    61 Zn   0.457
    87   6 C    3.933 --    85 C    1.322    95 C    1.312    88 C    1.031
    88   6 C    3.988 --    89 C    1.382    94 C    1.382    87 C    1.031
    89   6 C    3.988 --    90 C    1.467    88 C    1.382   113 H    0.973
                            93 C    0.100
    90   6 C    3.990 --    89 C    1.467    91 C    1.356   114 H    0.972
                            94 C    0.100
    91   6 C    3.952 --    90 C    1.356    93 C    1.355    92 N    1.113
    92   7 N    3.131 --    91 C    1.113   116 H    0.934   115 H    0.934
    93   6 C    3.990 --    94 C    1.467    91 C    1.355   117 H    0.972
                            89 C    0.100
    94   6 C    3.988 --    93 C    1.467    88 C    1.382   118 H    0.973
                            90 C    0.100
    95   6 C    3.917 --    87 C    1.312    99 N    1.244    96 C    1.175
    96   6 C    3.963 --    97 C    1.656    95 C    1.175   119 H    0.973
    97   6 C    3.959 --    96 C    1.656    98 C    1.173   120 H    0.976
    98   6 C    3.923 --    62 C    1.356    99 N    1.233    97 C    1.173
    99   7 N    3.293 --    95 C    1.244    98 C    1.233    61 Zn   0.460
   100   1 H    1.002 --    62 C    0.972
   101   1 H    0.999 --    64 C    0.976
   102   1 H    1.006 --    65 C    0.974
   103   1 H    1.005 --    70 C    0.973
   104   1 H    0.999 --    71 C    0.972
   105   1 H    0.961 --    73 N    0.934
   106   1 H    0.961 --    73 N    0.934
   107   1 H    0.999 --    74 C    0.972
   108   1 H    1.005 --    75 C    0.973
   109   1 H    1.006 --    77 C    0.973
   110   1 H    1.003 --    78 C    0.974
   111   1 H    1.003 --    83 C    0.974
   112   1 H    1.006 --    84 C    0.973
   113   1 H    1.005 --    89 C    0.973
   114   1 H    0.999 --    90 C    0.972
   115   1 H    0.961 --    92 N    0.934
   116   1 H    0.961 --    92 N    0.934
   117   1 H    0.999 --    93 C    0.972
   118   1 H    1.005 --    94 C    0.973
   119   1 H    1.006 --    96 C    0.973
   120   1 H    0.998 --    97 C    0.976
   121   6 C    3.934 --   122 C    2.474   123 C    1.309
   122   6 C    3.925 --   121 C    2.474    21 C    1.190   124 C    0.199
   123   6 C    3.934 --   124 C    2.474   121 C    1.309
   124   6 C    3.925 --   123 C    2.474    81 C    1.190   122 C    0.199
 ---------------------------------------------------------------------------

           -------------------------------------------------
          | TOTAL ENERGY             -206.264455226117 Eh   |
          | GRADIENT NORM               0.000815832538 Eh/α |
          | HOMO-LUMO GAP               1.053524324554 eV   |
           -------------------------------------------------

 * finished run on 2022/07/30 at 09:37:33.994
