   * xtb version 6.5.1 (b24c23e) compiled by 'conda@728c89f4b128' on 2022-07-12
          program call               : xtb Ph2OMe_C2_2.xyz --gfn 1 --opt -T 48

   ID    Z sym.   atoms
    1    6 C      1-5, 7-10, 12-20, 22-26, 28-32, 35, 36, 38-42, 44, 74-78,
                  80-83, 85-93, 95-99, 101-105, 108, 109, 111-115, 117, 147,
                  148
    2    7 N      6, 11, 33, 34, 79, 84, 106, 107
    3    8 O      21, 27, 37, 43, 94, 100, 110, 116
    4    1 H      45-73, 118-146
########################################################################
[WARNING] Please study the warnings concerning your input carefully
-1- prog_main_parseArguments: Unknown option '-T' provided
########################################################################

          :  Hamiltonian                  GFN1-xTB          :
 * total energy  :  -250.4351213 Eh     change       -0.9472956E-10 Eh
 * total energy  :  -250.6138135 Eh     change       -0.1786922E+00 Eh
 * total energy  :  -250.6900602 Eh     change       -0.7624666E-01 Eh
 * total energy  :  -250.7140100 Eh     change       -0.2394989E-01 Eh
 * total energy  :  -250.7257439 Eh     change       -0.1173388E-01 Eh
 * total energy  :  -250.7330050 Eh     change       -0.7261084E-02 Eh
 * total energy  :  -250.7374580 Eh     change       -0.4452980E-02 Eh
 * total energy  :  -250.7409237 Eh     change       -0.3465702E-02 Eh
 * total energy  :  -250.7438537 Eh     change       -0.2929980E-02 Eh
 * total energy  :  -250.7462742 Eh     change       -0.2420502E-02 Eh
 * total energy  :  -250.7662471 Eh     change       -0.1527987E-04 Eh
 * total energy  :  -250.7662657 Eh     change       -0.1861720E-04 Eh
 * total energy  :  -250.7662791 Eh     change       -0.1340426E-04 Eh
 * total energy  :  -250.7662944 Eh     change       -0.1522618E-04 Eh
 * total energy  :  -250.7663088 Eh     change       -0.1441938E-04 Eh
 * total energy  :  -250.7663217 Eh     change       -0.1296221E-04 Eh
 * total energy  :  -250.7663474 Eh     change       -0.2568557E-04 Eh
 * total energy  :  -250.7663539 Eh     change       -0.6430860E-05 Eh
 * total energy  :  -250.7663583 Eh     change       -0.4477500E-05 Eh
   *** GEOMETRY OPTIMIZATION CONVERGED AFTER 153 ITERATIONS ***

 final structure:
================
148
 xtb: 6.5.1 (b24c23e)
C           13.39583071538078        0.04266527768939        0.21189532481401
C           14.02792080785630       -0.06984250953489        1.44335212397284
C           13.41013604876229       -0.21698568549731        2.71760961694429
C           14.39825715916647       -0.28544132471310        3.65892193889753
C           15.65131951011053       -0.19002004258847        2.98919018945532
N           15.37733528647022       -0.05435665075931        1.65745450207010
C           16.92406306316451       -0.23105124031408        3.56400255529502
C           18.13230752215697       -0.18565754361904        2.86745608440406
C           19.42780244537254       -0.33204473642791        3.50488792588912
C           20.34878580918613       -0.22993141322270        2.52372136237924
N           18.28809748357628        0.00685103300560        1.52837850478665
C           19.61629277313454       -0.00970390891522        1.29215836000753
C           20.24671907935497        0.16902151758553        0.04387508025724
C           19.58630997588285        0.35945576319460       -1.18451599358920
C           20.19302837373343        0.58915186106038       -2.44787465641744
C           19.19888511311038        0.71964563703362       -3.37755130190390
C           17.95247892752898        0.57345903418500       -2.70881289743357
C           16.68063411125066        0.63934138478292       -3.28389831306138
C           16.62828342132601        0.79065875067667       -4.77046300436028
C           16.39276545234696        1.98542008234968       -5.45567278920727
O           16.20965707613450        3.21253293459438       -4.90449072916398
C           16.34032969754638        3.49309090506261       -3.52385047436063
C           16.33136888325708        1.98475404918596       -6.85650147727074
C           16.50543922387677        0.81572586484820       -7.56700403559790
C           16.75177398358261       -0.38314247641047       -6.90760370814264
C           16.81251369009351       -0.38962795805505       -5.51954096574537
O           17.04276835269024       -1.51042041498892       -4.78231523802040
C           17.19787897877127       -2.76384311866821       -5.41620310502548
C           15.47254741296320        0.48321115109981       -2.60074922521321
C           14.16980726413254        0.49004975879630       -3.24769943892318
C           13.25700021029297        0.32032224525289       -2.26980103966233
C           14.00124566250406        0.21335776861001       -1.02693997928831
N           15.33181042728719        0.31607174751623       -1.26357992451645
N           18.23745134369539        0.36669900306296       -1.38495091051965
C           16.97385454868266       -0.43972612532721        5.04446357156240
C           17.07898751154567        0.57558297118682        5.99855574810514
O           17.13856405370140        1.91060624555717        5.75914349103471
C           17.23619797791474        2.48752663753967        4.47109371083406
C           17.10976942943588        0.24926391834829        7.36194275333709
C           17.03938109327713       -1.06552912747754        7.77182631293222
C           16.93406141300692       -2.09237467426881        6.84066087568782
C           16.89913817920586       -1.77560443682851        5.48816771305328
O           16.79136351648867       -2.70584091446989        4.50042956993757
C           16.73997080464744       -4.08196174144713        4.81792522204571
H           12.31189349058770       -0.00504676981459        0.22866674917920
H           12.34469948027039       -0.26147452806850        2.87848224261902
H           14.28207497076197       -0.39715913326121        4.72496736886126
H           16.07903131030353        0.02145299192377        0.92902273417766
H           19.58253927598404       -0.50325138628235        4.55815625259591
H           21.42152915140613       -0.30279235859547        2.60070483805838
H           21.25568829387941        0.65315314713695       -2.61488333548541
H           19.30957507952157        0.90142721518062       -4.43430886044268
H           17.31209229094149        3.16856333631521       -3.13532944044094
H           16.26338853801449        4.57919553391155       -3.43129057674702
H           15.53924543714759        3.02670666821868       -2.93960952741367
H           16.14481825295905        2.92509674502903       -7.35976611574783
H           16.45385181479553        0.82911991995533       -8.64982536059346
H           16.89037596021436       -1.29222534780100       -7.47700060618361
H           17.34863292189404       -3.49168808438007       -4.61662983557287
H           16.30312241563237       -3.03756841974011       -5.98839162937340
H           18.07040487806722       -2.77373780657303       -6.08070711088623
H           14.00827453532754        0.60347614702801       -4.30784373879342
H           12.18238864148065        0.26753529687564       -2.34970771501332
H           17.54076573554818        0.21753434365779       -0.66275252638192
H           18.14814314105942        2.16774616196949        3.95525678948497
H           17.27541383485938        3.56778371685389        4.63067900181402
H           16.36419486832135        2.24962744548180        3.85231823405855
H           17.18946187893689        1.05716532190690        8.07830335618507
H           17.06577268466821       -1.30363745145571        8.82916196259585
H           16.87884225955661       -3.11927059366789        7.17574897695029
H           15.86006471371867       -4.32164135576573        5.42734605224373
H           16.67072111414778       -4.61107704887876        3.86556183877549
H           17.64536592467198       -4.40646812195256        5.34513039154809
C           31.13203775840562        0.02156414790258       -0.21404591165954
C           30.50015720273677       -0.19898361303024       -1.43091052072891
C           31.11816790251522       -0.45989514683121       -2.68671905085959
C           30.13029776353303       -0.60982895790507       -3.61879612356997
C           28.87717225734897       -0.45291863599977       -2.96089587139328
N           29.15086893972698       -0.20006979683783       -1.64630486184570
C           27.60452801813074       -0.54216488289680       -3.53045772673138
C           26.39619975539823       -0.43359458445842       -2.84104399983555
C           25.10065167456574       -0.63343103836108       -3.46368224466662
C           24.17963785992176       -0.44565965158973       -2.49528950039191
N           26.24038695694180       -0.12506404281236       -1.52385203065740
C           24.91215308901116       -0.12018437843311       -1.28729260793898
C           24.28160510264509        0.16581103004715       -0.05919158121261
C           24.94178092185964        0.46262656882334        1.14804033906826
C           24.33480765351419        0.80173130715224        2.38641316272614
C           25.32880204216450        1.01416824076334        3.30102256640703
C           26.57536077772903        0.81080525284768        2.64769160213861
C           27.84719330948889        0.92780029858695        3.21458743900075
C           27.89989186925044        1.21008871865199        4.68189492551583
C           28.13647221634264        2.46056900159601        5.25854850385728
O           28.31986305805411        3.63388826796293        4.60078128238949
C           28.19031863037418        3.79109716525917        3.20101843165897
C           28.19887184854466        2.58379809730958        6.65391109263986
C           28.02469110758821        1.48236094495498        7.46517023034524
C           27.77710063472247        0.23004734027290        6.91457680169216
C           27.71541572400949        0.10085414867876        5.53257039037345
O           27.48400228942558       -1.08058856706586        4.89747272218568
C           27.32958919385932       -2.27314685829728        5.63969021194315
C           29.05529120854797        0.71178974049601        2.54791097835905
C           30.35797170438883        0.77521728228926        3.19191177006188
C           31.27076735119812        0.51870439407425        2.23310724678169
C           30.52657866281204        0.30234148891349        1.00453091794580
N           29.19606166922009        0.42664493470374        1.23086843270787
N           26.29060962166596        0.48833635484807        1.34709832247518
C           27.55452231798587       -0.88214044662613       -4.98636995984608
C           27.44891497935638        0.04352706612775       -6.02759103559581
O           27.39070606814106        1.39468553819379       -5.90867851135839
C           27.28754365253576        2.08416472007938       -4.67769874989984
C           27.41701382119519       -0.40371306380139       -7.35620392783878
C           27.48678513170484       -1.74997916648147       -7.64660509865704
C           27.59286225288591       -2.68921289836146       -6.62719381210993
C           27.62899041232625       -2.25243708432507       -5.30859514377334
O           27.73778810511743       -3.09034702437482       -4.24149091145642
C           27.78805056303529       -4.48943594396636       -4.43415735568632
H           32.21591426586002       -0.02888447102473       -0.22609644956556
H           32.18358324242620       -0.52058114623764       -2.84236299623562
H           30.24669397540239       -0.81607048459366       -4.67063152552630
H           28.44895056820555       -0.05879987733506       -0.92789890385034
H           24.94585520990438       -0.89523066564996       -4.49814976233865
H           23.10684208950949       -0.52383216356643       -2.56596214590087
H           23.27207326114516        0.87919590222111        2.54717431312986
H           25.21790191581759        1.28793029232827        4.33774479209361
H           27.21917669590721        3.43393318178489        2.84222111722201
H           28.26797652399734        4.86462125869695        3.01251547781092
H           28.99128060673457        3.27458733392197        2.66156295656345
H           28.38662760639348        3.56480853678312        7.07190815434032
H           28.07719308245316        1.59145881757130        8.54252821253220
H           27.63838305793162       -0.62501585505114        7.56223121020243
H           27.17815880140340       -3.06873597658155        4.90763071356068
H           28.22491144883860       -2.49526505722255        6.23296577278033
H           26.45768421284434       -2.22435917178042        6.30328556897811
H           30.51947857175578        0.98213050823716        4.23783595643502
H           32.34533297797409        0.47248474426611        2.31757883934647
H           26.98750983665365        0.27671655925055        0.64088265753636
H           26.37283889526715        1.81197177380338       -4.13995553423316
H           27.25009450573086        3.14593139031365       -4.93307576072999
H           28.15625670257974        1.90189261561760       -4.03591984124439
H           27.33684561265657        0.33670963662465       -8.14206785950904
H           27.45925820219698       -2.08194564104832       -8.67829933833407
H           27.64766667116702       -3.74204500940072       -6.86885467007902
H           28.66684600427138       -4.78347210848295       -5.02095600817902
H           27.85860878648206       -4.93086883897667       -3.43819671381449
H           26.88163568681560       -4.85942786530036       -4.92863641771126
C           21.65571459047861        0.16569754680902        0.00941587355576
C           22.87260160264545        0.16473188197063       -0.02472526212486

          :  Hamiltonian                  GFN1-xTB          :
         :: total energy            -250.766358328412 Eh    ::
         :: gradient norm              0.000623570006 Eh/a0 ::
         :: HOMO-LUMO gap              0.988368532779 eV    ::
         :: SCC energy              -254.248052589473 Eh    ::
         :: repulsion energy           3.612192214699 Eh    ::

    * Orbital Energies and Occupations

         #    Occupation            Energy/Eh            Energy/eV
      -------------------------------------------------------------
         1        2.0000           -0.8077648             -21.9804
       ...           ...                  ...                  ...
       209        2.0000           -0.4143174             -11.2742
       210        2.0000           -0.4112742             -11.1913
       211        2.0000           -0.4112374             -11.1903
       212        2.0000           -0.4104824             -11.1698
       213        2.0000           -0.4104200             -11.1681
       214        2.0000           -0.4091904             -11.1346
       215        2.0000           -0.4091784             -11.1343
       216        2.0000           -0.4086361             -11.1196
       217        2.0000           -0.4086111             -11.1189
       218        2.0000           -0.3933861             -10.7046
       219        2.0000           -0.3929863             -10.6937
       220        2.0000           -0.3845385             -10.4638
       221        2.0000           -0.3719451             -10.1211 (HOMO)
       222                         -0.3356232              -9.1328 (LUMO)
       223                         -0.3241612              -8.8209
       224                         -0.3241344              -8.8201
       225                         -0.3197901              -8.7019
       226                         -0.2911572              -7.9228
       227                         -0.2824758              -7.6866
       228                         -0.2554986              -6.9525
       229                         -0.2554851              -6.9521
       230                         -0.2549288              -6.9370
       231                         -0.2548607              -6.9351
       232                         -0.2432306              -6.6186
       ...                                ...                  ...
       476                          1.3415421              36.5052
      -------------------------------------------------------------
                  HL-Gap            0.0363219 Eh            0.9884 eV

Wiberg/Mayer (AO) data.
largest (>0.10) Wiberg bond orders for each atom

     #   Z sym  total        # sym  WBO       # sym  WBO       # sym  WBO
 ---------------------------------------------------------------------------
     1   6 C    3.925 --    32 C    1.363     2 C    1.348    45 H    0.971
     2   6 C    3.904 --     1 C    1.348     3 C    1.228     6 N    1.170
     3   6 C    3.954 --     4 C    1.597     2 C    1.228    46 H    0.977
     4   6 C    3.960 --     3 C    1.597     5 C    1.233    47 H    0.976
     5   6 C    3.896 --     7 C    1.309     4 C    1.233     6 N    1.171
     6   7 N    3.467 --     5 C    1.171     2 C    1.170    48 H    0.874
     7   6 C    3.938 --     8 C    1.337     5 C    1.309    35 C    1.002
     8   6 C    3.916 --     7 C    1.337    11 N    1.282     9 C    1.125
     9   6 C    3.966 --    10 C    1.706     8 C    1.125    49 H    0.975
    10   6 C    3.964 --     9 C    1.706    12 C    1.131    50 H    0.970
    11   7 N    3.020 --    12 C    1.344     8 C    1.282
    12   6 C    3.914 --    11 N    1.344    13 C    1.257    10 C    1.131
    13   6 C    3.938 --    12 C    1.257    14 C    1.256   147 C    1.180
    14   6 C    3.891 --    13 C    1.256    15 C    1.249    34 N    1.188
    15   6 C    3.960 --    16 C    1.583    14 C    1.249    51 H    0.971
    16   6 C    3.955 --    15 C    1.583    17 C    1.240    52 H    0.976
    17   6 C    3.898 --    18 C    1.312    16 C    1.240    34 N    1.162
    18   6 C    3.924 --    29 C    1.326    17 C    1.312    19 C    1.004
    19   6 C    3.973 --    20 C    1.370    26 C    1.318    18 C    1.004
    20   6 C    3.903 --    19 C    1.370    23 C    1.333    21 O    1.035
    21   8 O    2.147 --    20 C    1.035    22 C    0.927
    22   6 C    3.901 --    54 H    0.983    53 H    0.978    55 H    0.976
                            21 O    0.927
    23   6 C    3.985 --    24 C    1.478    20 C    1.333    56 H    0.971
    24   6 C    3.995 --    23 C    1.478    25 C    1.415    57 H    0.974
    25   6 C    3.981 --    24 C    1.415    26 C    1.387    58 H    0.969
    26   6 C    3.902 --    25 C    1.387    19 C    1.318    27 O    1.029
    27   8 O    2.141 --    26 C    1.029    28 C    0.936
    28   6 C    3.908 --    59 H    0.983    61 H    0.980    60 H    0.980
                            27 O    0.936
    29   6 C    3.929 --    18 C    1.326    33 N    1.309    30 C    1.117
    30   6 C    3.968 --    31 C    1.722    29 C    1.117    62 H    0.975
    31   6 C    3.966 --    30 C    1.722    32 C    1.118    63 H    0.976
    32   6 C    3.930 --     1 C    1.363    33 N    1.304    31 C    1.118
    33   7 N    3.010 --    29 C    1.309    32 C    1.304
    34   7 N    3.472 --    14 C    1.188    17 C    1.162    64 H    0.874
    35   6 C    3.973 --    36 C    1.371    42 C    1.320     7 C    1.002
    36   6 C    3.904 --    35 C    1.371    39 C    1.333    37 O    1.035
    37   8 O    2.147 --    36 C    1.035    38 C    0.927
    38   6 C    3.901 --    66 H    0.983    67 H    0.977    65 H    0.977
                            37 O    0.927
    39   6 C    3.985 --    40 C    1.478    36 C    1.333    68 H    0.971
    40   6 C    3.995 --    39 C    1.478    41 C    1.415    69 H    0.974
    41   6 C    3.981 --    40 C    1.415    42 C    1.386    70 H    0.969
    42   6 C    3.903 --    41 C    1.386    35 C    1.320    43 O    1.029
    43   8 O    2.141 --    42 C    1.029    44 C    0.936
    44   6 C    3.908 --    72 H    0.983    71 H    0.980    73 H    0.980
                            43 O    0.936
    45   1 H    1.002 --     1 C    0.971
    46   1 H    0.998 --     3 C    0.977
    47   1 H    1.002 --     4 C    0.976
    48   1 H    0.987 --     6 N    0.874
    49   1 H    1.003 --     9 C    0.975
    50   1 H    1.006 --    10 C    0.970
    51   1 H    1.006 --    15 C    0.971
    52   1 H    1.002 --    16 C    0.976
    53   1 H    1.015 --    22 C    0.978
    54   1 H    1.015 --    22 C    0.983
    55   1 H    1.018 --    22 C    0.976
    56   1 H    1.001 --    23 C    0.971
    57   1 H    1.003 --    24 C    0.974
    58   1 H    0.999 --    25 C    0.969
    59   1 H    1.016 --    28 C    0.983
    60   1 H    1.009 --    28 C    0.980
    61   1 H    1.009 --    28 C    0.980
    62   1 H    1.003 --    30 C    0.975
    63   1 H    0.999 --    31 C    0.976
    64   1 H    0.988 --    34 N    0.874
    65   1 H    1.017 --    38 C    0.977
    66   1 H    1.016 --    38 C    0.983
    67   1 H    1.016 --    38 C    0.977
    68   1 H    1.001 --    39 C    0.971
    69   1 H    1.003 --    40 C    0.974
    70   1 H    0.999 --    41 C    0.969
    71   1 H    1.009 --    44 C    0.980
    72   1 H    1.016 --    44 C    0.983
    73   1 H    1.009 --    44 C    0.980
    74   6 C    3.925 --   105 C    1.363    75 C    1.348   118 H    0.971
    75   6 C    3.904 --    74 C    1.348    76 C    1.228    79 N    1.170
    76   6 C    3.954 --    77 C    1.598    75 C    1.228   119 H    0.977
    77   6 C    3.960 --    76 C    1.598    78 C    1.233   120 H    0.976
    78   6 C    3.896 --    80 C    1.309    77 C    1.233    79 N    1.171
    79   7 N    3.467 --    78 C    1.171    75 C    1.170   121 H    0.874
    80   6 C    3.938 --    81 C    1.337    78 C    1.309   108 C    1.002
    81   6 C    3.916 --    80 C    1.337    84 N    1.282    82 C    1.125
    82   6 C    3.966 --    83 C    1.706    81 C    1.125   122 H    0.975
    83   6 C    3.964 --    82 C    1.706    85 C    1.131   123 H    0.970
    84   7 N    3.020 --    85 C    1.344    81 C    1.282
    85   6 C    3.914 --    84 N    1.344    86 C    1.257    83 C    1.131
    86   6 C    3.938 --    85 C    1.257    87 C    1.256   148 C    1.180
    87   6 C    3.891 --    86 C    1.256    88 C    1.249   107 N    1.188
    88   6 C    3.960 --    89 C    1.583    87 C    1.249   124 H    0.971
    89   6 C    3.955 --    88 C    1.583    90 C    1.240   125 H    0.976
    90   6 C    3.898 --    91 C    1.312    89 C    1.240   107 N    1.162
    91   6 C    3.924 --   102 C    1.326    90 C    1.312    92 C    1.004
    92   6 C    3.973 --    93 C    1.370    99 C    1.318    91 C    1.004
    93   6 C    3.903 --    92 C    1.370    96 C    1.333    94 O    1.035
    94   8 O    2.147 --    93 C    1.035    95 C    0.927
    95   6 C    3.901 --   127 H    0.983   126 H    0.978   128 H    0.976
                            94 O    0.927
    96   6 C    3.985 --    97 C    1.478    93 C    1.333   129 H    0.971
    97   6 C    3.995 --    96 C    1.478    98 C    1.414   130 H    0.974
    98   6 C    3.981 --    97 C    1.414    99 C    1.387   131 H    0.969
    99   6 C    3.902 --    98 C    1.387    92 C    1.318   100 O    1.029
   100   8 O    2.141 --    99 C    1.029   101 C    0.936
   101   6 C    3.908 --   132 H    0.983   134 H    0.980   133 H    0.980
                           100 O    0.936
   102   6 C    3.929 --    91 C    1.326   106 N    1.309   103 C    1.117
   103   6 C    3.968 --   104 C    1.722   102 C    1.117   135 H    0.975
   104   6 C    3.966 --   103 C    1.722   105 C    1.118   136 H    0.976
   105   6 C    3.930 --    74 C    1.363   106 N    1.304   104 C    1.118
   106   7 N    3.010 --   102 C    1.309   105 C    1.304
   107   7 N    3.472 --    87 C    1.188    90 C    1.162   137 H    0.874
   108   6 C    3.973 --   109 C    1.371   115 C    1.320    80 C    1.002
   109   6 C    3.904 --   108 C    1.371   112 C    1.333   110 O    1.035
   110   8 O    2.147 --   109 C    1.035   111 C    0.927
   111   6 C    3.901 --   139 H    0.983   140 H    0.977   138 H    0.977
                           110 O    0.927
   112   6 C    3.985 --   113 C    1.478   109 C    1.333   141 H    0.971
   113   6 C    3.995 --   112 C    1.478   114 C    1.415   142 H    0.974
   114   6 C    3.981 --   113 C    1.415   115 C    1.386   143 H    0.969
   115   6 C    3.903 --   114 C    1.386   108 C    1.320   116 O    1.029
   116   8 O    2.141 --   115 C    1.029   117 C    0.936
   117   6 C    3.908 --   145 H    0.983   144 H    0.980   146 H    0.980
                           116 O    0.936
   118   1 H    1.002 --    74 C    0.971
   119   1 H    0.998 --    76 C    0.977
   120   1 H    1.002 --    77 C    0.976
   121   1 H    0.987 --    79 N    0.874
   122   1 H    1.003 --    82 C    0.975
   123   1 H    1.006 --    83 C    0.970
   124   1 H    1.006 --    88 C    0.971
   125   1 H    1.002 --    89 C    0.976
   126   1 H    1.015 --    95 C    0.978
   127   1 H    1.015 --    95 C    0.983
   128   1 H    1.018 --    95 C    0.976
   129   1 H    1.001 --    96 C    0.971
   130   1 H    1.003 --    97 C    0.974
   131   1 H    0.999 --    98 C    0.969
   132   1 H    1.016 --   101 C    0.983
   133   1 H    1.009 --   101 C    0.980
   134   1 H    1.009 --   101 C    0.980
   135   1 H    1.003 --   103 C    0.975
   136   1 H    0.999 --   104 C    0.976
   137   1 H    0.988 --   107 N    0.874
   138   1 H    1.017 --   111 C    0.977
   139   1 H    1.016 --   111 C    0.983
   140   1 H    1.016 --   111 C    0.977
   141   1 H    1.001 --   112 C    0.971
   142   1 H    1.003 --   113 C    0.974
   143   1 H    0.999 --   114 C    0.969
   144   1 H    1.009 --   117 C    0.980
   145   1 H    1.016 --   117 C    0.983
   146   1 H    1.009 --   117 C    0.980
   147   6 C    3.932 --   148 C    2.574    13 C    1.180
   148   6 C    3.932 --   147 C    2.574    86 C    1.180
 ---------------------------------------------------------------------------

           -------------------------------------------------
          | TOTAL ENERGY             -250.766358328412 Eh   |
          | GRADIENT NORM               0.000623570006 Eh/α |
          | HOMO-LUMO GAP               0.988368532779 eV   |
           -------------------------------------------------

 * finished run on 2022/07/29 at 17:12:18.700
