   * xtb version 6.5.1 (b24c23e) compiled by 'conda@728c89f4b128' on 2022-07-12
          program call               : xtb Ni_PhCN_C6_3.xyz --gfn 1 --opt -T 48

   ID    Z sym.   atoms
    1   28 Ni     1, 59, 129
    2    6 C      2-6, 8-13, 15-19, 21-26, 28-33, 35-40, 60-64, 66-71, 73-77,
                  79-84, 86-91, 93-98, 117-128, 130-134, 136-141, 143-147,
                  149-154, 156-161, 163-168
    3    7 N      7, 14, 20, 27, 34, 41, 65, 72, 78, 85, 92, 99, 135, 142,
                  148, 155, 162, 169
    4    1 H      42-58, 100-116, 170-185

          :  Hamiltonian                  GFN1-xTB          :
 * total energy  :  -336.5211936 Eh     change       -0.5070206E-08 Eh
 * total energy  :  -336.8741782 Eh     change       -0.3529846E+00 Eh
 * total energy  :  -336.9989112 Eh     change       -0.1247331E+00 Eh
 * total energy  :  -337.0950051 Eh     change       -0.9609387E-01 Eh
 * total energy  :  -337.1621048 Eh     change       -0.6709969E-01 Eh
 * total energy  :  -337.1992030 Eh     change       -0.3709821E-01 Eh
 * total energy  :  -337.2239169 Eh     change       -0.2471396E-01 Eh
 * total energy  :  -337.2400104 Eh     change       -0.1609346E-01 Eh
 * total energy  :  -337.2488001 Eh     change       -0.8789709E-02 Eh
 * total energy  :  -337.2574711 Eh     change       -0.8670930E-02 Eh
 * total energy  :  -337.3019049 Eh     change       -0.2129010E-04 Eh
 * total energy  :  -337.3019055 Eh     change       -0.5592519E-06 Eh
 * total energy  :  -337.3019182 Eh     change       -0.1273356E-04 Eh
 * total energy  :  -337.3019121 Eh     change        0.6156211E-05 Eh
 * total energy  :  -337.3019178 Eh     change       -0.5707886E-05 Eh
 * total energy  :  -337.3019300 Eh     change       -0.1219814E-04 Eh
 * total energy  :  -337.3019351 Eh     change       -0.5069901E-05 Eh
 * total energy  :  -337.3019416 Eh     change       -0.6524700E-05 Eh
 * total energy  :  -337.3019454 Eh     change       -0.3863794E-05 Eh
   *** GEOMETRY OPTIMIZATION CONVERGED AFTER 64 ITERATIONS ***

 final structure:
================
185
 xtb: 6.5.1 (b24c23e)
Ni          31.22524740586514        0.02945633127508        0.03307824404346
C           27.83481147341633        0.04262900116443        0.15193887086826
C           28.49012344025285        1.25456818188716        0.21795750438307
C           27.81772811521704        2.51531658158839        0.29753194483293
C           28.77791416668851        3.45928989472844        0.43484843117893
C           30.03596567897191        2.77162646519871        0.45518884958988
N           29.85084777609036        1.42299131373630        0.28197454249953
C           31.25745096736905        3.39438538116623        0.67791633784001
C           31.27577097809280        4.85091180441506        0.94960729043990
C           30.62572731190316        5.37162593513868        2.07070910922002
C           30.64559369776267        6.73073174415426        2.32805708416747
C           31.31439685805263        7.59871665389673        1.45980769348144
C           31.33415179030662        8.99833327793257        1.71962514834350
N           31.34896059582131       10.12973541091509        1.92913627506911
C           31.96432186079207        7.08243012160219        0.33483324008933
C           31.94609504265830        5.72154671738178        0.08738296659079
C           32.46384081702600        2.70666903782275        0.66429355498228
C           33.72713030093882        3.30927252638236        0.96482447405190
C           34.67040944081659        2.35595918787369        0.77372928061634
N           32.62961604748578        1.38167551924167        0.33072711737020
C           33.98129529402160        1.17442071504045        0.36280644435424
C           34.63709385030430        0.00469142550425       -0.03122100282109
C           33.95060226454229       -1.15041525672476       -0.41586398734396
C           34.60590276245014       -2.33308527080164       -0.87542495360529
C           33.64065981635857       -3.26572257224215       -1.05916204342999
C           32.39885009084954       -2.65194591448008       -0.69751744437258
N           32.59758632163567       -1.33706413856312       -0.34188192957608
C           31.18450824179614       -3.32492684274334       -0.66491753038764
C           31.16751293126586       -4.77512491906040       -0.96788641808619
C           30.43894574297214       -5.26331184128614       -2.05489638201295
C           30.42256694612431       -6.61668197730964       -2.34099373375944
C           31.13372726700588       -7.51179109684673       -1.53627782590844
C           31.11642204988286       -8.90561534702576       -1.82557021585444
N           31.10280576796145      -10.03212468232634       -2.05983684883175
C           31.86185663503556       -7.02833408638614       -0.44514134364807
C           31.87875264019477       -5.67304979598285       -0.16863323819420
C           29.98580588734649       -2.69562651792700       -0.35304543453992
C           28.72681187806354       -3.37466522943893       -0.25350412260689
C           27.78792083154146       -2.42756116108034       -0.02256995214209
C           28.47455413086379       -1.17300048267951        0.02830647163970
N           29.82536903159468       -1.34963369583051       -0.14073882849867
H           26.75191578691904        0.04631022178572        0.19366406890757
H           26.74783605581334        2.64121682994375        0.25024782076786
H           28.65864374352119        4.52760188026827        0.51409790022467
H           30.11588408697742        4.70011704518903        2.75228236742436
H           30.14473682147527        7.12720989664535        3.20349290468616
H           32.48111752868109        7.75282518584797       -0.34189064990227
H           32.44280761955014        5.32528722234660       -0.79105567631692
H           33.86371226177139        4.32861965742196        1.28690803939070
H           35.73909257747718        2.43146917656210        0.89309444164566
H           35.66848226790887       -2.42216027791529       -1.03371259667943
H           33.74941084830312       -4.27837219544726       -1.41151283271991
H           29.89531872758211       -4.57079209244419       -2.68757308724381
H           29.86001680608284       -6.98774538497398       -3.18968075708593
H           32.41119651462154       -7.71980026511819        0.18297332065926
H           32.43523699166008       -5.30280614242068        0.68496149590505
H           28.59279521545750       -4.44021706997570       -0.34531680075964
H           26.72368748137905       -2.54716962147865        0.10333200655497
Ni          63.22970111198532        0.00596368996181        0.05830263432596
C           66.62153589620155       -0.00529890279206        0.16477564816737
C           65.96537239087286       -1.21066119166429        0.30222726441325
C           66.63755040359160       -2.46528583161930        0.45086139447854
C           65.67705627166954       -3.40054235979054        0.63639705275856
C           64.41899977735541       -2.71269496371810        0.61765492605946
N           64.60457112170035       -1.37496538425252        0.37448923833248
C           63.19690549045931       -3.32382878305022        0.86671598482484
C           63.17745445307905       -4.76579962066098        1.20748814020716
C           63.82252423435028       -5.23261456916107        2.35487622522765
C           63.80046515773218       -6.57783165332353        2.67688425797011
C           63.13420690451862       -7.48589425603876        1.84860501441708
C           63.11082755727906       -8.87121355136156        2.17579258377959
N           63.09000475500114       -9.99091185562765        2.44030641175246
C           62.48988879647365       -7.02377003715513        0.69715700589089
C           62.51046619382613       -5.67633850272045        0.38483024841877
C           61.99053523236209       -2.63754276542676        0.81831751655073
C           60.72745146953950       -3.22623273997625        1.14660784196057
C           59.78425547324540       -2.28169517224412        0.91661400798837
N           61.82484640812859       -1.32873716663509        0.42678780769285
C           60.47299842771859       -1.11915204738213        0.45386915243900
C           59.81672990119991        0.03458411752070        0.01780651781831
C           60.50159866623289        1.17051063066753       -0.42123371650711
C           59.84386410573287        2.33198118218264       -0.92922366157547
C           60.80967661590839        3.24968994778300       -1.17393425712128
C           62.05445308681735        2.64938821206854       -0.79975172973572
N           61.85628449188843        1.35544323307688       -0.37428085178178
C           63.27167930753969        3.31746603460070       -0.82185850130553
C           63.29042633722735        4.74750571789578       -1.20934250874210
C           64.00244846270266        5.16568779652568       -2.33578342208603
C           64.01953301695647        6.49927462347803       -2.70299475797661
C           63.32596364638425        7.44473832237947       -1.94163650917586
C           63.34390826656623        8.81821013439775       -2.31572568654840
N           63.35906093628837        9.92807523757916       -2.61924125043527
C           62.61517991928741        7.03161548674085       -0.81093376187731
C           62.59739948577572        5.69544424489430       -0.45314838900758
C           64.47201831987690        2.70245828265107       -0.48918157495228
C           65.73328281817633        3.38293691838776       -0.44072531406982
C           66.67175253242615        2.44912338738555       -0.15981104342016
C           65.98282466656968        1.20158763488212       -0.02900982437545
N           64.63121512892263        1.37087388185738       -0.19936811001269
H           67.70455650311931       -0.00782139583725        0.20332138786035
H           67.70750728069028       -2.59356422738105        0.41207283478852
H           65.79620691547981       -4.46309853334055        0.77262201398796
H           64.33000428611642       -4.52955023321028        3.00569398671105
H           64.29746965302164       -6.93230785525426        3.57230731652856
H           61.97546553830604       -7.72545559520811        0.05105998823369
H           62.01790977651015       -5.32219378940807       -0.51370619335278
H           60.59126015802225       -4.23057630410696        1.51291550547773
H           58.71581772749338       -2.35124490383120        1.04164738408167
H           58.77943417668487        2.41751560055435       -1.07666462177738
H           60.69943420716239        4.24371311667221       -1.57539603929636
H           64.53233525653864        4.43349834074231       -2.93452974941707
H           64.56875345309123        6.81587325138850       -3.58193444580855
H           62.07974122508705        7.76237782343973       -0.21620087006113
H           62.05437774012741        5.38001451743211        0.43059530270258
H           65.86862986348650        4.44074365600203       -0.59733186668693
H           67.73714122843096        2.57324066715353       -0.04891860580556
C           39.83796083996127       -0.01650517307207       -0.05981760146614
C           38.60999137506291       -0.01818505923148       -0.06127630449956
C           37.26518490558495       -0.01535176186462       -0.05479055968791
C           36.04183100964505       -0.00711119204900       -0.04574683479654
C           41.18266925052086       -0.01163098975685       -0.06106951582547
C           42.40620147227953       -0.00305344500803       -0.06214911996579
C           55.84194920897711        0.05997200761077        0.00117904248048
C           54.61436607281692        0.05749570699883       -0.00373125015481
C           53.26873817765411        0.05349956090006       -0.01069872984608
C           52.04555691730089        0.04647899418271       -0.01783722334617
C           57.18770776470278        0.05610517836565        0.00723449781332
C           58.41072336763712        0.04785126961654        0.01053644326265
Ni          47.22551346419635        0.02210373994415       -0.04263625677359
C           43.81038597079073        0.00462802991924       -0.05875549761008
C           44.49097611693931       -1.18427889161738       -0.33813301957928
C           43.83058483770412       -2.42460640989349       -0.59170412745211
C           44.79201714291210       -3.31154108990347       -0.94571856197227
C           46.03617169836876       -2.60490317657035       -0.91660232104686
N           45.84350444707778       -1.30786172079424       -0.49870816254418
C           47.24766907508117       -3.14924944899960       -1.32242391603440
C           47.25692223502219       -4.52264928414152       -1.87777642253491
C           46.53710343138152       -4.82179966025142       -3.03675228376127
C           46.54606561388185       -6.10213945256869       -3.56035098552544
C           47.27365764293794       -7.11346399951537       -2.92604029563545
C           47.28252645342877       -8.43291046120262       -3.46063160326849
N           47.29107853966857       -9.49953442363144       -3.89237367262277
C           47.99253662028568       -6.81976859623180       -1.76347300722661
C           47.98496232021191       -5.53552009666306       -1.24941552456543
C           48.45054658041668       -2.46108873525357       -1.23003206805860
C           49.70332405408197       -2.97489818168369       -1.69344474738724
C           50.65239141746900       -2.07985277799012       -1.32687259623108
N           48.62544137035866       -1.23556181984322       -0.62901742269437
C           49.97596167380679       -1.01920787324326       -0.65119420004566
C           50.64026530364222        0.03891418421986       -0.02449956123812
C           49.95867523650423        1.08962393540565        0.59612434642920
C           50.61719980182990        2.15547657558691        1.28111817763211
C           49.65536839350436        3.04021293936022        1.63938574678445
C           48.41293144302120        2.51544394867718        1.16068084435591
N           48.60638790487634        1.29259785110419        0.55983113447583
C           47.20286410587716        3.19292793422676        1.23812098083710
C           47.19362264251210        4.56651811554518        1.79268266323241
C           46.45274809374754        4.86228990427632        2.93918445105021
C           46.44558499389186        6.14300641723391        3.46198031764719
C           47.17815209730848        7.15807037615227        2.83953636994366
C           47.17160813937002        8.47801826763173        3.37289703778998
N           47.16652347070238        9.54527170298865        3.80304204237845
C           47.91810689618507        6.86780312077067        1.68942132235826
C           47.92621418641453        5.58335816799863        1.17601725711036
C           46.00151240445566        2.63744517472789        0.81733726597561
C           44.75047403020150        3.33224384972178        0.83089137832630
C           43.80145079143357        2.43522658272414        0.46875523457069
C           44.47641928727764        1.20085097055946        0.22487100548678
N           45.82593709059758        1.33802072999384        0.39912887980999
H           42.76722801609223       -2.58057085411600       -0.50800953818036
H           44.67880549769835       -4.35239247533932       -1.20118787646665
H           45.98051421056104       -4.03730652239422       -3.53692686482328
H           45.99068490738641       -6.32560497259664       -4.46371209025029
H           48.55416884029835       -7.60240260360717       -1.26699557401489
H           48.53478885521895       -5.31346165898285       -0.34178323032160
H           49.83006418874111       -3.89965267350749       -2.23218329959051
H           51.71712046288779       -2.12111228134235       -1.49030086675482
H           51.67961336299690        2.20685752496084        1.45628032493714
H           49.76719462345641        3.96456158485594        2.18207419012592
H           45.89256647261426        4.07491895624084        3.43072951148511
H           45.87381244102432        6.36378572731574        4.35569864792988
H           48.48382983129417        7.65326027834153        1.20217771487502
H           48.49234810764156        5.36403398469938        0.27782660319508
H           44.62451606807130        4.37262361495648        1.08229373289237
H           42.73766202105990        2.58089489132234        0.37289863014072

          :  Hamiltonian                  GFN1-xTB          :
         :: total energy            -337.301945443565 Eh    ::
         :: gradient norm              0.000529167675 Eh/a0 ::
         :: HOMO-LUMO gap              1.093043095067 eV    ::
         :: SCC energy              -343.106866966715 Eh    ::
         :: repulsion energy           5.975397731054 Eh    ::

    * Orbital Energies and Occupations

         #    Occupation            Energy/Eh            Energy/eV
      -------------------------------------------------------------
         1        2.0000           -0.7951991             -21.6385
       ...           ...                  ...                  ...
       301        2.0000           -0.4105017             -11.1703
       302        2.0000           -0.4104758             -11.1696
       303        2.0000           -0.4100406             -11.1578
       304        2.0000           -0.4099247             -11.1546
       305        2.0000           -0.4096142             -11.1462
       306        2.0000           -0.4095708             -11.1450
       307        2.0000           -0.4085421             -11.1170
       308        2.0000           -0.4085110             -11.1162
       309        2.0000           -0.4084619             -11.1148
       310        2.0000           -0.4084280             -11.1139
       311        2.0000           -0.4065050             -11.0616
       312        2.0000           -0.4014721             -10.9246
       313        2.0000           -0.3954114             -10.7597 (HOMO)
       314                         -0.3552428              -9.6666 (LUMO)
       315                         -0.3470878              -9.4447
       316                         -0.3445982              -9.3770
       317                         -0.3433647              -9.3434
       318                         -0.3433045              -9.3418
       319                         -0.3421819              -9.3112
       320                         -0.3418196              -9.3014
       321                         -0.3406690              -9.2701
       322                         -0.3405810              -9.2677
       323                         -0.3212213              -8.7409
       324                         -0.3150446              -8.5728
       ...                                ...                  ...
       655                          1.5682952              42.6755
      -------------------------------------------------------------
                  HL-Gap            0.0401686 Eh            1.0930 eV

Wiberg/Mayer (AO) data.
largest (>0.10) Wiberg bond orders for each atom

     #   Z sym  total        # sym  WBO       # sym  WBO       # sym  WBO
 ---------------------------------------------------------------------------
     1  28 Ni   3.012 --    41 N    0.664     7 N    0.664    20 N    0.661
                            27 N    0.661
     2   6 C    3.935 --    40 C    1.364     3 C    1.364    42 H    0.970
     3   6 C    3.922 --     2 C    1.364     7 N    1.213     4 C    1.175
     4   6 C    3.960 --     5 C    1.650     3 C    1.175    43 H    0.975
     5   6 C    3.963 --     4 C    1.650     6 C    1.176    44 H    0.973
     6   6 C    3.920 --     8 C    1.322     7 N    1.222     5 C    1.176
     7   7 N    3.401 --     6 C    1.222     3 C    1.213     1 Ni   0.664
     8   6 C    3.938 --    17 C    1.327     6 C    1.322     9 C    1.029
     9   6 C    3.963 --    10 C    1.386    16 C    1.386     8 C    1.029
    10   6 C    3.988 --    11 C    1.463     9 C    1.386    45 H    0.971
                            15 C    0.102
    11   6 C    3.993 --    10 C    1.463    12 C    1.365    46 H    0.972
                            16 C    0.102
    12   6 C    3.985 --    11 C    1.365    15 C    1.364    13 C    1.098
    13   6 C    3.958 --    14 N    2.820    12 C    1.098
    14   7 N    2.973 --    13 C    2.820
    15   6 C    3.993 --    16 C    1.463    12 C    1.364    47 H    0.972
                            10 C    0.102
    16   6 C    3.988 --    15 C    1.463     9 C    1.386    48 H    0.971
                            11 C    0.102
    17   6 C    3.914 --     8 C    1.327    20 N    1.207    18 C    1.183
    18   6 C    3.959 --    19 C    1.636    17 C    1.183    49 H    0.973
    19   6 C    3.961 --    18 C    1.636    21 C    1.191    50 H    0.973
    20   7 N    3.405 --    21 C    1.238    17 C    1.207     1 Ni   0.661
    21   6 C    3.902 --    22 C    1.263    20 N    1.238    19 C    1.191
    22   6 C    3.944 --    21 C    1.263    23 C    1.263   120 C    1.185
    23   6 C    3.902 --    22 C    1.263    27 N    1.238    24 C    1.191
    24   6 C    3.961 --    25 C    1.636    23 C    1.191    51 H    0.973
    25   6 C    3.959 --    24 C    1.636    26 C    1.183    52 H    0.973
    26   6 C    3.914 --    28 C    1.327    27 N    1.206    25 C    1.183
    27   7 N    3.405 --    23 C    1.238    26 C    1.206     1 Ni   0.661
    28   6 C    3.938 --    26 C    1.327    37 C    1.321    29 C    1.029
    29   6 C    3.963 --    30 C    1.386    36 C    1.386    28 C    1.029
    30   6 C    3.988 --    31 C    1.463    29 C    1.386    53 H    0.971
                            35 C    0.102
    31   6 C    3.993 --    30 C    1.463    32 C    1.364    54 H    0.972
                            36 C    0.102
    32   6 C    3.985 --    31 C    1.364    35 C    1.364    33 C    1.098
    33   6 C    3.958 --    34 N    2.820    32 C    1.098
    34   7 N    2.973 --    33 C    2.820
    35   6 C    3.993 --    36 C    1.463    32 C    1.364    55 H    0.972
                            30 C    0.102
    36   6 C    3.988 --    35 C    1.463    29 C    1.386    56 H    0.971
                            31 C    0.102
    37   6 C    3.919 --    28 C    1.321    41 N    1.223    38 C    1.176
    38   6 C    3.963 --    39 C    1.650    37 C    1.176    57 H    0.973
    39   6 C    3.959 --    38 C    1.650    40 C    1.175    58 H    0.975
    40   6 C    3.922 --     2 C    1.364    41 N    1.212    39 C    1.175
    41   7 N    3.402 --    37 C    1.223    40 C    1.212     1 Ni   0.664
    42   1 H    1.000 --     2 C    0.970
    43   1 H    0.997 --     4 C    0.975
    44   1 H    1.004 --     5 C    0.973
    45   1 H    1.003 --    10 C    0.971
    46   1 H    1.000 --    11 C    0.972
    47   1 H    1.000 --    15 C    0.972
    48   1 H    1.003 --    16 C    0.971
    49   1 H    1.004 --    18 C    0.973
    50   1 H    1.001 --    19 C    0.973
    51   1 H    1.001 --    24 C    0.973
    52   1 H    1.004 --    25 C    0.973
    53   1 H    1.003 --    30 C    0.971
    54   1 H    1.000 --    31 C    0.972
    55   1 H    1.000 --    35 C    0.972
    56   1 H    1.003 --    36 C    0.971
    57   1 H    1.004 --    38 C    0.973
    58   1 H    0.997 --    39 C    0.975
    59  28 Ni   3.012 --    99 N    0.664    65 N    0.664    78 N    0.661
                            85 N    0.661
    60   6 C    3.936 --    98 C    1.365    61 C    1.364   100 H    0.970
    61   6 C    3.922 --    60 C    1.364    65 N    1.213    62 C    1.174
    62   6 C    3.960 --    63 C    1.650    61 C    1.174   101 H    0.975
    63   6 C    3.963 --    62 C    1.650    64 C    1.176   102 H    0.973
    64   6 C    3.920 --    66 C    1.322    65 N    1.222    63 C    1.176
    65   7 N    3.402 --    64 C    1.222    61 C    1.213    59 Ni   0.664
    66   6 C    3.939 --    75 C    1.326    64 C    1.322    67 C    1.028
    67   6 C    3.963 --    68 C    1.386    74 C    1.386    66 C    1.028
    68   6 C    3.988 --    69 C    1.463    67 C    1.386   103 H    0.971
                            73 C    0.102
    69   6 C    3.993 --    68 C    1.463    70 C    1.365   104 H    0.972
                            74 C    0.102
    70   6 C    3.985 --    69 C    1.365    73 C    1.364    71 C    1.098
    71   6 C    3.958 --    72 N    2.820    70 C    1.098
    72   7 N    2.973 --    71 C    2.820
    73   6 C    3.993 --    74 C    1.463    70 C    1.364   105 H    0.972
                            68 C    0.102
    74   6 C    3.988 --    73 C    1.463    67 C    1.386   106 H    0.971
                            69 C    0.102
    75   6 C    3.915 --    66 C    1.326    78 N    1.208    76 C    1.183
    76   6 C    3.959 --    77 C    1.637    75 C    1.183   107 H    0.973
    77   6 C    3.961 --    76 C    1.637    79 C    1.191   108 H    0.973
    78   7 N    3.406 --    79 C    1.236    75 C    1.208    59 Ni   0.661
    79   6 C    3.903 --    80 C    1.265    78 N    1.236    77 C    1.191
    80   6 C    3.945 --    79 C    1.265    81 C    1.265   128 C    1.180
    81   6 C    3.904 --    80 C    1.265    85 N    1.237    82 C    1.191
    82   6 C    3.961 --    83 C    1.636    81 C    1.191   109 H    0.973
    83   6 C    3.959 --    82 C    1.636    84 C    1.183   110 H    0.973
    84   6 C    3.915 --    86 C    1.327    85 N    1.207    83 C    1.183
    85   7 N    3.406 --    81 C    1.237    84 C    1.207    59 Ni   0.661
    86   6 C    3.939 --    84 C    1.327    95 C    1.321    87 C    1.029
    87   6 C    3.963 --    88 C    1.386    94 C    1.386    86 C    1.029
    88   6 C    3.988 --    89 C    1.463    87 C    1.386   111 H    0.971
                            93 C    0.102
    89   6 C    3.993 --    88 C    1.463    90 C    1.364   112 H    0.972
                            94 C    0.102
    90   6 C    3.985 --    93 C    1.365    89 C    1.364    91 C    1.098
    91   6 C    3.958 --    92 N    2.820    90 C    1.098
    92   7 N    2.973 --    91 C    2.820
    93   6 C    3.993 --    94 C    1.463    90 C    1.365   113 H    0.972
                            88 C    0.102
    94   6 C    3.988 --    93 C    1.463    87 C    1.386   114 H    0.971
                            89 C    0.102
    95   6 C    3.920 --    86 C    1.321    99 N    1.223    96 C    1.176
    96   6 C    3.963 --    97 C    1.650    95 C    1.176   115 H    0.973
    97   6 C    3.960 --    96 C    1.650    98 C    1.174   116 H    0.975
    98   6 C    3.922 --    60 C    1.365    99 N    1.212    97 C    1.174
    99   7 N    3.402 --    95 C    1.223    98 C    1.212    59 Ni   0.664
   100   1 H    1.000 --    60 C    0.970
   101   1 H    0.997 --    62 C    0.975
   102   1 H    1.004 --    63 C    0.973
   103   1 H    1.003 --    68 C    0.971
   104   1 H    1.000 --    69 C    0.972
   105   1 H    1.000 --    73 C    0.972
   106   1 H    1.003 --    74 C    0.971
   107   1 H    1.004 --    76 C    0.973
   108   1 H    1.001 --    77 C    0.973
   109   1 H    1.001 --    82 C    0.973
   110   1 H    1.004 --    83 C    0.973
   111   1 H    1.003 --    88 C    0.971
   112   1 H    1.000 --    89 C    0.972
   113   1 H    1.000 --    93 C    0.972
   114   1 H    1.003 --    94 C    0.971
   115   1 H    1.004 --    96 C    0.973
   116   1 H    0.997 --    97 C    0.975
   117   6 C    3.928 --   118 C    2.373   121 C    1.332   120 C    0.191
   118   6 C    3.927 --   117 C    2.373   119 C    1.332   122 C    0.191
   119   6 C    3.938 --   120 C    2.456   118 C    1.332
   120   6 C    3.891 --   119 C    2.456    22 C    1.185   117 C    0.191
   121   6 C    3.935 --   122 C    2.454   117 C    1.332
   122   6 C    3.892 --   121 C    2.454   130 C    1.187   118 C    0.191
   123   6 C    3.925 --   124 C    2.378   127 C    1.327   126 C    0.191
   124   6 C    3.927 --   123 C    2.378   125 C    1.327   128 C    0.191
   125   6 C    3.935 --   126 C    2.459   124 C    1.327
   126   6 C    3.891 --   125 C    2.459   150 C    1.183   123 C    0.191
   127   6 C    3.938 --   128 C    2.461   123 C    1.327
   128   6 C    3.890 --   127 C    2.461    80 C    1.180   124 C    0.191
   129  28 Ni   3.004 --   155 N    0.660   148 N    0.660   169 N    0.660
                           135 N    0.660
   130   6 C    3.935 --   131 C    1.261   168 C    1.260   122 C    1.187
   131   6 C    3.903 --   130 C    1.261   135 N    1.239   132 C    1.193
   132   6 C    3.959 --   133 C    1.634   131 C    1.193   170 H    0.973
   133   6 C    3.959 --   132 C    1.634   134 C    1.185   171 H    0.973
   134   6 C    3.913 --   136 C    1.324   135 N    1.206   133 C    1.185
   135   7 N    3.400 --   131 C    1.239   134 C    1.206   129 Ni   0.660
   136   6 C    3.934 --   134 C    1.324   145 C    1.324   137 C    1.029
   137   6 C    3.963 --   144 C    1.386   138 C    1.386   136 C    1.029
   138   6 C    3.988 --   139 C    1.463   137 C    1.386   172 H    0.971
                           143 C    0.102
   139   6 C    3.993 --   138 C    1.463   140 C    1.364   173 H    0.972
                           144 C    0.102
   140   6 C    3.985 --   143 C    1.364   139 C    1.364   141 C    1.098
   141   6 C    3.958 --   142 N    2.820   140 C    1.098
   142   7 N    2.973 --   141 C    2.820
   143   6 C    3.993 --   144 C    1.463   140 C    1.364   174 H    0.972
                           138 C    0.102
   144   6 C    3.988 --   143 C    1.463   137 C    1.386   175 H    0.971
                           139 C    0.102
   145   6 C    3.913 --   136 C    1.324   148 N    1.206   146 C    1.185
   146   6 C    3.960 --   147 C    1.634   145 C    1.185   176 H    0.973
   147   6 C    3.959 --   146 C    1.634   149 C    1.192   177 H    0.973
   148   7 N    3.399 --   149 C    1.238   145 C    1.206   129 Ni   0.660
   149   6 C    3.904 --   150 C    1.263   148 N    1.238   147 C    1.192
   150   6 C    3.935 --   149 C    1.263   151 C    1.263   126 C    1.183
   151   6 C    3.904 --   150 C    1.263   155 N    1.238   152 C    1.192
   152   6 C    3.959 --   153 C    1.634   151 C    1.192   178 H    0.973
   153   6 C    3.960 --   152 C    1.634   154 C    1.185   179 H    0.973
   154   6 C    3.913 --   156 C    1.324   155 N    1.206   153 C    1.185
   155   7 N    3.399 --   151 C    1.238   154 C    1.206   129 Ni   0.660
   156   6 C    3.934 --   165 C    1.324   154 C    1.324   157 C    1.030
   157   6 C    3.963 --   158 C    1.385   164 C    1.385   156 C    1.030
   158   6 C    3.988 --   159 C    1.463   157 C    1.385   180 H    0.971
                           163 C    0.102
   159   6 C    3.993 --   158 C    1.463   160 C    1.365   181 H    0.972
                           164 C    0.102
   160   6 C    3.985 --   159 C    1.365   163 C    1.364   161 C    1.098
   161   6 C    3.958 --   162 N    2.820   160 C    1.098
   162   7 N    2.973 --   161 C    2.820
   163   6 C    3.993 --   164 C    1.463   160 C    1.364   182 H    0.972
                           158 C    0.102
   164   6 C    3.988 --   163 C    1.463   157 C    1.385   183 H    0.971
                           159 C    0.102
   165   6 C    3.913 --   156 C    1.324   169 N    1.206   166 C    1.185
   166   6 C    3.959 --   167 C    1.633   165 C    1.185   184 H    0.973
   167   6 C    3.959 --   166 C    1.633   168 C    1.193   185 H    0.973
   168   6 C    3.903 --   130 C    1.260   169 N    1.239   167 C    1.193
   169   7 N    3.400 --   168 C    1.239   165 C    1.206   129 Ni   0.660
   170   1 H    1.001 --   132 C    0.973
   171   1 H    1.003 --   133 C    0.973
   172   1 H    1.003 --   138 C    0.971
   173   1 H    1.000 --   139 C    0.972
   174   1 H    1.000 --   143 C    0.972
   175   1 H    1.003 --   144 C    0.971
   176   1 H    1.003 --   146 C    0.973
   177   1 H    1.001 --   147 C    0.973
   178   1 H    1.001 --   152 C    0.973
   179   1 H    1.004 --   153 C    0.973
   180   1 H    1.003 --   158 C    0.971
   181   1 H    1.000 --   159 C    0.972
   182   1 H    1.000 --   163 C    0.972
   183   1 H    1.003 --   164 C    0.971
   184   1 H    1.003 --   166 C    0.973
   185   1 H    1.001 --   167 C    0.973
 ---------------------------------------------------------------------------

           -------------------------------------------------
          | TOTAL ENERGY             -337.301945443565 Eh   |
          | GRADIENT NORM               0.000529167675 Eh/α |
          | HOMO-LUMO GAP               1.093043095067 eV   |
           -------------------------------------------------

 * finished run on 2022/07/30 at 11:40:37.676
