   * xtb version 6.5.1 (b24c23e) compiled by 'conda@728c89f4b128' on 2022-07-12
          program call               : xtb H_C2_4.xyz --gfn 1 --opt -T 48

   ID    Z sym.   atoms
    1    6 C      1-5, 7-10, 12-17, 19-23, 38-42, 44-47, 49-54, 56-60, 75-85,
                  87-90, 92-97, 99-103, 117-121, 123-126, 128-133, 135-139
    2    7 N      6, 11, 18, 24, 43, 48, 55, 61, 86, 91, 98, 104, 122, 127,
                  134, 140
    3    1 H      25-37, 62-74, 105-116, 141-152

          :  Hamiltonian                  GFN1-xTB          :
 * total energy  :  -258.7747491 Eh     change       -0.3536229E-08 Eh
 * total energy  :  -258.9462965 Eh     change       -0.1715474E+00 Eh
 * total energy  :  -259.0565004 Eh     change       -0.1102039E+00 Eh
 * total energy  :  -259.0858795 Eh     change       -0.2937907E-01 Eh
 * total energy  :  -259.1021157 Eh     change       -0.1623623E-01 Eh
 * total energy  :  -259.1117569 Eh     change       -0.9641225E-02 Eh
 * total energy  :  -259.1223734 Eh     change       -0.1061649E-01 Eh
 * total energy  :  -259.1355671 Eh     change       -0.1319371E-01 Eh
 * total energy  :  -259.1548515 Eh     change       -0.1928436E-01 Eh
 * total energy  :  -259.1825693 Eh     change       -0.2771776E-01 Eh
 * total energy  :  -259.5506575 Eh     change       -0.1149445E-03 Eh
 * total energy  :  -259.5507706 Eh     change       -0.1131286E-03 Eh
 * total energy  :  -259.5508811 Eh     change       -0.1104850E-03 Eh
 * total energy  :  -259.5509862 Eh     change       -0.1051333E-03 Eh
 * total energy  :  -259.5510822 Eh     change       -0.9598896E-04 Eh
 * total energy  :  -259.5511598 Eh     change       -0.7752090E-04 Eh
 * total energy  :  -259.5512030 Eh     change       -0.4328624E-04 Eh
 * total energy  :  -259.5512107 Eh     change       -0.7620737E-05 Eh
 * total energy  :  -259.5512143 Eh     change       -0.3683538E-05 Eh
   *** GEOMETRY OPTIMIZATION CONVERGED AFTER 91 ITERATIONS ***

 final structure:
================
152
 xtb: 6.5.1 (b24c23e)
C           24.14999996583596        0.02359737873952        0.00852956957031
C           24.75211036985429       -1.22441262431486       -0.08789007521986
C           24.11783311913117       -2.49633885361934       -0.18287412013425
C           25.09508377053157       -3.44772988408198       -0.26801662048659
C           26.35682021159227       -2.78728406463861       -0.22744604012763
N           26.09868013305930       -1.45179615247902       -0.11590461180184
C           27.61531780800131       -3.37253877857561       -0.29725067271298
C           28.84897578074251       -2.73846640897254       -0.26036114372356
C           30.10769813490550       -3.45487289511122       -0.35873865932780
C           31.08121020503969       -2.52444059982500       -0.28229372516511
N           29.07853797143294       -1.40336884671002       -0.12863176234043
C           30.41670216548031       -1.24331438598863       -0.13270548601765
C           31.10267636231020       -0.01652784376035       -0.00733784045323
C           30.47054486582953        1.23639280155257        0.11728819979946
C           31.09298723467167        2.50522781018505        0.25709093281787
C           30.11096176497150        3.45378464460222        0.33270339305109
C           28.85601678724143        2.79020494219944        0.24601408149154
N           29.12505578771109        1.45397695358943        0.11938569893007
C           27.59975187835978        3.38299991516095        0.28246256095264
C           26.36423405749835        2.75219948972470        0.21766828489456
C           25.09631582399819        3.46393846577473        0.26807831142813
C           24.12987586426077        2.52691583231383        0.19349873159194
C           24.80848505895374        1.24437781016148        0.09713457635085
N           26.15119623974136        1.41968266848107        0.11206982583199
H           23.06536500670254        0.03753212259268        0.01371390675659
H           23.05012253673140       -2.64799852558583       -0.18546544505562
H           24.96757363567405       -4.51533669739416       -0.35238386099794
H           26.80330539612126       -0.72376202727062       -0.06429193716561
H           27.62592933828454       -4.45354256183630       -0.39482927684465
H           30.20069894664605       -4.52346273165872       -0.47300490864004
H           32.14859454112946       -2.66442334927111       -0.32560598872199
H           32.15768974244478        2.66360153662939        0.29813579040028
H           30.23398182094612        4.51955182999495        0.44118500709016
H           28.42476060956641        0.72397746843985        0.03883679619454
H           27.59470181737555        4.46423843754297        0.37688804119488
H           24.99615609007665        4.53507491337788        0.35003450779106
H           23.05884070549178        2.65651004730724        0.20061449001679
C           64.22127151550764       -0.01019594443502        0.00542861591581
C           63.61780166594266        1.21004241947727       -0.27065195259767
C           64.25229932168703        2.45484517905396       -0.54865725665006
C           63.27541870076724        3.38335055796767       -0.77428541631764
C           62.01357904886100        2.73556384829657       -0.64070187817598
N           62.27135575806818        1.43076143965251       -0.33397848672559
C           60.75488462413084        3.30249204627446       -0.80054413897678
C           59.52328988209423        2.67634931233302       -0.67193957828711
C           58.26049335424852        3.36163093991298       -0.88051258249284
C           57.29186135499610        2.44816441885718       -0.66378602844801
N           59.30156622738372        1.37561069167841       -0.33897163492408
C           57.96460362998786        1.20914706084440       -0.31914730876436
C           57.28528981632026        0.01222313718070       -0.01092887430327
C           57.91615651034498       -1.20823362948829        0.29755315494988
C           57.29120475710302       -2.43947059989035        0.63136800264208
C           58.27239428043914       -3.36756289913968        0.84630818568170
C           59.52820187280140       -2.72764357952372        0.65493471710859
N           59.26101692704842       -1.42561894892948        0.32798827727215
C           60.78541160234622       -3.30725096190889        0.77454265497019
C           62.01823845169685       -2.68860162819312        0.61214404493908
C           63.28940434155261       -3.38017419428891        0.76188752296853
C           64.25141480164601       -2.45991563612087        0.54927983833628
C           63.56690088931183       -1.20766224304790        0.26954270547326
N           62.22507676604610       -1.38473539281353        0.31251748357390
H           65.30598563548189       -0.02072914362006        0.01264511644501
H           65.32002705424996        2.60482366797440       -0.57073154130067
H           63.40323796850971        4.42723375295076       -1.01330389433367
H           61.56567934279920        0.71878819323976       -0.17820374808031
H           60.74250379939775        4.35669001039448       -1.05856389531938
H           58.16182378522782        4.39942441103946       -1.15769541926063
H           56.22331104062054        2.57230309831733       -0.73085801630601
H           56.22588696566562       -2.58607350986370        0.70183561609914
H           58.14837883821371       -4.40400060129290        1.11679207634771
H           59.96303986349144       -0.71835625501030        0.13669730611154
H           60.79409843423640       -4.36226684069650        1.02892267451054
H           63.39457028453574       -4.42762369465409        0.99825629461508
H           65.32303726995046       -2.58267855576803        0.57219452149346
C           32.51062742478368       -0.02676764795767       -0.00563231675292
C           33.72914575995588       -0.02748271203782       -0.00174966622246
C           43.59286117297526       -0.00258514299802        0.00243446102984
C           44.81192249746924        0.00366403000746        0.00407709679244
C           54.65984686627272        0.02033828939097       -0.00173344381523
C           55.87763305896377        0.02050808857832       -0.00855399643244
C           35.13616957129339       -0.02316301320771        0.00084857280228
C           35.78071670141715        1.22849762076558       -0.06626826173394
C           35.17901286774034        2.51086989018316       -0.14969471607675
C           36.17795598366777        3.44536963244302       -0.18473538605307
C           37.42047424731196        2.75771795607462       -0.12804244258623
N           37.12970836748227        1.42297291627235       -0.05915623080904
C           38.68573544064608        3.33509765606910       -0.14306045313435
C           39.92109438496576        2.70811464551949       -0.10749012250423
C           41.17551197635139        3.43769477075037       -0.13792561112604
C           42.15476391987460        2.51058808008022       -0.10074241226547
N           40.15927195221403        1.36908529557397       -0.05022672852865
C           41.49803485211042        1.21897109155782       -0.04538797009271
C           42.18665199871540       -0.01259998810243        0.00196933641260
C           41.54241670145146       -1.26539747157328        0.05020071365452
C           42.14353564831841       -2.54964938145869        0.10474080641588
C           41.14411384030835       -3.48311899347749        0.14416394144095
C           39.90155844906365       -2.79335571368375        0.11637742716110
N           40.19317765834361       -1.45815360525326        0.05811824184331
C           38.63633391636068       -3.36940798834886        0.15224444308675
C           37.40056154409267       -2.74183586572074        0.13501813144514
C           36.14623022983820       -3.47024777537554        0.19580191229535
C           35.16648699482552       -2.54380209868655        0.15791026104636
C           35.82299993654809       -1.25365941308504        0.07019276064952
N           37.16231745774406       -1.40405840862000        0.06265441690270
H           34.11723871172389        2.68910795489079       -0.18284379111668
H           36.07308683214072        4.51679239830033       -0.24646379062900
H           37.81307111210119        0.67403063200877       -0.01085321334780
H           38.69649049666045        4.41965097821068       -0.19416238784374
H           41.26235172284922        4.51196946587344       -0.18324204289170
H           43.22165968258883        2.66008664664527       -0.11137111850402
H           43.20521867907816       -2.73002507215583        0.11464356850746
H           41.24854582957705       -4.55538205091772        0.18976287425684
H           39.51007913014407       -0.70805571597670        0.02786227798025
H           38.62567834102595       -4.45391008459443        0.20466159735254
H           36.06024508429029       -4.54356765513473        0.26079467168060
H           34.09992494002256       -2.69248638212370        0.19043185243570
C           46.21825000722129        0.01280123369626        0.00643362595251
C           46.86219428721748        1.26604699287774        0.04578062944836
C           46.25941429208690        2.55002471356342        0.09041423510481
C           47.25753043310771        3.48495210367730        0.12733823008100
C           48.50097676581208        2.79657141434374        0.10748605242311
N           48.21115934618045        1.46053370791959        0.05593834332191
C           49.76577870636627        3.37345136319385        0.14558499230020
C           51.00033365885743        2.74330512873537        0.13300793985415
C           52.25778540534374        3.46640375780139        0.19650601463386
C           53.23404992677229        2.53609584148930        0.15960686550488
N           51.23264956239535        1.40467785110556        0.06085736510976
C           52.57109451642074        1.24895116497099        0.06920708069618
C           53.25315485331586        0.01656619321644        0.00314078166420
C           52.61144682359240       -1.23593686719076       -0.05702248346798
C           53.21718831066494       -2.51670187909442       -0.14185670154073
C           52.22013289870495       -3.45366186529496       -0.17071714956658
C           50.97595938755353       -2.76909406671150       -0.10952406816550
N           51.26327627905539       -1.43357568050954       -0.04406733831221
C           49.71047438007172       -3.34594488797463       -0.11706529904905
C           48.47704412027869       -2.71500679417730       -0.08096102004081
C           47.22044514632483       -3.44097652394953       -0.10291829906416
C           46.24417953739421       -2.51057641990157       -0.07208034847946
C           46.90479763913206       -1.22039412273761       -0.02912175484648
N           48.24308416512167       -1.37462415057835       -0.03408750499130
H           45.19744552674678        2.72910302981781        0.09597531688388
H           47.15169236301183        4.55734570087824        0.16605860588618
H           48.89604499129058        0.71190266433453        0.03200880121924
H           49.77694918737941        4.45801350075002        0.19513103906566
H           52.34788507699251        4.53925117836445        0.26322372909574
H           54.30167730753711        2.67933054018397        0.19583221007227
H           54.27984092666114       -2.69114004996599       -0.18155755460203
H           52.32716464455689       -4.52488653139477       -0.23213345760102
H           50.57741226528451       -0.68710491373308        0.00445839886649
H           49.69731663518969       -4.43065639089678       -0.16295797991574
H           47.13023788821243       -4.51533132820898       -0.13863010714397
H           45.17686782414221       -2.65695423157774       -0.07924814217094

          :  Hamiltonian                  GFN1-xTB          :
         :: total energy            -259.551214349722 Eh    ::
         :: gradient norm              0.000311247119 Eh/a0 ::
         :: HOMO-LUMO gap              0.736863529342 eV    ::
         :: SCC energy              -263.801312319696 Eh    ::
         :: repulsion energy           4.377873248556 Eh    ::

    * Orbital Energies and Occupations

         #    Occupation            Energy/Eh            Energy/eV
      -------------------------------------------------------------
         1        2.0000           -0.8043840             -21.8884
       ...           ...                  ...                  ...
       225        2.0000           -0.4161781             -11.3248
       226        2.0000           -0.4161463             -11.3239
       227        2.0000           -0.4158719             -11.3165
       228        2.0000           -0.4156811             -11.3113
       229        2.0000           -0.4156438             -11.3102
       230        2.0000           -0.3998531             -10.8806
       231        2.0000           -0.3996709             -10.8756
       232        2.0000           -0.3989899             -10.8571
       233        2.0000           -0.3988815             -10.8541
       234        2.0000           -0.3963959             -10.7865
       235        2.0000           -0.3905328             -10.6269
       236        2.0000           -0.3826245             -10.4117
       237        2.0000           -0.3748841             -10.2011 (HOMO)
       238        0.0000           -0.3478048              -9.4643 (LUMO)
       239                         -0.3389102              -9.2222
       240                         -0.3311708              -9.0116
       241                         -0.3310734              -9.0090
       242                         -0.3308894              -9.0040
       243                         -0.3306889              -8.9985
       244                         -0.3290524              -8.9540
       245                         -0.3213030              -8.7431
       246                         -0.3019665              -8.2169
       247                         -0.2948930              -8.0244
       248                         -0.2893700              -7.8742
       ...                                ...                  ...
       508                          1.3365589              36.3696
      -------------------------------------------------------------
                  HL-Gap            0.0270792 Eh            0.7369 eV

Wiberg/Mayer (AO) data.
largest (>0.10) Wiberg bond orders for each atom

     #   Z sym  total        # sym  WBO       # sym  WBO       # sym  WBO
 ---------------------------------------------------------------------------
     1   6 C    3.928 --    23 C    1.363     2 C    1.350    25 H    0.972
     2   6 C    3.903 --     1 C    1.350     3 C    1.225     6 N    1.172
     3   6 C    3.953 --     4 C    1.602     2 C    1.225    26 H    0.977
     4   6 C    3.958 --     3 C    1.602     5 C    1.226    27 H    0.977
     5   6 C    3.897 --     7 C    1.343     4 C    1.226     6 N    1.174
     6   7 N    3.470 --     5 C    1.174     2 C    1.172    28 H    0.873
     7   6 C    3.944 --     8 C    1.378     5 C    1.343    29 H    0.971
     8   6 C    3.915 --     7 C    1.378    11 N    1.278     9 C    1.119
     9   6 C    3.965 --    10 C    1.715     8 C    1.119    30 H    0.976
    10   6 C    3.964 --     9 C    1.715    12 C    1.125    31 H    0.967
    11   7 N    3.025 --    12 C    1.352     8 C    1.278
    12   6 C    3.913 --    11 N    1.352    13 C    1.254    10 C    1.125
    13   6 C    3.942 --    12 C    1.254    14 C    1.253    75 C    1.188
    14   6 C    3.888 --    13 C    1.253    15 C    1.247    18 N    1.192
    15   6 C    3.959 --    16 C    1.586    14 C    1.247    32 H    0.968
    16   6 C    3.952 --    15 C    1.586    17 C    1.234    33 H    0.977
    17   6 C    3.899 --    19 C    1.348    16 C    1.234    18 N    1.163
    18   7 N    3.475 --    14 C    1.192    17 C    1.163    34 H    0.872
    19   6 C    3.928 --    20 C    1.366    17 C    1.348    35 H    0.971
    20   6 C    3.931 --    19 C    1.366    24 N    1.307    21 C    1.112
    21   6 C    3.967 --    22 C    1.730    20 C    1.112    36 H    0.976
    22   6 C    3.966 --    21 C    1.730    23 C    1.113    37 H    0.976
    23   6 C    3.929 --     1 C    1.363    24 N    1.309    22 C    1.113
    24   7 N    3.013 --    23 C    1.309    20 C    1.307
    25   1 H    1.001 --     1 C    0.972
    26   1 H    0.998 --     3 C    0.977
    27   1 H    0.998 --     4 C    0.977
    28   1 H    0.986 --     6 N    0.873
    29   1 H    1.002 --     7 C    0.971
    30   1 H    0.998 --     9 C    0.976
    31   1 H    1.007 --    10 C    0.967
    32   1 H    1.007 --    15 C    0.968
    33   1 H    0.998 --    16 C    0.977
    34   1 H    0.987 --    18 N    0.872
    35   1 H    1.002 --    19 C    0.971
    36   1 H    0.998 --    21 C    0.976
    37   1 H    0.998 --    22 C    0.976
    38   6 C    3.929 --    60 C    1.363    39 C    1.350    62 H    0.972
    39   6 C    3.903 --    38 C    1.350    40 C    1.225    43 N    1.172
    40   6 C    3.953 --    41 C    1.602    39 C    1.225    63 H    0.977
    41   6 C    3.958 --    40 C    1.602    42 C    1.226    64 H    0.977
    42   6 C    3.897 --    44 C    1.343    41 C    1.226    43 N    1.174
    43   7 N    3.471 --    42 C    1.174    39 C    1.172    65 H    0.873
    44   6 C    3.944 --    45 C    1.378    42 C    1.343    66 H    0.971
    45   6 C    3.915 --    44 C    1.378    48 N    1.278    46 C    1.119
    46   6 C    3.965 --    47 C    1.716    45 C    1.119    67 H    0.976
    47   6 C    3.964 --    46 C    1.716    49 C    1.124    68 H    0.969
    48   7 N    3.025 --    49 C    1.351    45 C    1.278
    49   6 C    3.913 --    48 N    1.351    50 C    1.255    47 C    1.124
    50   6 C    3.942 --    49 C    1.255    51 C    1.255    80 C    1.185
    51   6 C    3.889 --    50 C    1.255    52 C    1.246    55 N    1.192
    52   6 C    3.959 --    53 C    1.587    51 C    1.246    69 H    0.970
    53   6 C    3.953 --    52 C    1.587    54 C    1.234    70 H    0.977
    54   6 C    3.899 --    56 C    1.348    53 C    1.234    55 N    1.163
    55   7 N    3.475 --    51 C    1.192    54 C    1.163    71 H    0.873
    56   6 C    3.928 --    57 C    1.366    54 C    1.348    72 H    0.971
    57   6 C    3.931 --    56 C    1.366    61 N    1.307    58 C    1.112
    58   6 C    3.967 --    59 C    1.730    57 C    1.112    73 H    0.976
    59   6 C    3.966 --    58 C    1.730    60 C    1.113    74 H    0.976
    60   6 C    3.929 --    38 C    1.363    61 N    1.309    59 C    1.113
    61   7 N    3.014 --    60 C    1.309    57 C    1.307
    62   1 H    1.002 --    38 C    0.972
    63   1 H    0.998 --    40 C    0.977
    64   1 H    0.998 --    41 C    0.977
    65   1 H    0.986 --    43 N    0.873
    66   1 H    1.002 --    44 C    0.971
    67   1 H    0.998 --    46 C    0.976
    68   1 H    1.006 --    47 C    0.969
    69   1 H    1.006 --    52 C    0.970
    70   1 H    0.998 --    53 C    0.977
    71   1 H    0.987 --    55 N    0.873
    72   1 H    1.002 --    56 C    0.971
    73   1 H    0.998 --    58 C    0.976
    74   1 H    0.998 --    59 C    0.976
    75   6 C    3.930 --    76 C    2.567    13 C    1.188
    76   6 C    3.934 --    75 C    2.567    81 C    1.191
    77   6 C    3.931 --    78 C    2.560    93 C    1.195
    78   6 C    3.931 --    77 C    2.560   117 C    1.195
    79   6 C    3.934 --    80 C    2.568   129 C    1.188
    80   6 C    3.930 --    79 C    2.568    50 C    1.185
    81   6 C    3.927 --   103 C    1.253    82 C    1.249    76 C    1.191
    82   6 C    3.889 --    83 C    1.252    81 C    1.249    86 N    1.192
    83   6 C    3.956 --    84 C    1.580    82 C    1.252   105 H    0.968
    84   6 C    3.953 --    83 C    1.580    85 C    1.240   106 H    0.977
    85   6 C    3.895 --    87 C    1.336    84 C    1.240    86 N    1.165
    86   7 N    3.471 --    82 C    1.192    85 C    1.165   107 H    0.871
    87   6 C    3.930 --    88 C    1.383    85 C    1.336   108 H    0.970
    88   6 C    3.918 --    87 C    1.383    91 N    1.273    89 C    1.120
    89   6 C    3.965 --    90 C    1.713    88 C    1.120   109 H    0.976
    90   6 C    3.963 --    89 C    1.713    92 C    1.127   110 H    0.966
    91   7 N    3.012 --    92 C    1.355    88 C    1.273
    92   6 C    3.913 --    91 N    1.355    93 C    1.250    90 C    1.127
    93   6 C    3.928 --    92 C    1.250    94 C    1.249    77 C    1.195
    94   6 C    3.889 --    95 C    1.251    93 C    1.249    98 N    1.193
    95   6 C    3.956 --    96 C    1.581    94 C    1.251   111 H    0.967
    96   6 C    3.953 --    95 C    1.581    97 C    1.239   112 H    0.977
    97   6 C    3.894 --    99 C    1.338    96 C    1.239    98 N    1.164
    98   7 N    3.471 --    94 C    1.193    97 C    1.164   113 H    0.871
    99   6 C    3.929 --   100 C    1.382    97 C    1.338   114 H    0.970
   100   6 C    3.918 --    99 C    1.382   104 N    1.275   101 C    1.119
   101   6 C    3.965 --   102 C    1.715   100 C    1.119   115 H    0.976
   102   6 C    3.964 --   101 C    1.715   103 C    1.127   116 H    0.967
   103   6 C    3.913 --   104 N    1.352    81 C    1.253   102 C    1.127
   104   7 N    3.011 --   103 C    1.352   100 C    1.275
   105   1 H    1.006 --    83 C    0.968
   106   1 H    0.998 --    84 C    0.977
   107   1 H    0.986 --    86 N    0.871
   108   1 H    1.002 --    87 C    0.970
   109   1 H    0.998 --    89 C    0.976
   110   1 H    1.007 --    90 C    0.966
   111   1 H    1.007 --    95 C    0.967
   112   1 H    0.998 --    96 C    0.977
   113   1 H    0.986 --    98 N    0.871
   114   1 H    1.002 --    99 C    0.970
   115   1 H    0.998 --   101 C    0.976
   116   1 H    1.007 --   102 C    0.967
   117   6 C    3.928 --   139 C    1.250   118 C    1.249    78 C    1.195
   118   6 C    3.889 --   119 C    1.251   117 C    1.249   122 N    1.193
   119   6 C    3.956 --   120 C    1.581   118 C    1.251   141 H    0.967
   120   6 C    3.953 --   119 C    1.581   121 C    1.239   142 H    0.977
   121   6 C    3.894 --   123 C    1.338   120 C    1.239   122 N    1.164
   122   7 N    3.471 --   118 C    1.193   121 C    1.164   143 H    0.872
   123   6 C    3.929 --   124 C    1.381   121 C    1.338   144 H    0.970
   124   6 C    3.918 --   123 C    1.381   127 N    1.276   125 C    1.119
   125   6 C    3.965 --   126 C    1.715   124 C    1.119   145 H    0.976
   126   6 C    3.964 --   125 C    1.715   128 C    1.126   146 H    0.969
   127   7 N    3.011 --   128 C    1.351   124 C    1.276
   128   6 C    3.914 --   127 N    1.351   129 C    1.255   126 C    1.126
   129   6 C    3.927 --   128 C    1.255   130 C    1.250    79 C    1.188
   130   6 C    3.890 --   131 C    1.251   129 C    1.250   134 N    1.192
   131   6 C    3.956 --   132 C    1.580   130 C    1.251   147 H    0.970
   132   6 C    3.954 --   131 C    1.580   133 C    1.240   148 H    0.977
   133   6 C    3.894 --   135 C    1.336   132 C    1.240   134 N    1.165
   134   7 N    3.471 --   130 C    1.192   133 C    1.165   149 H    0.872
   135   6 C    3.930 --   136 C    1.383   133 C    1.336   150 H    0.970
   136   6 C    3.918 --   135 C    1.383   140 N    1.273   137 C    1.120
   137   6 C    3.965 --   138 C    1.713   136 C    1.120   151 H    0.976
   138   6 C    3.963 --   137 C    1.713   139 C    1.127   152 H    0.966
   139   6 C    3.913 --   140 N    1.355   117 C    1.250   138 C    1.127
   140   7 N    3.012 --   139 C    1.355   136 C    1.273
   141   1 H    1.007 --   119 C    0.967
   142   1 H    0.998 --   120 C    0.977
   143   1 H    0.986 --   122 N    0.872
   144   1 H    1.002 --   123 C    0.970
   145   1 H    0.998 --   125 C    0.976
   146   1 H    1.006 --   126 C    0.969
   147   1 H    1.005 --   131 C    0.970
   148   1 H    0.998 --   132 C    0.977
   149   1 H    0.986 --   134 N    0.872
   150   1 H    1.002 --   135 C    0.970
   151   1 H    0.998 --   137 C    0.976
   152   1 H    1.007 --   138 C    0.966
 ---------------------------------------------------------------------------

           -------------------------------------------------
          | TOTAL ENERGY             -259.551214349722 Eh   |
          | GRADIENT NORM               0.000311247119 Eh/α |
          | HOMO-LUMO GAP               0.736863529342 eV   |
           -------------------------------------------------

 * finished run on 2022/07/26 at 13:19:11.965
