   * xtb version 6.5.1 (b24c23e) compiled by 'conda@728c89f4b128' on 2022-07-12
          program call               : xtb Ni_H_C2_3.xyz --gfn 1 --opt -T 48

   ID    Z sym.   atoms
    1   28 Ni     1, 37, 77
    2    6 C      2-6, 8-11, 13-18, 20-24, 38-42, 44-47, 49-54, 56-60, 73-76,
                  78-82, 84-87, 89-94, 96-100
    3    7 N      7, 12, 19, 25, 43, 48, 55, 61, 83, 88, 95, 101
    4    1 H      26-36, 62-72, 102-111

          :  Hamiltonian                  GFN1-xTB          :
 * total energy  :  -202.3619615 Eh     change       -0.1183167E-08 Eh
 * total energy  :  -202.8174239 Eh     change       -0.4554624E+00 Eh
 * total energy  :  -202.9677719 Eh     change       -0.1503480E+00 Eh
 * total energy  :  -203.0776937 Eh     change       -0.1099218E+00 Eh
 * total energy  :  -203.1242154 Eh     change       -0.4652168E-01 Eh
 * total energy  :  -203.1452696 Eh     change       -0.2105423E-01 Eh
 * total energy  :  -203.1576258 Eh     change       -0.1235620E-01 Eh
 * total energy  :  -203.1647559 Eh     change       -0.7130118E-02 Eh
 * total energy  :  -203.1705197 Eh     change       -0.5763758E-02 Eh
 * total energy  :  -203.1760519 Eh     change       -0.5532171E-02 Eh
 * total energy  :  -203.1997593 Eh     change       -0.1141801E-04 Eh
 * total energy  :  -203.1997696 Eh     change       -0.1036532E-04 Eh
 * total energy  :  -203.1997814 Eh     change       -0.1177528E-04 Eh
 * total energy  :  -203.1997980 Eh     change       -0.1662580E-04 Eh
 * total energy  :  -203.1998199 Eh     change       -0.2190086E-04 Eh
 * total energy  :  -203.1998435 Eh     change       -0.2359553E-04 Eh
 * total energy  :  -203.1998495 Eh     change       -0.6021387E-05 Eh
 * total energy  :  -203.1998569 Eh     change       -0.7376368E-05 Eh
 * total energy  :  -203.1998601 Eh     change       -0.3183487E-05 Eh
   *** GEOMETRY OPTIMIZATION CONVERGED AFTER 70 ITERATIONS ***

 final structure:
================
111
 xtb: 6.5.1 (b24c23e)
Ni          18.72892185744233       -0.02654544305210       -0.01507288879459
C           15.31637532784345        0.00309839881828       -0.04021084238202
C           15.96643250572651       -0.82863344078394       -0.92847014116659
C           15.28746200512414       -1.68272209758614       -1.85798369701003
C           16.24480144632857       -2.32061230761391       -2.57072710447736
C           17.50591156123365       -1.85284576088870       -2.07627460005329
N           17.32631435176298       -0.94532703983022       -1.06386634833972
C           18.72347991487112       -2.25305127083758       -2.58585485525012
C           19.94113497534221       -1.80110104634611       -2.12199698419670
C           21.19562865072922       -2.20921112808220       -2.67578774671925
C           22.15764546157684       -1.58283450708929       -1.95741918854041
N           20.13143256052249       -0.92727736189377       -1.07704011996103
C           21.48880493056522       -0.80032436378418       -0.96413699916678
C           22.16150452498425       -0.03503122739839       -0.00824556885646
C           21.48852022734245        0.72773436703861        0.94954942374017
C           22.15718240614733        1.49829700290898        1.95214279833342
C           21.19508507259654        2.11814048137976        2.67616824679721
C           19.94088498361611        1.72052005444349        2.11443004718283
N           20.13122943940552        0.85701872403106        1.06068613206051
C           18.72380830280792        2.17778681859209        2.57457316237398
C           17.50684457307280        1.80102243468312        2.04608300640455
C           16.24685094508313        2.28710033971475        2.52547656796391
C           15.28949247169298        1.67716612109514        1.78866561318634
C           15.96725674697550        0.81882886504432        0.86220988525563
N           17.32666314698566        0.90777121666997        1.02115207570423
H           14.23272120612798        0.01382406263182       -0.04962882112613
H           14.21501104955425       -1.76549128839988       -1.93717190140593
H           16.13166428401109       -3.04197407853619       -3.36451185474802
H           18.72446492441252       -2.96243296553086       -3.40535212441424
H           21.30466613135536       -2.88678663238236       -3.50758505711055
H           23.22755061305033       -1.63324566336698       -2.07760968542003
H           23.22691426416376        1.54533927662766        2.07526170425829
H           21.30439838401498        2.78625282376844        3.51555175516228
H           18.72495880811196        2.87750018604677        3.40236025166290
H           16.13428365733545        3.00180914064966        3.32534573957342
H           14.21770238282783        1.78059352243023        1.85075086849004
Ni          40.54206813209232        0.01560414189461       -0.01215138068030
C           43.95353147298847        0.03269695575977        0.06398151155962
C           43.29621034844772        1.24533163896221        0.09295268334315
C           43.96757820093443        2.51058359637439        0.14757325253220
C           43.00473470417055        3.46142897823985        0.16074460634147
C           41.74765243277809        2.77450772218383        0.11911213410128
N           41.93551112280159        1.41669995691377        0.07311022939328
C           40.52574492503723        3.41385942512160        0.14174155461915
C           39.31142774841156        2.76015203612721        0.12454278223739
C           38.05141328063321        3.43676588327455        0.16948858942869
C           37.09560081086591        2.47797609361136        0.13584591716239
N           39.13083182878798        1.39815506146947        0.06377164796179
C           37.77453928939922        1.22047084864747        0.06771700908538
C           37.11114287768601       -0.00543451787910       -0.01811179336535
C           37.79010769725037       -1.22174769963552       -0.11890362596748
C           37.12712931632664       -2.48565646932515       -0.21724901272654
C           38.09499670941571       -3.43047502009871       -0.28550662585092
C           39.34633204834434       -2.73955857481360       -0.22178019833363
N           39.14854867483546       -1.38210345884132       -0.12299794512801
C           40.56852345400505       -3.37844814413401       -0.23848301361254
C           41.78184000257243       -2.72788925481647       -0.15514203061351
C           43.04663285761308       -3.40186104876581       -0.15317381722219
C           43.99739627890863       -2.44333683755976       -0.06025144486953
C           43.31101783381261       -1.18595768547793       -0.00990780255248
N           41.95296570415662       -1.37022092397884       -0.06374654371660
H           45.03690874958156        0.03814119267251        0.09260138693756
H           45.03919043301134        2.63062905259755        0.17059555088510
H           43.11166673670820        4.53400842532731        0.19842668644574
H           40.51839269694977        4.49688766417298        0.18424112981533
H           37.93490148489416        4.50767402340751        0.21946528417424
H           36.02389254550638        2.59421911804431        0.14751814801922
H           36.05703273962863       -2.61584906559158       -0.22760935644897
H           37.99146397455265       -4.50082559281416       -0.36635763484886
H           40.57467629941958       -4.45971784255399       -0.31362638903901
H           43.16663319421821       -4.47196046805961       -0.21464411158607
H           45.06991426895920       -2.55332626017498       -0.03008461139710
C           23.57200917993300       -0.03505953878001       -0.00812481843154
C           24.78816673343803       -0.03279520020425       -0.00520675934667
C           34.48478490185155       -0.02156698402454       -0.00883687162451
C           35.70046895705308       -0.01413972685305       -0.01389305712571
Ni          29.63730878629492       -0.02817567253978       -0.00667152551529
C           26.19835147993534       -0.03144201389430       -0.00596927966794
C           26.87147795083365        1.04708027698786        0.57386340334530
C           26.20290652605459        2.16819434983596        1.15860373400176
C           27.16467628594776        2.98159061601383        1.65641731474802
C           28.41794415475305        2.35533115586490        1.36834344013615
N           28.22827165298895        1.17403278567187        0.69016211910370
C           29.63468914469283        2.87298402276688        1.75913200715529
C           30.85272290081054        2.29111802986470        1.47774594883487
C           32.10559004728038        2.83930465024342        1.89721871556153
C           33.06883231105747        2.02701170726683        1.40025085851780
N           31.04352600196086        1.14639482283910        0.74021708731392
C           32.40067116427509        0.98880070508570        0.67783101194954
C           33.07443928353875       -0.02515445755324       -0.00683434490461
C           32.40268947324508       -1.04053884237547       -0.69129544833070
C           33.07242208648208       -2.07686149604739       -1.41477360880286
C           32.11042858905112       -2.88979061982231       -1.91322667231851
C           30.85673749077112       -2.34397107115035       -1.49325957395102
N           31.04579826704911       -1.20006225908409       -0.75405971367719
C           29.63960756422050       -2.92763741159728       -1.77477541222165
C           28.42205278170610       -2.41284275302917       -1.38282953047416
C           27.16993449645757       -3.04198603871325       -1.66972917633740
C           26.20680552273256       -2.23101132294922       -1.17067540853494
C           26.87337047885367       -1.10837500507571       -0.58642742901773
N           28.23039164413577       -1.23223028564149       -0.70408542471460
H           25.13351054507176        2.30161348163644        1.17574956516047
H           27.05599891298715        3.92132280101863        2.17401361598048
H           29.63353675478319        3.79867033939973        2.32310670947457
H           32.21314687985693        3.73147560306185        2.49331379465114
H           34.13873130299910        2.10776094512588        1.50497582973417
H           34.14240720300484       -2.15653114169352       -1.51937365295744
H           32.21955700127275       -3.78082674502012       -2.51072136598663
H           29.64022379123816       -3.85280274934129       -2.33961144232322
H           27.06257889338168       -3.98203945938736       -2.18705958501510
H           25.13773588769409       -2.36701266123386       -1.18654256949377

          :  Hamiltonian                  GFN1-xTB          :
         :: total energy            -203.199860105395 Eh    ::
         :: gradient norm              0.000626515292 Eh/a0 ::
         :: HOMO-LUMO gap              1.112034645141 eV    ::
         :: SCC energy              -206.298176973492 Eh    ::
         :: repulsion energy           3.199573105226 Eh    ::

    * Orbital Energies and Occupations

         #    Occupation            Energy/Eh            Energy/eV
      -------------------------------------------------------------
         1        2.0000           -0.7821210             -21.2826
       ...           ...                  ...                  ...
       177        2.0000           -0.3987625             -10.8509
       178        2.0000           -0.3986364             -10.8474
       179        2.0000           -0.3986308             -10.8473
       180        2.0000           -0.3978897             -10.8271
       181        2.0000           -0.3976425             -10.8204
       182        2.0000           -0.3976182             -10.8197
       183        2.0000           -0.3976016             -10.8193
       184        2.0000           -0.3967361             -10.7957
       185        2.0000           -0.3967076             -10.7950
       186        2.0000           -0.3966177             -10.7925
       187        2.0000           -0.3965835             -10.7916
       188        2.0000           -0.3942956             -10.7293
       189        2.0000           -0.3845733             -10.4648 (HOMO)
       190                         -0.3437067              -9.3527 (LUMO)
       191                         -0.3328187              -9.0565
       192                         -0.3309405              -9.0054
       193                         -0.3306963              -8.9987
       194                         -0.3299619              -8.9787
       195                         -0.3299570              -8.9786
       196                         -0.3295011              -8.9662
       197                         -0.3293866              -8.9631
       198                         -0.3227775              -8.7832
       199                         -0.2996765              -8.1546
       200                         -0.2915706              -7.9340
       ...                                ...                  ...
       395                          1.3422694              36.5250
      -------------------------------------------------------------
                  HL-Gap            0.0408665 Eh            1.1120 eV

Wiberg/Mayer (AO) data.
largest (>0.10) Wiberg bond orders for each atom

     #   Z sym  total        # sym  WBO       # sym  WBO       # sym  WBO
 ---------------------------------------------------------------------------
     1  28 Ni   3.014 --     7 N    0.664    25 N    0.664    19 N    0.662
                            12 N    0.662
     2   6 C    3.940 --     3 C    1.365    24 C    1.365    26 H    0.970
     3   6 C    3.923 --     2 C    1.365     7 N    1.218     4 C    1.170
     4   6 C    3.960 --     5 C    1.656     3 C    1.170    27 H    0.975
     5   6 C    3.962 --     4 C    1.656     6 C    1.171    28 H    0.975
     6   6 C    3.921 --     8 C    1.364     7 N    1.217     5 C    1.171
     7   7 N    3.406 --     3 C    1.218     6 C    1.217     1 Ni   0.664
     8   6 C    3.944 --     9 C    1.368     6 C    1.364    29 H    0.970
     9   6 C    3.916 --     8 C    1.368    12 N    1.204    10 C    1.178
    10   6 C    3.959 --    11 C    1.642     9 C    1.178    30 H    0.975
    11   6 C    3.962 --    10 C    1.642    13 C    1.186    31 H    0.969
    12   7 N    3.410 --    13 C    1.241     9 C    1.204     1 Ni   0.662
    13   6 C    3.910 --    14 C    1.271    12 N    1.241    11 C    1.186
    14   6 C    3.949 --    13 C    1.271    15 C    1.271    73 C    1.167
    15   6 C    3.910 --    14 C    1.271    19 N    1.241    16 C    1.186
    16   6 C    3.962 --    17 C    1.642    15 C    1.186    32 H    0.970
    17   6 C    3.959 --    16 C    1.642    18 C    1.178    33 H    0.975
    18   6 C    3.916 --    20 C    1.368    19 N    1.203    17 C    1.178
    19   7 N    3.410 --    15 C    1.241    18 C    1.203     1 Ni   0.662
    20   6 C    3.944 --    18 C    1.368    21 C    1.364    34 H    0.970
    21   6 C    3.921 --    20 C    1.364    25 N    1.217    22 C    1.171
    22   6 C    3.962 --    23 C    1.656    21 C    1.171    35 H    0.975
    23   6 C    3.960 --    22 C    1.656    24 C    1.170    36 H    0.975
    24   6 C    3.923 --     2 C    1.365    25 N    1.218    23 C    1.170
    25   7 N    3.406 --    24 C    1.218    21 C    1.217     1 Ni   0.664
    26   1 H    1.000 --     2 C    0.970
    27   1 H    0.998 --     4 C    0.975
    28   1 H    0.998 --     5 C    0.975
    29   1 H    1.000 --     8 C    0.970
    30   1 H    0.998 --    10 C    0.975
    31   1 H    1.005 --    11 C    0.969
    32   1 H    1.005 --    16 C    0.970
    33   1 H    0.998 --    17 C    0.975
    34   1 H    1.000 --    20 C    0.970
    35   1 H    0.998 --    22 C    0.975
    36   1 H    0.998 --    23 C    0.975
    37  28 Ni   3.013 --    43 N    0.665    61 N    0.664    55 N    0.662
                            48 N    0.662
    38   6 C    3.940 --    60 C    1.365    39 C    1.365    62 H    0.970
    39   6 C    3.923 --    38 C    1.365    43 N    1.218    40 C    1.170
    40   6 C    3.960 --    41 C    1.656    39 C    1.170    63 H    0.975
    41   6 C    3.962 --    40 C    1.656    42 C    1.171    64 H    0.975
    42   6 C    3.921 --    44 C    1.364    43 N    1.217    41 C    1.171
    43   7 N    3.406 --    39 C    1.218    42 C    1.217    37 Ni   0.665
    44   6 C    3.944 --    45 C    1.368    42 C    1.364    65 H    0.970
    45   6 C    3.916 --    44 C    1.368    48 N    1.204    46 C    1.177
    46   6 C    3.959 --    47 C    1.643    45 C    1.177    66 H    0.975
    47   6 C    3.962 --    46 C    1.643    49 C    1.185    67 H    0.971
    48   7 N    3.410 --    49 C    1.240    45 C    1.204    37 Ni   0.662
    49   6 C    3.910 --    50 C    1.272    48 N    1.240    47 C    1.185
    50   6 C    3.949 --    49 C    1.272    51 C    1.272    76 C    1.164
    51   6 C    3.910 --    50 C    1.272    55 N    1.241    52 C    1.185
    52   6 C    3.962 --    53 C    1.643    51 C    1.185    68 H    0.971
    53   6 C    3.959 --    52 C    1.643    54 C    1.177    69 H    0.975
    54   6 C    3.916 --    56 C    1.368    55 N    1.204    53 C    1.177
    55   7 N    3.410 --    51 C    1.241    54 C    1.204    37 Ni   0.662
    56   6 C    3.944 --    54 C    1.368    57 C    1.364    70 H    0.970
    57   6 C    3.921 --    56 C    1.364    61 N    1.217    58 C    1.171
    58   6 C    3.962 --    59 C    1.656    57 C    1.171    71 H    0.975
    59   6 C    3.960 --    58 C    1.656    60 C    1.170    72 H    0.975
    60   6 C    3.923 --    38 C    1.365    61 N    1.218    59 C    1.170
    61   7 N    3.406 --    60 C    1.218    57 C    1.217    37 Ni   0.664
    62   1 H    1.000 --    38 C    0.970
    63   1 H    0.998 --    40 C    0.975
    64   1 H    0.998 --    41 C    0.975
    65   1 H    1.000 --    44 C    0.970
    66   1 H    0.998 --    46 C    0.975
    67   1 H    1.004 --    47 C    0.971
    68   1 H    1.004 --    52 C    0.971
    69   1 H    0.998 --    53 C    0.975
    70   1 H    1.000 --    56 C    0.970
    71   1 H    0.998 --    58 C    0.975
    72   1 H    0.998 --    59 C    0.975
    73   6 C    3.936 --    74 C    2.590    14 C    1.167
    74   6 C    3.938 --    73 C    2.590    78 C    1.168
    75   6 C    3.938 --    76 C    2.591    90 C    1.165
    76   6 C    3.935 --    75 C    2.591    50 C    1.164
    77  28 Ni   3.001 --   101 N    0.661    83 N    0.661    88 N    0.661
                            95 N    0.661
    78   6 C    3.940 --   100 C    1.269    79 C    1.269    74 C    1.168
    79   6 C    3.910 --    78 C    1.269    83 N    1.242    80 C    1.187
    80   6 C    3.960 --    81 C    1.641    79 C    1.187   102 H    0.970
    81   6 C    3.959 --    80 C    1.641    82 C    1.179   103 H    0.975
    82   6 C    3.915 --    84 C    1.366    83 N    1.203    81 C    1.179
    83   7 N    3.404 --    79 C    1.242    82 C    1.203    77 Ni   0.661
    84   6 C    3.939 --    82 C    1.366    85 C    1.366   104 H    0.970
    85   6 C    3.915 --    84 C    1.366    88 N    1.203    86 C    1.179
    86   6 C    3.959 --    87 C    1.641    85 C    1.179   105 H    0.975
    87   6 C    3.960 --    86 C    1.641    89 C    1.186   106 H    0.971
    88   7 N    3.404 --    89 C    1.241    85 C    1.203    77 Ni   0.661
    89   6 C    3.911 --    90 C    1.271    88 N    1.241    87 C    1.186
    90   6 C    3.939 --    91 C    1.271    89 C    1.271    75 C    1.165
    91   6 C    3.911 --    90 C    1.271    95 N    1.241    92 C    1.186
    92   6 C    3.960 --    93 C    1.641    91 C    1.186   107 H    0.971
    93   6 C    3.959 --    92 C    1.641    94 C    1.179   108 H    0.975
    94   6 C    3.915 --    96 C    1.366    95 N    1.203    93 C    1.179
    95   7 N    3.404 --    91 C    1.241    94 C    1.203    77 Ni   0.661
    96   6 C    3.939 --    97 C    1.366    94 C    1.366   109 H    0.970
    97   6 C    3.915 --    96 C    1.366   101 N    1.203    98 C    1.179
    98   6 C    3.959 --    99 C    1.641    97 C    1.179   110 H    0.975
    99   6 C    3.960 --    98 C    1.641   100 C    1.187   111 H    0.969
   100   6 C    3.910 --    78 C    1.269   101 N    1.242    99 C    1.187
   101   7 N    3.404 --   100 C    1.242    97 C    1.203    77 Ni   0.661
   102   1 H    1.005 --    80 C    0.970
   103   1 H    0.997 --    81 C    0.975
   104   1 H    1.000 --    84 C    0.970
   105   1 H    0.997 --    86 C    0.975
   106   1 H    1.004 --    87 C    0.971
   107   1 H    1.004 --    92 C    0.971
   108   1 H    0.997 --    93 C    0.975
   109   1 H    1.000 --    96 C    0.970
   110   1 H    0.997 --    98 C    0.975
   111   1 H    1.005 --    99 C    0.969
 ---------------------------------------------------------------------------

           -------------------------------------------------
          | TOTAL ENERGY             -203.199860105395 Eh   |
          | GRADIENT NORM               0.000626515292 Eh/α |
          | HOMO-LUMO GAP               1.112034645141 eV   |
           -------------------------------------------------

 * finished run on 2022/07/30 at 02:05:26.853
