   * xtb version 6.5.1 (b24c23e) compiled by 'conda@728c89f4b128' on 2022-07-12
          program call               : xtb Fe_PhCN_C2_2.xyz --gfn 1 --opt -T 48

   ID    Z sym.   atoms
    1   26 Fe     1, 59
    2    6 C      2-6, 8-13, 15-19, 21-26, 28-33, 35-40, 60-64, 66-71, 73-77,
                  79-84, 86-91, 93-98, 117, 118
    3    7 N      7, 14, 20, 27, 34, 41, 65, 72, 78, 85, 92, 99
    4    1 H      42-58, 100-116
########################################################################
[WARNING] Please study the warnings concerning your input carefully
-1- prog_main_parseArguments: Unknown option '-T' provided
########################################################################

          :  Hamiltonian                  GFN1-xTB          :
 * total energy  :  -210.2833138 Eh     change       -0.1380775E-07 Eh
 * total energy  :  -210.3465692 Eh     change       -0.6325540E-01 Eh
 * total energy  :  -210.3845298 Eh     change       -0.3796059E-01 Eh
 * total energy  :  -210.3958353 Eh     change       -0.1130555E-01 Eh
 * total energy  :  -210.4030969 Eh     change       -0.7261559E-02 Eh
 * total energy  :  -210.4073928 Eh     change       -0.4295917E-02 Eh
 * total energy  :  -210.4096395 Eh     change       -0.2246716E-02 Eh
 * total energy  :  -210.4098994 Eh     change       -0.2598669E-03 Eh
 * total energy  :  -210.4112559 Eh     change       -0.1356507E-02 Eh
 * total energy  :  -210.4117575 Eh     change       -0.5016288E-03 Eh
 * total energy  :  -210.4140630 Eh     change       -0.9378878E-05 Eh
 * total energy  :  -210.4140740 Eh     change       -0.1104883E-04 Eh
 * total energy  :  -210.4140850 Eh     change       -0.1098742E-04 Eh
 * total energy  :  -210.4140954 Eh     change       -0.1042964E-04 Eh
 * total energy  :  -210.4141054 Eh     change       -0.9910867E-05 Eh
 * total energy  :  -210.4141148 Eh     change       -0.9406435E-05 Eh
 * total energy  :  -210.4141242 Eh     change       -0.9438071E-05 Eh
 * total energy  :  -210.4141357 Eh     change       -0.1153534E-04 Eh
 * total energy  :  -210.4141383 Eh     change       -0.2608951E-05 Eh
   *** GEOMETRY OPTIMIZATION CONVERGED AFTER 44 ITERATIONS ***

 final structure:
================
118
 xtb: 6.5.1 (b24c23e)
Fe          18.18553760538568        0.04850720281169       -0.02459550049325
C           14.79444967690706        0.06207589502918        0.10675957886228
C           15.44802372240688        1.27366999519264        0.19209084261363
C           14.77181268245758        2.53194976346485        0.28736448460931
C           15.73076315648380        3.47761509172107        0.42200434654549
C           16.99144231938825        2.79276267004302        0.41955504584212
N           16.80606478272407        1.44717336690069        0.25292635024429
C           18.21736576550300        3.42579813510263        0.59259789547978
C           18.22543403083341        4.88374366768252        0.85623941714474
C           17.61805301671686        5.39310718394964        2.00635176106645
C           17.62338797725312        6.75237181386631        2.26256671184564
C           18.23405043681926        7.63207206530748        1.36385258483350
C           18.23968578202551        9.03189996140890        1.62325744458770
N           18.24566350658890       10.16253487561932        1.83675884054877
C           18.83958517787639        7.12729955756947        0.20932375271283
C           18.83653391944828        5.76597238148884       -0.03725965199414
C           19.43010424270358        2.75289692449780        0.53617588125785
C           20.70023829939051        3.38032537566932        0.75016241680404
C           21.64305332075402        2.42605460887696        0.56355837848966
N           19.59752841176849        1.41696890281230        0.26013043669379
C           20.94728732668471        1.21830900311605        0.24612440993809
C           21.59905608586142        0.01632490714372       -0.04781739063801
C           20.91833823798142       -1.17257503216014       -0.33008202175446
C           21.58201238061367       -2.38261089877392       -0.70160582610627
C           20.61825919240095       -3.32045941902752       -0.86447745128144
C           19.36821534083348       -2.68148762933023       -0.57886675420184
N           19.56754670185552       -1.35557565269101       -0.27684770972912
C           18.14500354538067       -3.33794977323121       -0.58641225238811
C           18.12055626859665       -4.79123387149659       -0.87218168837209
C           17.43834125143337       -5.27754487623645       -1.98996736973068
C           17.41303729745171       -6.63281533477226       -2.26518350169811
C           18.06838181705877       -7.53201718208823       -1.41868726865872
C           18.04107479714380       -8.92764515910656       -1.69842119591465
N           18.01904235056221      -10.05485435646486       -1.92842585001050
C           18.74946331317858       -7.05053173262128       -0.29682360330739
C           18.77580249250425       -5.69312177831095       -0.03090574980391
C           16.93772709405370       -2.69179897086267       -0.34312610794041
C           15.66938844444036       -3.36052643655951       -0.29065050976648
C           14.73143481195543       -2.40500816417423       -0.09302587946024
C           15.42821511214731       -1.15665391553152       -0.01695525760662
N           16.77996140359108       -1.34808321006339       -0.13705314720191
H           13.71065830732233        0.06841296756721        0.13400278861520
H           13.70121120313885        2.65540939667199        0.25022238969277
H           15.60887187507969        4.54508813984196        0.50817978643246
H           17.15293331861566        4.71229720281233        2.71025585674189
H           17.15547455986663        7.13977312840500        3.15999252839950
H           19.30998623077722        7.80714443225693       -0.49132655663627
H           19.29715074328582        5.37908605198976       -0.93916663853762
H           20.84233525253579        4.41536288959373        1.01467682257357
H           22.71463865065090        2.51685529288209        0.63718533816936
H           22.64753914637861       -2.48478924884788       -0.82908777937122
H           20.73345064983705       -4.35006163610642       -1.16128753432268
H           16.93853840483706       -4.58199406348229       -2.65458759420869
H           16.88635732382319       -7.00226723337357       -3.13724380897703
H           19.25519556938769       -7.74513126443950        0.36357947863318
H           19.29456103906491       -5.32455027659500        0.84677265589990
H           15.52821955161689       -4.42479429363907       -0.38619021462999
H           13.66228294817706       -2.51498093910779       -0.00563103754596
Fe          29.04267606338783       -0.04969239427557       -0.02139244340372
C           32.43383057626476       -0.05619737537809        0.10908985536430
C           31.78038233545282       -1.26149627141622        0.25981039156334
C           32.45670110839580       -2.51279877273108        0.42259249341443
C           31.49787305080909       -3.44978185826181        0.60895065236281
C           30.23717462134695       -2.76607388828211        0.57019166993360
N           30.42241406335949       -1.43146395391798        0.33081048891760
C           29.01127415240634       -3.38857873381347        0.77794882075757
C           29.00253105090426       -4.83018193365077        1.11980569908453
C           29.60984417807935       -5.27744956597279        2.29548590842812
C           29.60310659948267       -6.62092730148682        2.62450135251490
C           28.99132370446804       -7.54718940227680        1.77458584976589
C           28.98736324052088       -8.93114007416885        2.10852957849661
N           28.98427562623213      -10.04836060978679        2.38396571287729
C           28.38553281940004       -7.10469873111619        0.59496821795811
C           28.38998646662955       -5.75861485986798        0.27545621954594
C           27.79857887636097       -2.71952098363157        0.68573088598872
C           26.52854825942461       -3.33446669505134        0.93389060776841
C           25.58557170915244       -2.39200578755096        0.69533570573335
N           27.63096560620066       -1.40068156151802        0.33726537239111
C           26.28114999986065       -1.20331170063387        0.31242757756010
C           25.62919341035078       -0.01913383831893       -0.04616588588669
C           26.30976986267425        1.15300385585068       -0.39174978163378
C           25.64590367131138        2.34138601809050       -0.82729135876007
C           26.60951394013854        3.26930745182387       -1.04012658226520
C           27.85967922066570        2.64660377801549       -0.72107383352876
N           27.66053343033625        1.33874753904044       -0.34845595602681
C           29.08289201159564        3.30164536898555       -0.76451128523150
C           29.10719127162203        4.73716863686881       -1.12914704875039
C           29.78871554783042        5.16140219648077       -2.27236242657479
C           29.81362312792968        6.49949793157868       -2.62168220652936
C           29.15864421055473        7.44377803646612       -1.82544795440542
C           29.18675022403534        8.82219775683529       -2.18040100050138
N           29.20946599498865        9.93457319617589       -2.47443824221772
C           28.47811293267761        7.02454995729559       -0.67857368900335
C           28.45217284431706        5.68381493592613       -0.33840938139972
C           30.29025963546245        2.66950890765511       -0.48720028307204
C           31.55857084692060        3.34014246317415       -0.47108215697146
C           32.49663225101126        2.39665508980805       -0.22266017488229
C           31.79995921758468        1.15414165388316       -0.07949019537890
N           30.44814152137291        1.33882912606861       -0.20922295411698
H           33.51764056963944       -0.06101841161380        0.13605948055131
H           33.52729076269128       -2.63804858475297        0.39147563917465
H           31.61980978082264       -4.51101084747050        0.75288880545397
H           30.07597612260873       -4.56023067624471        2.96154223513353
H           30.07090826538921       -6.96008074609125        3.54130354687440
H           27.91395668952860       -7.82065697994687       -0.06790283353783
H           27.92930359172356       -5.42032803802487       -0.64575286074148
H           26.38657814942069       -4.35342297130730        1.25485463743376
H           24.51400160528027       -2.47884522657431        0.77380495765491
H           24.58034517009614        2.43647090671143       -0.95985201894111
H           26.49409070278554        4.28161754386900       -1.39133519072777
H           30.28835932417365        4.43040964137304       -2.89791618785881
H           30.33984109881021        6.82055012720784       -3.51297096482105
H           27.97259907850135        7.75432203194294       -0.05708328238123
H           27.93394369525728        5.36403123805929        0.55850172480000
H           31.69961180126305        4.39776025332553       -0.62366127693932
H           33.56578956801358        2.51128494043148       -0.14152288037442
C           23.00531736353823        0.00365281784242       -0.06120847216250
C           24.22293650541391       -0.00744612744271       -0.06045865135535

          :  Hamiltonian                  GFN1-xTB          :
         :: total energy            -210.414138346509 Eh    ::
         :: gradient norm              0.000832075840 Eh/a0 ::
         :: HOMO-LUMO gap              0.098759090305 eV    ::
         :: SCC energy              -213.905233959204 Eh    ::
         :: repulsion energy           3.602027347333 Eh    ::

    * Orbital Energies and Occupations

         #    Occupation            Energy/Eh            Energy/eV
      -------------------------------------------------------------
         1        2.0000           -0.7824710             -21.2921
       ...           ...                  ...                  ...
       183        2.0000           -0.4422987             -12.0356
       184        2.0000           -0.4403264             -11.9819
       185        2.0000           -0.4403119             -11.9815
       186        2.0000           -0.4121847             -11.2161
       187        2.0000           -0.4102194             -11.1626
       188        2.0000           -0.4102128             -11.1625
       189        1.9914           -0.4028010             -10.9608
       190        1.9909           -0.4027410             -10.9591
       191        1.9431           -0.4009788             -10.9112
       192        1.9415           -0.4009519             -10.9105
       193        1.9341           -0.4008347             -10.9073
       194        1.9339           -0.4008325             -10.9072
       195        1.7720           -0.3995723             -10.8729 (HOMO)
       196        0.2911           -0.3959430             -10.7742 (LUMO)
       197        0.2019           -0.3955468             -10.7634
       198                         -0.3512769              -9.5587
       199                         -0.3426245              -9.3233
       200                         -0.3426226              -9.3232
       201                         -0.3357636              -9.1366
       202                         -0.3158217              -8.5939
       203                         -0.3158112              -8.5937
       204                         -0.3153821              -8.5820
       205                         -0.3123089              -8.4984
       206                         -0.3059881              -8.3264
       ...                                ...                  ...
       414                          1.3232352              36.0071
      -------------------------------------------------------------
                  HL-Gap            0.0036293 Eh            0.0988 eV

Wiberg/Mayer (AO) data.
largest (>0.10) Wiberg bond orders for each atom

     #   Z sym  total        # sym  WBO       # sym  WBO       # sym  WBO
 ---------------------------------------------------------------------------
     1  26 Fe   3.167 --    41 N    0.673     7 N    0.669    20 N    0.665
                            27 N    0.661
     2   6 C    3.926 --    40 C    1.363     3 C    1.363    42 H    0.970
     3   6 C    3.923 --     2 C    1.363     7 N    1.209     4 C    1.173
     4   6 C    3.959 --     5 C    1.650     3 C    1.173    43 H    0.975
     5   6 C    3.961 --     4 C    1.650     6 C    1.174    44 H    0.973
     6   6 C    3.921 --     8 C    1.314     7 N    1.225     5 C    1.174
     7   7 N    3.381 --     6 C    1.225     3 C    1.209     1 Fe   0.669
     8   6 C    3.927 --    17 C    1.330     6 C    1.314     9 C    1.029
     9   6 C    3.963 --    16 C    1.386    10 C    1.385     8 C    1.029
    10   6 C    3.987 --    11 C    1.464     9 C    1.385    45 H    0.971
                            15 C    0.102
    11   6 C    3.993 --    10 C    1.464    12 C    1.364    46 H    0.972
                            16 C    0.102
    12   6 C    3.985 --    15 C    1.365    11 C    1.364    13 C    1.098
    13   6 C    3.958 --    14 N    2.820    12 C    1.098
    14   7 N    2.973 --    13 C    2.820
    15   6 C    3.993 --    16 C    1.463    12 C    1.365    47 H    0.972
                            10 C    0.102
    16   6 C    3.987 --    15 C    1.463     9 C    1.386    48 H    0.971
                            11 C    0.102
    17   6 C    3.917 --     8 C    1.330    20 N    1.203    18 C    1.179
    18   6 C    3.957 --    19 C    1.638    17 C    1.179    49 H    0.973
    19   6 C    3.960 --    18 C    1.638    21 C    1.187    50 H    0.971
    20   7 N    3.382 --    21 C    1.242    17 C    1.203     1 Fe   0.665
    21   6 C    3.910 --    22 C    1.259    20 N    1.242    19 C    1.187
    22   6 C    3.926 --    21 C    1.259    23 C    1.258   117 C    1.183
    23   6 C    3.910 --    22 C    1.258    27 N    1.243    24 C    1.188
    24   6 C    3.960 --    25 C    1.637    23 C    1.188    51 H    0.971
    25   6 C    3.957 --    24 C    1.637    26 C    1.180    52 H    0.973
    26   6 C    3.917 --    28 C    1.330    27 N    1.203    25 C    1.180
    27   7 N    3.381 --    23 C    1.243    26 C    1.203     1 Fe   0.661
    28   6 C    3.927 --    26 C    1.330    37 C    1.313    29 C    1.030
    29   6 C    3.963 --    36 C    1.385    30 C    1.384    28 C    1.030
    30   6 C    3.987 --    31 C    1.464    29 C    1.384    53 H    0.971
                            35 C    0.102
    31   6 C    3.993 --    30 C    1.464    32 C    1.364    54 H    0.972
                            36 C    0.102
    32   6 C    3.984 --    35 C    1.365    31 C    1.364    33 C    1.098
    33   6 C    3.958 --    34 N    2.820    32 C    1.098
    34   7 N    2.973 --    33 C    2.820
    35   6 C    3.993 --    36 C    1.463    32 C    1.365    55 H    0.972
                            30 C    0.102
    36   6 C    3.987 --    35 C    1.463    29 C    1.385    56 H    0.971
                            31 C    0.102
    37   6 C    3.921 --    28 C    1.313    41 N    1.225    38 C    1.174
    38   6 C    3.961 --    39 C    1.650    37 C    1.174    57 H    0.973
    39   6 C    3.959 --    38 C    1.650    40 C    1.173    58 H    0.975
    40   6 C    3.923 --     2 C    1.363    41 N    1.209    39 C    1.173
    41   7 N    3.384 --    37 C    1.225    40 C    1.209     1 Fe   0.673
    42   1 H    1.000 --     2 C    0.970
    43   1 H    0.997 --     4 C    0.975
    44   1 H    1.004 --     5 C    0.973
    45   1 H    1.003 --    10 C    0.971
    46   1 H    1.000 --    11 C    0.972
    47   1 H    1.000 --    15 C    0.972
    48   1 H    1.003 --    16 C    0.971
    49   1 H    1.004 --    18 C    0.973
    50   1 H    1.004 --    19 C    0.971
    51   1 H    1.003 --    24 C    0.971
    52   1 H    1.004 --    25 C    0.973
    53   1 H    1.003 --    30 C    0.971
    54   1 H    1.000 --    31 C    0.972
    55   1 H    1.000 --    35 C    0.972
    56   1 H    1.003 --    36 C    0.971
    57   1 H    1.004 --    38 C    0.973
    58   1 H    0.997 --    39 C    0.975
    59  26 Fe   3.167 --    99 N    0.673    65 N    0.668    78 N    0.665
                            85 N    0.661
    60   6 C    3.926 --    98 C    1.363    61 C    1.363   100 H    0.970
    61   6 C    3.923 --    60 C    1.363    65 N    1.209    62 C    1.173
    62   6 C    3.959 --    63 C    1.650    61 C    1.173   101 H    0.975
    63   6 C    3.961 --    62 C    1.650    64 C    1.174   102 H    0.973
    64   6 C    3.921 --    66 C    1.314    65 N    1.225    63 C    1.174
    65   7 N    3.381 --    64 C    1.225    61 C    1.209    59 Fe   0.668
    66   6 C    3.927 --    75 C    1.330    64 C    1.314    67 C    1.029
    67   6 C    3.963 --    74 C    1.386    68 C    1.385    66 C    1.029
    68   6 C    3.987 --    69 C    1.464    67 C    1.385   103 H    0.971
                            73 C    0.102
    69   6 C    3.993 --    68 C    1.464    70 C    1.364   104 H    0.972
                            74 C    0.102
    70   6 C    3.985 --    73 C    1.365    69 C    1.364    71 C    1.098
    71   6 C    3.958 --    72 N    2.820    70 C    1.098
    72   7 N    2.973 --    71 C    2.820
    73   6 C    3.993 --    74 C    1.463    70 C    1.365   105 H    0.972
                            68 C    0.102
    74   6 C    3.987 --    73 C    1.463    67 C    1.386   106 H    0.971
                            69 C    0.102
    75   6 C    3.917 --    66 C    1.330    78 N    1.203    76 C    1.179
    76   6 C    3.957 --    77 C    1.638    75 C    1.179   107 H    0.973
    77   6 C    3.960 --    76 C    1.638    79 C    1.187   108 H    0.971
    78   7 N    3.383 --    79 C    1.242    75 C    1.203    59 Fe   0.665
    79   6 C    3.910 --    80 C    1.259    78 N    1.242    77 C    1.187
    80   6 C    3.926 --    79 C    1.259    81 C    1.258   118 C    1.183
    81   6 C    3.910 --    80 C    1.258    85 N    1.243    82 C    1.188
    82   6 C    3.960 --    83 C    1.637    81 C    1.188   109 H    0.971
    83   6 C    3.957 --    82 C    1.637    84 C    1.180   110 H    0.973
    84   6 C    3.917 --    86 C    1.330    85 N    1.203    83 C    1.180
    85   7 N    3.381 --    81 C    1.243    84 C    1.203    59 Fe   0.661
    86   6 C    3.927 --    84 C    1.330    95 C    1.313    87 C    1.030
    87   6 C    3.963 --    94 C    1.386    88 C    1.384    86 C    1.030
    88   6 C    3.987 --    89 C    1.464    87 C    1.384   111 H    0.971
                            93 C    0.102
    89   6 C    3.993 --    88 C    1.464    90 C    1.364   112 H    0.972
                            94 C    0.102
    90   6 C    3.984 --    93 C    1.365    89 C    1.364    91 C    1.098
    91   6 C    3.958 --    92 N    2.820    90 C    1.098
    92   7 N    2.973 --    91 C    2.820
    93   6 C    3.993 --    94 C    1.463    90 C    1.365   113 H    0.972
                            88 C    0.102
    94   6 C    3.987 --    93 C    1.463    87 C    1.386   114 H    0.971
                            89 C    0.102
    95   6 C    3.921 --    86 C    1.313    99 N    1.225    96 C    1.174
    96   6 C    3.961 --    97 C    1.650    95 C    1.174   115 H    0.973
    97   6 C    3.959 --    96 C    1.650    98 C    1.173   116 H    0.975
    98   6 C    3.923 --    60 C    1.363    99 N    1.209    97 C    1.173
    99   7 N    3.384 --    95 C    1.225    98 C    1.209    59 Fe   0.673
   100   1 H    1.000 --    60 C    0.970
   101   1 H    0.997 --    62 C    0.975
   102   1 H    1.004 --    63 C    0.973
   103   1 H    1.003 --    68 C    0.971
   104   1 H    1.000 --    69 C    0.972
   105   1 H    1.000 --    73 C    0.972
   106   1 H    1.003 --    74 C    0.971
   107   1 H    1.004 --    76 C    0.973
   108   1 H    1.004 --    77 C    0.971
   109   1 H    1.003 --    82 C    0.971
   110   1 H    1.004 --    83 C    0.973
   111   1 H    1.003 --    88 C    0.971
   112   1 H    1.000 --    89 C    0.972
   113   1 H    1.000 --    93 C    0.972
   114   1 H    1.003 --    94 C    0.971
   115   1 H    1.004 --    96 C    0.973
   116   1 H    0.997 --    97 C    0.975
   117   6 C    3.924 --   118 C    2.559    22 C    1.183
   118   6 C    3.924 --   117 C    2.559    80 C    1.183
 ---------------------------------------------------------------------------

           -------------------------------------------------
          | TOTAL ENERGY             -210.414138346509 Eh   |
          | GRADIENT NORM               0.000832075840 Eh/α |
          | HOMO-LUMO GAP               0.098759090305 eV   |
           -------------------------------------------------

 * finished run on 2022/07/29 at 23:19:34.576
