   * xtb version 6.5.1 (b24c23e) compiled by 'conda@728c89f4b128' on 2022-07-12
          program call               : xtb Cu_PhOH_C2_2.xyz --gfn 1 --opt -T 48

   ID    Z sym.   atoms
    1   29 Cu     1, 59
    2    6 C      2-6, 8-12, 14-18, 20-25, 27-31, 33-38, 60-64, 66-70, 72-76,
                  78-83, 85-89, 91-96, 117, 118
    3    7 N      7, 19, 26, 39, 65, 77, 84, 97
    4    8 O      13, 32, 71, 90
    5    1 H      40-58, 98-116
########################################################################
[WARNING] Please study the warnings concerning your input carefully
-1- prog_main_parseArguments: Unknown option '-T' provided
########################################################################

          :  Hamiltonian                  GFN1-xTB          :
 * total energy  :  -212.9764471 Eh     change       -0.8903669E-09 Eh
 * total energy  :  -213.2010439 Eh     change       -0.2245968E+00 Eh
 * total energy  :  -213.2777456 Eh     change       -0.7670167E-01 Eh
 * total energy  :  -213.3041948 Eh     change       -0.2644922E-01 Eh
 * total energy  :  -213.3138073 Eh     change       -0.9612480E-02 Eh
 * total energy  :  -213.3193348 Eh     change       -0.5527491E-02 Eh
 * total energy  :  -213.3228588 Eh     change       -0.3523983E-02 Eh
 * total energy  :  -213.3253212 Eh     change       -0.2462430E-02 Eh
 * total energy  :  -213.3270347 Eh     change       -0.1713456E-02 Eh
 * total energy  :  -213.3281307 Eh     change       -0.1096052E-02 Eh
 * total energy  :  -213.3311742 Eh     change       -0.1083494E-04 Eh
 * total energy  :  -213.3311838 Eh     change       -0.9583354E-05 Eh
 * total energy  :  -213.3311928 Eh     change       -0.9041706E-05 Eh
 * total energy  :  -213.3312029 Eh     change       -0.1014827E-04 Eh
 * total energy  :  -213.3312143 Eh     change       -0.1135024E-04 Eh
 * total energy  :  -213.3312240 Eh     change       -0.9718266E-05 Eh
 * total energy  :  -213.3312306 Eh     change       -0.6587005E-05 Eh
 * total energy  :  -213.3312358 Eh     change       -0.5226070E-05 Eh
 * total energy  :  -213.3312385 Eh     change       -0.2650775E-05 Eh
   *** GEOMETRY OPTIMIZATION CONVERGED AFTER 44 ITERATIONS ***

 final structure:
================
118
 xtb: 6.5.1 (b24c23e)
Cu          16.82746032388637       -0.05972915749987        0.01454719018799
C           13.41620461970322       -0.10384833022367       -0.04816998188451
C           14.05592296675287       -1.33171749290641        0.02897203795742
C           13.38563733755878       -2.59757996222355        0.11414239403923
C           14.34814588276358       -3.54845654462188        0.20634082095946
C           15.61614276764653       -2.87154373012851        0.17079345067566
N           15.40717167334308       -1.52679682107502        0.06581083223774
C           16.86188668938876       -3.49390838778120        0.27475152288970
C           16.87560415521543       -4.97523879213833        0.38491852616953
C           16.39952705534886       -5.76517706158583       -0.66151656391619
C           16.40577777621642       -7.14830434959164       -0.56483457578486
C           16.88495907186409       -7.75752351804290        0.59232833575317
O           16.90357310413701       -9.10879138658419        0.73152897676430
C           17.36142359346129       -6.97978397492013        1.64592458187721
C           17.35795169061085       -5.60022052351728        1.53691449836144
C           18.09196686236495       -2.83336212240316        0.28464536206183
C           19.36661896570539       -3.48578200454498        0.37128945128688
C           20.31259181001915       -2.51465119648980        0.32331756486322
N           18.28483188119291       -1.48083079560181        0.17639780744837
C           19.63003443823753       -1.26370680427662        0.19324692761206
C           20.27173644459380       -0.01763877744573        0.06564951824718
C           19.60197041171059        1.21219918617000       -0.07499406754654
C           20.25498384903322        2.47232676007453       -0.25588396340867
C           19.28667164087058        3.41935094902682       -0.33399546550914
C           18.02839091444486        2.74386148314062       -0.19918132647334
N           18.25208594306088        1.39934240094111       -0.05796566008189
C           16.78290690304515        3.37555873541574       -0.23094516709587
C           16.77088092507617        4.85718589125780       -0.31935338045508
C           17.34944735356946        5.63029735664833        0.69046374301272
C           17.33814775011312        7.01200672408492        0.62082253730767
C           16.74939218243081        7.64370262401687       -0.47303417750548
O           16.75865825822540        9.00151208239767       -0.51203429089531
C           16.17208929013362        6.88646873234637       -1.48950385854947
C           16.18203845101165        5.50240029456401       -1.40700902711306
C           15.55006724884191        2.72098801128611       -0.18398225958792
C           14.26670706045004        3.36903910802078       -0.17564040668369
C           13.32678796266777        2.39215581096344       -0.13472419518956
C           14.02673809193184        1.14007413743968       -0.10458716612727
N           15.37300021918480        1.36853169658736       -0.12885931127268
H           12.33112271601631       -0.11687814699495       -0.05141655943263
H           12.31471109935192       -2.72710148298653        0.11085335068095
H           14.21799788829822       -4.61430478148088        0.30402508609885
H           16.03541536954694       -5.29190589680693       -1.56670064818369
H           16.04033508659474       -7.75780215037388       -1.38443136960739
H           16.54840357783894       -9.54781862477642       -0.05293781454241
H           17.72772285333464       -7.46710785283164        2.54102383774073
H           17.71718358522082       -4.99483475065657        2.36158169229997
H           19.51668421147173       -4.55045811595592        0.44762595825816
H           21.38178919413585       -2.63092822814917        0.36927998758857
H           21.32038074695846        2.60961875032765       -0.32596849166643
H           19.41040861710569        4.47899995591353       -0.48802466271722
H           17.79743563010196        5.13897717572792        1.54698613879544
H           17.78000259494161        7.61331272210280        1.40573565883159
H           16.32513162801621        9.33359212509848       -1.30952688356535
H           15.71906147358373        7.38246970887444       -2.34129072698104
H           15.74379538284036        4.91440154163851       -2.20582612217660
H           14.11118369418738        4.43589697726300       -0.18642943833969
H           12.25323095763558        2.49631881750925       -0.11701732571055
Cu          27.76027766094393        0.06119790636304        0.00582587760521
C           31.17153270012862        0.09586659744854       -0.06258737414015
C           30.53181248785835        1.32209907517123       -0.16241173046924
C           31.20209625832610        2.58708551164998       -0.25974427873049
C           30.23958644997850        3.54135132447378       -0.30492265849575
C           28.97159060622137        2.86634021071592       -0.24297666149893
N           29.18056358949542        1.52044382272203       -0.15393783864114
C           27.72584593832708        3.49717938926155       -0.22938174733534
C           27.71212337962608        4.97899075394500       -0.33288114058342
C           28.18819965334739        5.61062845623810       -1.48182207923058
C           28.18194414170600        6.99331808915092       -1.58457525630239
C           27.70276127592383        7.76224991756274       -0.52678631966622
O           27.68413635974123        9.11950940063920       -0.58289272509707
C           27.22629573124809        7.14371204118815        0.62749089049810
C           27.22977045024531        5.76278052885208        0.71753132331881
C           26.49576739254553        2.84488469262990       -0.12481549158877
C           25.22111456873741        3.50298451281579       -0.13266822559310
C           24.27514335729438        2.53501723133062       -0.04080733938452
N           26.30290449745412        1.49081574055581       -0.03788766352280
C           24.95770232960633        1.27835392348668        0.00994019445225
C           24.31600179496658        0.02687015167831        0.06244276908542
C           24.98576943010907       -1.21042152172726        0.09970816521643
C           24.33275728224713       -2.48346562648677        0.10149759877761
C           25.30107104856868       -3.43189755273408        0.16006480588023
C           26.55935113040906       -2.74405254242399        0.19656048927904
N           26.33565426527969       -1.39318338979805        0.14340842661321
C           27.80483612432889       -3.37376975846718        0.25575370366003
C           27.81686460072877       -4.85275208466568        0.38084011757940
C           27.23830457676788       -5.47297924392003        1.49113631903028
C           27.24960637192422       -6.85038475953707        1.62045979422070
C           27.83835760983073       -7.63248800080317        0.62855167277133
O           27.82909280021745       -8.98184470243362        0.78476981297001
C           28.41565380918335       -7.02892868016350       -0.48605028943757
C           28.40570258466147       -5.64734421593332       -0.60299158509565
C           29.03767459081389       -2.71923155682111        0.20831048752269
C           30.32103590222237       -3.35937919252631        0.30954250184129
C           31.26095338350802       -2.38673137045692        0.20987217667124
C           30.56100115107983       -1.14328102434374        0.06005548979711
N           29.21473932650155       -1.37285897433297        0.06881805763161
H           32.25661459782138        0.10829717019282       -0.06767273350666
H           32.27302225710880        2.71479642543219       -0.28158671855561
H           30.36973313366775        4.61018758675484       -0.36117253015060
H           28.55230484443721        5.01238966110596       -2.30974593013811
H           28.54737397392693        7.47892452358619       -2.48314077761755
H           28.03930039152655        9.44145013374276       -1.42223292407176
H           26.86000196454084        7.75441133199956        1.44341774847827
H           26.87055622484105        5.28197137743306        1.62052641486451
H           25.07104752422268        4.56759768629219       -0.20987486300189
H           23.20594604190466        2.65668458854257       -0.01199895267168
H           23.26736017004618       -2.62939402194185        0.05184287647172
H           25.17733534058885       -4.50268282489877        0.15966569655567
H           26.79032102922215       -4.86385104560668        2.26830650154733
H           26.80775718277495       -7.33285257786415        2.48352840940982
H           28.26261611904749       -9.42491079623951        0.04317228843103
H           28.86867787404203       -7.64200955889037       -1.25786183284901
H           28.84394081846299       -5.18004100036529       -1.47791054887345
H           30.47656113253006       -4.41674686695091        0.45193324292651
H           32.33451062942089       -2.48727490435122        0.24233719311443
C           21.68474753498851       -0.00161852371176        0.06640384694430
C           22.90299072979736        0.01112256124188        0.06549042110969

          :  Hamiltonian                  GFN1-xTB          :
         :: total energy            -213.331238478135 Eh    ::
         :: gradient norm              0.000192749601 Eh/a0 ::
         :: HOMO-LUMO gap              0.002401454170 eV    ::
         :: SCC energy              -216.430996146552 Eh    ::
         :: repulsion energy           3.207048022294 Eh    ::

    * Orbital Energies and Occupations

         #    Occupation            Energy/Eh            Energy/eV
      -------------------------------------------------------------
         1        2.0000           -0.8036160             -21.8675
       ...           ...                  ...                  ...
       182        2.0000           -0.4089439             -11.1279
       183        2.0000           -0.4089122             -11.1271
       184        2.0000           -0.4057765             -11.0417
       185        2.0000           -0.4057671             -11.0415
       186        2.0000           -0.4055172             -11.0347
       187        2.0000           -0.4054671             -11.0333
       188        2.0000           -0.4054588             -11.0331
       189        2.0000           -0.4053961             -11.0314
       190        2.0000           -0.3927406             -10.6870
       191        2.0000           -0.3927263             -10.6866
       192        2.0000           -0.3910720             -10.6416
       193        2.0000           -0.3767807             -10.2527
       194        1.0232           -0.3528910              -9.6027 (HOMO)
       195        0.9768           -0.3528028              -9.6003 (LUMO)
       196                         -0.3353374              -9.1250
       197                         -0.3244454              -8.8286
       198                         -0.3244372              -8.8284
       199                         -0.3181764              -8.6580
       200                         -0.2928330              -7.9684
       201                         -0.2835808              -7.7166
       202                         -0.2653923              -7.2217
       203                         -0.2653892              -7.2216
       204                         -0.2653074              -7.2194
       205                         -0.2653051              -7.2193
       ...                                ...                  ...
       406                          1.3319823              36.2451
      -------------------------------------------------------------
                  HL-Gap            0.0000883 Eh            0.0024 eV

Wiberg/Mayer (AO) data.
largest (>0.10) Wiberg bond orders for each atom

     #   Z sym  total        # sym  WBO       # sym  WBO       # sym  WBO
 ---------------------------------------------------------------------------
     1  29 Cu   2.187 --     7 N    0.505    39 N    0.504    26 N    0.504
                            19 N    0.503
     2   6 C    3.928 --     3 C    1.361    38 C    1.361    40 H    0.971
     3   6 C    3.918 --     2 C    1.361     7 N    1.230     4 C    1.171
     4   6 C    3.955 --     5 C    1.655     3 C    1.171    41 H    0.976
     5   6 C    3.958 --     4 C    1.655     6 C    1.173    42 H    0.973
     6   6 C    3.913 --     8 C    1.321     7 N    1.239     5 C    1.173
     7   7 N    3.243 --     6 C    1.239     3 C    1.230     1 Cu   0.505
     8   6 C    3.934 --    16 C    1.327     6 C    1.321     9 C    1.024
     9   6 C    3.989 --    10 C    1.395    15 C    1.386     8 C    1.024
    10   6 C    3.988 --    11 C    1.451     9 C    1.395    43 H    0.973
                            14 C    0.106
    11   6 C    3.988 --    10 C    1.451    12 C    1.373    44 H    0.970
                            15 C    0.103
    12   6 C    3.902 --    11 C    1.373    14 C    1.365    13 O    1.039
    13   8 O    2.042 --    12 C    1.039    45 H    0.865
    14   6 C    3.990 --    15 C    1.465    12 C    1.365    46 H    0.971
                            10 C    0.106
    15   6 C    3.988 --    14 C    1.465     9 C    1.386    47 H    0.973
                            11 C    0.103
    16   6 C    3.908 --     8 C    1.327    19 N    1.222    17 C    1.180
    17   6 C    3.954 --    18 C    1.640    16 C    1.180    48 H    0.973
    18   6 C    3.957 --    17 C    1.640    20 C    1.188    49 H    0.964
    19   7 N    3.247 --    20 C    1.254    16 C    1.222     1 Cu   0.503
    20   6 C    3.902 --    21 C    1.263    19 N    1.254    18 C    1.188
    21   6 C    3.939 --    20 C    1.263    22 C    1.263   117 C    1.176
    22   6 C    3.902 --    21 C    1.263    26 N    1.254    23 C    1.189
    23   6 C    3.957 --    24 C    1.639    22 C    1.189    50 H    0.964
    24   6 C    3.954 --    23 C    1.639    25 C    1.181    51 H    0.973
    25   6 C    3.908 --    27 C    1.324    26 N    1.223    24 C    1.181
    26   7 N    3.247 --    22 C    1.254    25 C    1.223     1 Cu   0.504
    27   6 C    3.935 --    25 C    1.324    35 C    1.320    28 C    1.028
    28   6 C    3.989 --    34 C    1.394    29 C    1.383    27 C    1.028
    29   6 C    3.988 --    30 C    1.467    28 C    1.383    52 H    0.973
                            33 C    0.102
    30   6 C    3.990 --    29 C    1.467    31 C    1.364    53 H    0.971
                            34 C    0.105
    31   6 C    3.901 --    33 C    1.373    30 C    1.364    32 O    1.039
    32   8 O    2.042 --    31 C    1.039    54 H    0.865
    33   6 C    3.988 --    34 C    1.451    31 C    1.373    55 H    0.970
                            29 C    0.102
    34   6 C    3.988 --    33 C    1.451    28 C    1.394    56 H    0.973
                            30 C    0.105
    35   6 C    3.913 --    27 C    1.320    39 N    1.238    36 C    1.173
    36   6 C    3.958 --    37 C    1.654    35 C    1.173    57 H    0.973
    37   6 C    3.954 --    36 C    1.654    38 C    1.171    58 H    0.976
    38   6 C    3.918 --     2 C    1.361    39 N    1.230    37 C    1.171
    39   7 N    3.243 --    35 C    1.238    38 C    1.230     1 Cu   0.504
    40   1 H    1.002 --     2 C    0.971
    41   1 H    0.998 --     4 C    0.976
    42   1 H    1.005 --     5 C    0.973
    43   1 H    1.005 --    10 C    0.973
    44   1 H    0.999 --    11 C    0.970
    45   1 H    0.887 --    13 O    0.865
    46   1 H    0.999 --    14 C    0.971
    47   1 H    1.005 --    15 C    0.973
    48   1 H    1.005 --    17 C    0.973
    49   1 H    1.008 --    18 C    0.964
    50   1 H    1.008 --    23 C    0.964
    51   1 H    1.005 --    24 C    0.973
    52   1 H    1.005 --    29 C    0.973
    53   1 H    0.999 --    30 C    0.971
    54   1 H    0.887 --    32 O    0.865
    55   1 H    0.999 --    33 C    0.970
    56   1 H    1.005 --    34 C    0.973
    57   1 H    1.005 --    36 C    0.973
    58   1 H    0.998 --    37 C    0.976
    59  29 Cu   2.187 --    65 N    0.505    97 N    0.504    84 N    0.504
                            77 N    0.503
    60   6 C    3.928 --    61 C    1.361    96 C    1.361    98 H    0.971
    61   6 C    3.918 --    60 C    1.361    65 N    1.230    62 C    1.171
    62   6 C    3.955 --    63 C    1.655    61 C    1.171    99 H    0.976
    63   6 C    3.958 --    62 C    1.655    64 C    1.173   100 H    0.973
    64   6 C    3.913 --    66 C    1.321    65 N    1.239    63 C    1.173
    65   7 N    3.243 --    64 C    1.239    61 C    1.230    59 Cu   0.505
    66   6 C    3.934 --    74 C    1.327    64 C    1.321    67 C    1.024
    67   6 C    3.989 --    68 C    1.395    73 C    1.386    66 C    1.024
    68   6 C    3.988 --    69 C    1.451    67 C    1.395   101 H    0.973
                            72 C    0.106
    69   6 C    3.988 --    68 C    1.451    70 C    1.373   102 H    0.970
                            73 C    0.103
    70   6 C    3.902 --    69 C    1.373    72 C    1.365    71 O    1.039
    71   8 O    2.042 --    70 C    1.039   103 H    0.865
    72   6 C    3.990 --    73 C    1.465    70 C    1.365   104 H    0.971
                            68 C    0.106
    73   6 C    3.988 --    72 C    1.465    67 C    1.386   105 H    0.973
                            69 C    0.103
    74   6 C    3.908 --    66 C    1.327    77 N    1.222    75 C    1.180
    75   6 C    3.954 --    76 C    1.640    74 C    1.180   106 H    0.973
    76   6 C    3.957 --    75 C    1.640    78 C    1.188   107 H    0.964
    77   7 N    3.247 --    78 C    1.254    74 C    1.222    59 Cu   0.503
    78   6 C    3.902 --    79 C    1.263    77 N    1.254    76 C    1.188
    79   6 C    3.939 --    78 C    1.263    80 C    1.263   118 C    1.176
    80   6 C    3.902 --    79 C    1.263    84 N    1.254    81 C    1.189
    81   6 C    3.957 --    82 C    1.639    80 C    1.189   108 H    0.964
    82   6 C    3.954 --    81 C    1.639    83 C    1.181   109 H    0.973
    83   6 C    3.908 --    85 C    1.324    84 N    1.223    82 C    1.181
    84   7 N    3.247 --    80 C    1.254    83 C    1.223    59 Cu   0.504
    85   6 C    3.935 --    83 C    1.324    93 C    1.320    86 C    1.028
    86   6 C    3.989 --    92 C    1.394    87 C    1.383    85 C    1.028
    87   6 C    3.988 --    88 C    1.467    86 C    1.383   110 H    0.973
                            91 C    0.102
    88   6 C    3.990 --    87 C    1.467    89 C    1.364   111 H    0.971
                            92 C    0.105
    89   6 C    3.901 --    91 C    1.373    88 C    1.364    90 O    1.039
    90   8 O    2.042 --    89 C    1.039   112 H    0.865
    91   6 C    3.988 --    92 C    1.451    89 C    1.373   113 H    0.970
                            87 C    0.102
    92   6 C    3.988 --    91 C    1.451    86 C    1.394   114 H    0.973
                            88 C    0.105
    93   6 C    3.913 --    85 C    1.320    97 N    1.238    94 C    1.173
    94   6 C    3.958 --    95 C    1.654    93 C    1.173   115 H    0.973
    95   6 C    3.954 --    94 C    1.654    96 C    1.171   116 H    0.976
    96   6 C    3.918 --    60 C    1.361    97 N    1.230    95 C    1.171
    97   7 N    3.243 --    93 C    1.238    96 C    1.230    59 Cu   0.504
    98   1 H    1.002 --    60 C    0.971
    99   1 H    0.998 --    62 C    0.976
   100   1 H    1.005 --    63 C    0.973
   101   1 H    1.005 --    68 C    0.973
   102   1 H    0.999 --    69 C    0.970
   103   1 H    0.887 --    71 O    0.865
   104   1 H    0.999 --    72 C    0.971
   105   1 H    1.005 --    73 C    0.973
   106   1 H    1.005 --    75 C    0.973
   107   1 H    1.008 --    76 C    0.964
   108   1 H    1.008 --    81 C    0.964
   109   1 H    1.005 --    82 C    0.973
   110   1 H    1.005 --    87 C    0.973
   111   1 H    0.999 --    88 C    0.971
   112   1 H    0.887 --    90 O    0.865
   113   1 H    0.999 --    91 C    0.970
   114   1 H    1.005 --    92 C    0.973
   115   1 H    1.005 --    94 C    0.973
   116   1 H    0.998 --    95 C    0.976
   117   6 C    3.936 --   118 C    2.583    21 C    1.176
   118   6 C    3.936 --   117 C    2.583    79 C    1.176
 ---------------------------------------------------------------------------

           -------------------------------------------------
          | TOTAL ENERGY             -213.331238478135 Eh   |
          | GRADIENT NORM               0.000192749601 Eh/α |
          | HOMO-LUMO GAP               0.002401454170 eV   |
           -------------------------------------------------

 * finished run on 2022/07/30 at 08:45:51.695
