   * xtb version 6.5.1 (b24c23e) compiled by 'conda@728c89f4b128' on 2022-07-12
          program call               : xtb Zn_H_C8_3.xyz --gfn 1 --opt -T 48

   ID    Z sym.   atoms
    1   30 Zn     1, 37, 89
    2    6 C      2-6, 8-11, 13-18, 20-24, 38-42, 44-47, 49-54, 56-60, 73-88,
                  90-94, 96-99, 101-106, 108-112
    3    7 N      7, 12, 19, 25, 43, 48, 55, 61, 95, 100, 107, 113
    4    1 H      26-36, 62-72, 114-123

          :  Hamiltonian                  GFN1-xTB          :
 * total energy  :  -215.2116050 Eh     change       -0.3086313E-09 Eh
 * total energy  :  -217.1537169 Eh     change       -0.1942112E+01 Eh
 * total energy  :  -217.4747885 Eh     change       -0.3210716E+00 Eh
 * total energy  :  -217.6082683 Eh     change       -0.1334798E+00 Eh
 * total energy  :  -217.6865354 Eh     change       -0.7826705E-01 Eh
 * total energy  :  -217.7458327 Eh     change       -0.5929730E-01 Eh
 * total energy  :  -217.8061431 Eh     change       -0.6031043E-01 Eh
 * total energy  :  -217.8749788 Eh     change       -0.6883573E-01 Eh
 * total energy  :  -217.9445527 Eh     change       -0.6957384E-01 Eh
 * total energy  :  -218.0056579 Eh     change       -0.6110528E-01 Eh
 * total energy  :  -218.1692625 Eh     change       -0.8918493E-04 Eh
 * total energy  :  -218.1694298 Eh     change       -0.1672893E-03 Eh
 * total energy  :  -218.1694859 Eh     change       -0.5614680E-04 Eh
 * total energy  :  -218.1695987 Eh     change       -0.1127595E-03 Eh
 * total energy  :  -218.1696131 Eh     change       -0.1437796E-04 Eh
 * total energy  :  -218.1696545 Eh     change       -0.4145229E-04 Eh
 * total energy  :  -218.1696457 Eh     change        0.8885140E-05 Eh
 * total energy  :  -218.1696625 Eh     change       -0.1680248E-04 Eh
 * total energy  :  -218.1696630 Eh     change       -0.5761221E-06 Eh
   *** GEOMETRY OPTIMIZATION CONVERGED AFTER 52 ITERATIONS ***

 final structure:
================
123
 xtb: 6.5.1 (b24c23e)
Zn          10.99629746376189       -0.01639658908288       -0.01579230591704
C            7.56904364711297       -0.04417445109321       -0.04651851638879
C            8.20778466091723       -0.91616123797182       -0.92148305674888
C            7.55045422565153       -1.81916352271926       -1.82832646043785
C            8.52209857462660       -2.48748705296530       -2.49900125125461
C            9.78400115403925       -2.00063349357904       -2.00950767701728
N            9.55841887285172       -1.05155860531174       -1.05677721036659
C           11.03598397250408       -2.42875713772226       -2.43842605345141
C           12.27219425628156       -1.98241397266433       -1.98804836844985
C           13.54538610170236       -2.45266134974918       -2.45833521671057
C           14.49860231162165       -1.77196083775724       -1.77201837985895
N           12.47493189299046       -1.02769085817710       -1.02798281414847
C           13.81650778377506       -0.88003284628890       -0.87678475876253
C           14.44956989189095        0.00916043959131        0.01689495394220
C           13.78718519010171        0.88924330595374        0.89790174794992
C           14.43878985037992        1.79271652385630        1.80414666586972
C           13.46260987706773        2.46014917978054        2.47103534014609
C           12.20566869068869        1.96991412205016        1.97783919400825
N           12.44085322402057        1.01700799007200        1.02344694521475
C           10.95442887484301        2.39724422623008        2.40471134851107
C            9.71735813898589        1.94854632749503        1.95399449220843
C            8.43924306669005        2.41463815103223        2.42115604983775
C            7.49055054683942        1.73012128888422        1.73414710971622
C            8.17829030922219        0.83801660850231        0.83919127244125
N            9.52399102816289        0.99569480383009        0.99790109254569
H            6.48352772988446       -0.05298748549230       -0.05589874578485
H            6.48074928882992       -1.91862246566747       -1.92850048468831
H            8.40874980198758       -3.24473953879307       -3.25920962579906
H           11.04923173815145       -3.19449831609729       -3.20804228875376
H           13.68059679489519       -3.20749784483101       -3.21712608071926
H           15.57038356265361       -1.85831595482516       -1.85660005793482
H           15.50742579155662        1.89505678827210        1.90867027300648
H           13.57204681418747        3.21835028226160        3.23064461181053
H           10.94134787457788        3.16409432412007        3.17323559850225
H            8.30012239116306        3.16991278753638        3.17904673224112
H            6.41776217720246        1.81171006359827        1.81582562634009
Zn          48.30505913149259        0.00635360460238       -0.00830773870346
C           51.73216572618847        0.04810364111738       -0.01055171857718
C           51.09321862495752        1.28188452104445       -0.06895240783830
C           51.75034202380533        2.56032345630934       -0.12963411829186
C           50.77856084328599        3.50595164418102       -0.17371714241175
C           49.51671210783320        2.81618686113009       -0.14034041681913
N           49.74255672097836        1.47292231781208       -0.07734497572460
C           48.26463931684111        3.42141241618762       -0.16688423012606
C           47.02849329684025        2.78783980033990       -0.13539187853160
C           45.75511673798000        3.45207624606179       -0.16408487966275
C           44.80204766793499        2.48639230206288       -0.11864861011321
N           46.82601811943461        1.43538880435936       -0.07300160258416
C           45.48431825116841        1.22394625225509       -0.06252351820586
C           44.85199818235384       -0.03563867773366       -0.00815032626944
C           45.51453257624382       -1.27926936614408        0.04783692085351
C           44.86303624622786       -2.55768871905175        0.10698419774276
C           45.83926709714707       -3.49999003132781        0.15166867267467
C           47.09616282615809       -2.80511632575365        0.12058088155478
N           46.86095897180000       -1.45802281252270        0.05782838673152
C           48.34742984445202       -3.40837120513336        0.14985289970624
C           49.58432793350480       -2.77280771754133        0.12123213902504
C           50.86256027543367       -3.43175482800191        0.15303759390310
C           51.81107616104187       -2.46283532269420        0.10810231861540
C           51.12312572726779       -1.20069259110466        0.04835776054686
N           49.77746410158736       -1.42440982529354        0.05822105941477
H           52.81767963912991        0.06112736230651       -0.01100774166020
H           52.82003081161186        2.70145075925100       -0.13685404590470
H           50.89177384948405        4.57777714928648       -0.22439650696236
H           48.25121384712719        4.50589431218696       -0.21747826695471
H           45.61978659754242        4.52125345017689       -0.21291037748978
H           43.73023647930740        2.60694307452642       -0.12289502023758
H           43.79441597670238       -2.70399085569720        0.11305937125150
H           45.72991704759737       -4.57209492265845        0.20153774554621
H           48.36059837094967       -4.49285880158832        0.20043418078494
H           51.00181544424223       -4.50052973997177        0.20328789776603
H           52.88388052018774       -2.57796316911306        0.11418803711450
C           15.85400523815811        0.01830493402049        0.02749602109195
C           17.07890823099764        0.02111421630366        0.02995519533064
C           18.42137813330046        0.02543273150932        0.02915482064795
C           19.65235811511734        0.02694139550916        0.02059756601101
C           20.99002413225603        0.02539359224701        0.01403529148073
C           22.22100412112323        0.02108376851672        0.00373491068899
C           23.56328760222949        0.01702290281142       -0.00131172565492
C           24.78833839864791        0.00855844286103       -0.00694101996690
C           34.51231465413218       -0.06364280463249       -0.03136981957681
C           35.73716735734414       -0.07170587897634       -0.03103526794462
C           37.07985287573931       -0.07541165295736       -0.02688356319262
C           38.31065992580569       -0.07276061480107       -0.02695094557792
C           39.64874856662156       -0.07176919737846       -0.02124286242145
C           40.87950495841536       -0.06858479044683       -0.01752510260378
C           42.22237935187167       -0.06216702290919       -0.01479574784891
C           43.44705314660553       -0.05247361552585       -0.00835035597101
Zn          29.65001983315897       -0.03081899069652       -0.01741056756375
C           26.19218985792917       -0.00267433450342       -0.01035858562726
C           26.85050209833704        0.92831670463539        0.82041679145423
C           26.19424523033855        1.88291407261300        1.66805432948985
C           27.16722083323656        2.58799079600416        2.30071812007317
C           28.42554767460321        2.06967936389897        1.84368273299184
N           28.19623406775303        1.06237412157126        0.94580687780049
C           29.67526337380755        2.52239932890223        2.24883336883640
C           30.91577792898047        2.05418933707951        1.83304161451678
C           32.18420533738016        2.55722916087969        2.27918023206835
C           33.14307196578756        1.83789089559144        1.64115971684979
N           31.12507581873993        1.04236927618407        0.93544549820281
C           32.46805922342733        0.88976005458396        0.80092798001475
C           33.10793831510500       -0.05413860275659       -0.02941317118704
C           32.45004550082870       -0.98983782837199       -0.85477985960394
C           33.10628271482703       -1.94813236692301       -1.69835384161699
C           32.13330023598665       -2.65732694354435       -2.32635437558087
C           30.87489031444087       -2.13731992197210       -1.87126453666875
N           31.10417775001225       -1.12574456431263       -0.97833621483025
C           29.62511116389013       -2.59076366751791       -2.27565700628813
C           28.38452899818368       -2.11799018576694       -1.86520676229189
C           27.11612964876013       -2.61893985705346       -2.31370681375455
C           26.15720493778362       -1.89449404759917       -1.68144133431641
C           26.83213565938690       -0.94604948459938       -0.84160044368758
N           28.17506040955490       -1.10250347941151       -0.97167534553254
H           25.12513404977200        1.99159659708438        1.76013635360905
H           27.05397790194829        3.38897446290856        3.01441376113268
H           29.68343802113255        3.33350453164927        2.97072056432711
H           32.31327889477613        3.35854474263233        2.98980505295705
H           34.21416443867857        1.93270271947358        1.72512445595199
H           34.17541771149433       -2.05589033619977       -1.79130159713119
H           32.24653085736315       -3.46185828322369       -3.03606079506525
H           29.61698992013949       -3.40562751828799       -2.99331201012920
H           26.98706651985918       -3.42246192991276       -3.02184324704687
H           25.08611431654651       -1.98629994571754       -1.76877557800917

          :  Hamiltonian                  GFN1-xTB          :
         :: total energy            -218.169663030119 Eh    ::
         :: gradient norm              0.000674884569 Eh/a0 ::
         :: HOMO-LUMO gap              1.003496600774 eV    ::
         :: SCC energy              -222.005583536991 Eh    ::
         :: repulsion energy           3.938668255834 Eh    ::

    * Orbital Energies and Occupations

         #    Occupation            Energy/Eh            Energy/eV
      -------------------------------------------------------------
         1        2.0000           -0.7608842             -20.7047
       ...           ...                  ...                  ...
       189        2.0000           -0.4204733             -11.4417
       190        2.0000           -0.4203139             -11.4373
       191        2.0000           -0.4202146             -11.4346
       192        2.0000           -0.4160530             -11.3214
       193        2.0000           -0.4086766             -11.1207
       194        2.0000           -0.4049718             -11.0198
       195        2.0000           -0.4038410             -10.9891
       196        2.0000           -0.3942532             -10.7282
       197        2.0000           -0.3928725             -10.6906
       198        2.0000           -0.3927952             -10.6885
       199        2.0000           -0.3873139             -10.5393
       200        2.0000           -0.3823671             -10.4047
       201        2.0000           -0.3765213             -10.2457 (HOMO)
       202                         -0.3396435              -9.2422 (LUMO)
       203                         -0.3316381              -9.0243
       204                         -0.3273962              -8.9089
       205                         -0.3263967              -8.8817
       206                         -0.3252730              -8.8511
       207                         -0.3251932              -8.8490
       208                         -0.3053866              -8.3100
       209                         -0.2975660              -8.0972
       210                         -0.2967917              -8.0761
       211                         -0.2931447              -7.9769
       212                         -0.2870527              -7.8111
       ...                                ...                  ...
       428                          1.6083251              43.7648
      -------------------------------------------------------------
                  HL-Gap            0.0368778 Eh            1.0035 eV

Wiberg/Mayer (AO) data.
largest (>0.10) Wiberg bond orders for each atom

     #   Z sym  total        # sym  WBO       # sym  WBO       # sym  WBO
 ---------------------------------------------------------------------------
     1  30 Zn   1.997 --    25 N    0.461     7 N    0.460    12 N    0.456
                            19 N    0.456
     2   6 C    3.932 --    24 C    1.358     3 C    1.358    26 H    0.972
     3   6 C    3.922 --     2 C    1.358     7 N    1.238     4 C    1.166
     4   6 C    3.960 --     5 C    1.665     3 C    1.166    27 H    0.976
     5   6 C    3.963 --     4 C    1.665     6 C    1.167    28 H    0.976
     6   6 C    3.919 --     8 C    1.353     7 N    1.239     5 C    1.167
     7   7 N    3.297 --     6 C    1.239     3 C    1.238     1 Zn   0.460
     8   6 C    3.939 --     9 C    1.366     6 C    1.353    29 H    0.971
     9   6 C    3.913 --     8 C    1.366    12 N    1.219    10 C    1.172
    10   6 C    3.959 --    11 C    1.653     9 C    1.172    30 H    0.976
    11   6 C    3.962 --    10 C    1.653    13 C    1.180    31 H    0.974
    12   7 N    3.300 --    13 C    1.270     9 C    1.219     1 Zn   0.456
    13   6 C    3.901 --    12 N    1.270    14 C    1.252    11 C    1.180
    14   6 C    3.943 --    15 C    1.253    13 C    1.252    73 C    1.195
    15   6 C    3.901 --    19 N    1.270    14 C    1.253    16 C    1.180
    16   6 C    3.962 --    17 C    1.653    15 C    1.180    32 H    0.974
    17   6 C    3.959 --    16 C    1.653    18 C    1.172    33 H    0.976
    18   6 C    3.913 --    20 C    1.366    19 N    1.219    17 C    1.172
    19   7 N    3.300 --    15 C    1.270    18 C    1.219     1 Zn   0.456
    20   6 C    3.939 --    18 C    1.366    21 C    1.354    34 H    0.971
    21   6 C    3.919 --    20 C    1.354    25 N    1.239    22 C    1.167
    22   6 C    3.963 --    23 C    1.665    21 C    1.167    35 H    0.976
    23   6 C    3.960 --    22 C    1.665    24 C    1.166    36 H    0.976
    24   6 C    3.922 --     2 C    1.358    25 N    1.238    23 C    1.166
    25   7 N    3.297 --    21 C    1.239    24 C    1.238     1 Zn   0.461
    26   1 H    1.001 --     2 C    0.972
    27   1 H    0.998 --     4 C    0.976
    28   1 H    0.998 --     5 C    0.976
    29   1 H    1.002 --     8 C    0.971
    30   1 H    0.998 --    10 C    0.976
    31   1 H    1.002 --    11 C    0.974
    32   1 H    1.002 --    16 C    0.974
    33   1 H    0.998 --    17 C    0.976
    34   1 H    1.002 --    20 C    0.971
    35   1 H    0.998 --    22 C    0.976
    36   1 H    0.998 --    23 C    0.976
    37  30 Zn   1.997 --    61 N    0.461    43 N    0.460    48 N    0.456
                            55 N    0.456
    38   6 C    3.932 --    60 C    1.358    39 C    1.358    62 H    0.972
    39   6 C    3.922 --    38 C    1.358    43 N    1.238    40 C    1.166
    40   6 C    3.960 --    41 C    1.665    39 C    1.166    63 H    0.976
    41   6 C    3.963 --    40 C    1.665    42 C    1.167    64 H    0.976
    42   6 C    3.919 --    44 C    1.354    43 N    1.239    41 C    1.167
    43   7 N    3.297 --    42 C    1.239    39 C    1.238    37 Zn   0.460
    44   6 C    3.939 --    45 C    1.366    42 C    1.354    65 H    0.971
    45   6 C    3.914 --    44 C    1.366    48 N    1.219    46 C    1.172
    46   6 C    3.959 --    47 C    1.654    45 C    1.172    66 H    0.976
    47   6 C    3.962 --    46 C    1.654    49 C    1.180    67 H    0.974
    48   7 N    3.300 --    49 C    1.269    45 C    1.219    37 Zn   0.456
    49   6 C    3.902 --    48 N    1.269    50 C    1.254    47 C    1.180
    50   6 C    3.944 --    51 C    1.254    49 C    1.254    88 C    1.192
    51   6 C    3.902 --    55 N    1.269    50 C    1.254    52 C    1.180
    52   6 C    3.962 --    53 C    1.654    51 C    1.180    68 H    0.974
    53   6 C    3.959 --    52 C    1.654    54 C    1.172    69 H    0.976
    54   6 C    3.914 --    56 C    1.366    55 N    1.219    53 C    1.172
    55   7 N    3.300 --    51 C    1.269    54 C    1.219    37 Zn   0.456
    56   6 C    3.939 --    54 C    1.366    57 C    1.354    70 H    0.971
    57   6 C    3.919 --    56 C    1.354    61 N    1.239    58 C    1.167
    58   6 C    3.963 --    59 C    1.665    57 C    1.167    71 H    0.976
    59   6 C    3.960 --    58 C    1.665    60 C    1.166    72 H    0.976
    60   6 C    3.922 --    38 C    1.358    61 N    1.238    59 C    1.166
    61   7 N    3.298 --    57 C    1.239    60 C    1.238    37 Zn   0.461
    62   1 H    1.001 --    38 C    0.972
    63   1 H    0.998 --    40 C    0.976
    64   1 H    0.998 --    41 C    0.976
    65   1 H    1.002 --    44 C    0.971
    66   1 H    0.998 --    46 C    0.976
    67   1 H    1.002 --    47 C    0.974
    68   1 H    1.002 --    52 C    0.974
    69   1 H    0.998 --    53 C    0.976
    70   1 H    1.002 --    56 C    0.971
    71   1 H    0.998 --    58 C    0.976
    72   1 H    0.998 --    59 C    0.976
    73   6 C    3.876 --    74 C    2.436    14 C    1.195    76 C    0.186
    74   6 C    3.935 --    73 C    2.436    75 C    1.346
    75   6 C    3.892 --    76 C    2.334    74 C    1.346    78 C    0.182
    76   6 C    3.925 --    75 C    2.334    77 C    1.371    73 C    0.186
    77   6 C    3.924 --    78 C    2.333    76 C    1.371    80 C    0.186
    78   6 C    3.893 --    77 C    2.333    79 C    1.347    75 C    0.182
    79   6 C    3.932 --    80 C    2.434    78 C    1.347
    80   6 C    3.877 --    79 C    2.434    90 C    1.197    77 C    0.186
    81   6 C    3.877 --    82 C    2.437   102 C    1.195    84 C    0.186
    82   6 C    3.932 --    81 C    2.437    83 C    1.344
    83   6 C    3.892 --    84 C    2.336    82 C    1.344    86 C    0.182
    84   6 C    3.923 --    83 C    2.336    85 C    1.368    81 C    0.186
    85   6 C    3.925 --    86 C    2.336    84 C    1.368    88 C    0.186
    86   6 C    3.892 --    85 C    2.336    87 C    1.343    83 C    0.182
    87   6 C    3.935 --    88 C    2.439    86 C    1.343
    88   6 C    3.876 --    87 C    2.439    50 C    1.192    85 C    0.186
    89  30 Zn   1.993 --   113 N    0.457   100 N    0.456    95 N    0.456
                           107 N    0.456
    90   6 C    3.931 --    91 C    1.250   112 C    1.250    80 C    1.197
    91   6 C    3.901 --    95 N    1.269    90 C    1.250    92 C    1.183
    92   6 C    3.960 --    93 C    1.650    91 C    1.183   114 H    0.974
    93   6 C    3.959 --    92 C    1.650    94 C    1.175   115 H    0.976
    94   6 C    3.911 --    96 C    1.361    95 N    1.219    93 C    1.175
    95   7 N    3.294 --    91 C    1.269    94 C    1.219    89 Zn   0.456
    96   6 C    3.934 --    94 C    1.361    97 C    1.361   116 H    0.971
    97   6 C    3.911 --    96 C    1.361   100 N    1.219    98 C    1.175
    98   6 C    3.960 --    99 C    1.650    97 C    1.175   117 H    0.976
    99   6 C    3.960 --    98 C    1.650   101 C    1.182   118 H    0.974
   100   7 N    3.294 --   101 C    1.269    97 C    1.219    89 Zn   0.456
   101   6 C    3.902 --   100 N    1.269   102 C    1.251    99 C    1.182
   102   6 C    3.931 --   103 C    1.252   101 C    1.251    81 C    1.195
   103   6 C    3.902 --   107 N    1.269   102 C    1.252   104 C    1.182
   104   6 C    3.960 --   105 C    1.650   103 C    1.182   119 H    0.974
   105   6 C    3.960 --   104 C    1.650   106 C    1.175   120 H    0.976
   106   6 C    3.911 --   108 C    1.361   107 N    1.219   105 C    1.175
   107   7 N    3.294 --   103 C    1.269   106 C    1.219    89 Zn   0.456
   108   6 C    3.934 --   109 C    1.361   106 C    1.361   121 H    0.971
   109   6 C    3.911 --   108 C    1.361   113 N    1.219   110 C    1.176
   110   6 C    3.959 --   111 C    1.650   109 C    1.176   122 H    0.976
   111   6 C    3.960 --   110 C    1.650   112 C    1.183   123 H    0.974
   112   6 C    3.901 --   113 N    1.269    90 C    1.250   111 C    1.183
   113   7 N    3.295 --   112 C    1.269   109 C    1.219    89 Zn   0.457
   114   1 H    1.002 --    92 C    0.974
   115   1 H    0.998 --    93 C    0.976
   116   1 H    1.001 --    96 C    0.971
   117   1 H    0.998 --    98 C    0.976
   118   1 H    1.002 --    99 C    0.974
   119   1 H    1.002 --   104 C    0.974
   120   1 H    0.998 --   105 C    0.976
   121   1 H    1.001 --   108 C    0.971
   122   1 H    0.998 --   110 C    0.976
   123   1 H    1.002 --   111 C    0.974
 ---------------------------------------------------------------------------

           -------------------------------------------------
          | TOTAL ENERGY             -218.169663030119 Eh   |
          | GRADIENT NORM               0.000674884569 Eh/α |
          | HOMO-LUMO GAP               1.003496600774 eV   |
           -------------------------------------------------

 * finished run on 2022/07/30 at 07:05:22.739
