   * xtb version 6.5.1 (b24c23e) compiled by 'conda@728c89f4b128' on 2022-07-12
          program call               : xtb Fe_H_C2_4.xyz --gfn 1 --opt -T 48

   ID    Z sym.   atoms
    1   26 Fe     1, 37, 79, 114
    2    6 C      2-6, 8-11, 13-18, 20-24, 38-42, 44-47, 49-54, 56-60, 73-78,
                  80-84, 86-89, 91-96, 98-102, 115-119, 121-124, 126-131,
                  133-137
    3    7 N      7, 12, 19, 25, 43, 48, 55, 61, 85, 90, 97, 103, 120, 125,
                  132, 138
    4    1 H      26-36, 62-72, 104-113, 139-148

          :  Hamiltonian                  GFN1-xTB          :
 * total energy  :  -266.1352193 Eh     change       -0.1819501E-08 Eh
 * total energy  :  -266.8079397 Eh     change       -0.6727205E+00 Eh
 * total energy  :  -267.0269665 Eh     change       -0.2190268E+00 Eh
 * total energy  :  -267.1731767 Eh     change       -0.1462102E+00 Eh
 * total energy  :  -267.2570888 Eh     change       -0.8391203E-01 Eh
 * total energy  :  -267.3003623 Eh     change       -0.4327351E-01 Eh
 * total energy  :  -267.3305118 Eh     change       -0.3014954E-01 Eh
 * total energy  :  -267.3521733 Eh     change       -0.2166150E-01 Eh
 * total energy  :  -267.3678766 Eh     change       -0.1570329E-01 Eh
 * total energy  :  -267.3785563 Eh     change       -0.1067971E-01 Eh
 * total energy  :  -267.3947928 Eh     change       -0.1544127E-04 Eh
 * total energy  :  -267.3948086 Eh     change       -0.1579433E-04 Eh
 * total energy  :  -267.3948219 Eh     change       -0.1329361E-04 Eh
 * total energy  :  -267.3948362 Eh     change       -0.1424401E-04 Eh
 * total energy  :  -267.3948501 Eh     change       -0.1389848E-04 Eh
 * total energy  :  -267.3948604 Eh     change       -0.1034533E-04 Eh
 * total energy  :  -267.3948677 Eh     change       -0.7316329E-05 Eh
 * total energy  :  -267.3948735 Eh     change       -0.5774625E-05 Eh
 * total energy  :  -267.3948775 Eh     change       -0.4024074E-05 Eh
   *** GEOMETRY OPTIMIZATION CONVERGED AFTER 59 ITERATIONS ***

 final structure:
================
148
 xtb: 6.5.1 (b24c23e)
Fe          28.08322900626566       -0.01796978483914       -0.02785331258251
C           24.67015099975649       -0.04623547643411       -0.01053713085184
C           25.32100396654337       -0.88443909033171       -0.89276674593580
C           24.64662591756815       -1.76532304080828       -1.80129513486889
C           25.60691020748407       -2.38045006543808       -2.53081673462792
C           26.86473159800151       -1.87460131484455       -2.06454534385091
N           26.67789089836845       -0.97063529579962       -1.05523241266011
C           28.08467010293246       -2.23963892489575       -2.59978810379648
C           29.30095024908831       -1.76819900384871       -2.15590624753619
C           30.55639740201409       -2.15379132776682       -2.72669132129150
C           31.51741624047524       -1.53151127297226       -2.00328682741787
N           29.49548665477772       -0.90731341646023       -1.10245220026808
C           30.84676433853700       -0.77184780915126       -0.99212338171157
C           31.51776952057659       -0.01259614696667       -0.02511750851199
C           30.84250622520442        0.75037808264253        0.93592320145917
C           31.50946236113039        1.52180108069097        1.94066716060897
C           30.54587466739550        2.15372853332055        2.65212133235875
C           29.29242738107591        1.75908561850740        2.08313453172108
N           29.49084864093374        0.88607401676405        1.04041456608362
C           28.07367669301523        2.22713313901043        2.52373274719734
C           26.85494076259488        1.83935962391723        2.00186730706536
C           25.59369524903715        2.32832998508856        2.47690763538572
C           24.63620303592334        1.68545519923506        1.76798631680403
C           25.31575603862542        0.80746684772371        0.86051677027168
N           26.67275158225916        0.92045551641153        1.00534327231606
H           23.58606762197141       -0.05648848808435       -0.00393197346202
H           23.57564137415860       -1.87936534789280       -1.85901177838560
H           25.49604380640858       -3.10975628731904       -3.31771139249594
H           28.08563134315787       -2.94479130122846       -3.42348902438615
H           30.66760864519443       -2.81596712492505       -3.57057782011581
H           32.58659919120059       -1.56990991377570       -2.13325401806804
H           32.57821852417930        1.56163646610689        2.07350674969738
H           30.65384924816087        2.82670794693508        3.48784733306727
H           28.07089911476623        2.94284098118064        3.33826848350397
H           25.47909070033994        3.06504318801844        3.25631805149945
H           23.56403437070863        1.77984714418767        1.83791354874273
Fe          60.82196344276304        0.00349720796081       -0.02385235165133
C           64.23513613478713        0.01928601783303        0.00323112592369
C           63.58125970980952        1.23414984424225        0.03148062523287
C           64.25337142570470        2.50019878760912        0.06846741309564
C           63.29002220206373        3.45105690758497        0.08822294643108
C           62.03253101082969        2.76290033314248        0.06564950982692
N           62.22312255392860        1.40880121169640        0.02877006112097
C           60.80862565257852        3.40245581083678        0.08810214657781
C           59.59250216912106        2.75461815117190        0.07799452313163
C           58.33240797758595        3.43427203206007        0.11158415044877
C           57.37525651191370        2.47642968708639        0.08870356429664
N           59.40484220514523        1.39402498645109        0.03531942201434
C           58.05376268437359        1.21652915916522        0.04107923089897
C           57.38934526065126       -0.01338928450782       -0.02823757125085
C           58.06614945503485       -1.23626177324159       -0.10139309606121
C           57.39994978714535       -2.50237388491461       -0.15828920281584
C           58.36640430673148       -3.45048155633307       -0.19042477866748
C           59.61979757470016       -2.75877147574213       -0.15025005291993
N           59.41882454031197       -1.40051324176601       -0.09653842556259
C           60.84213863519911       -3.39470955933966       -0.15914746715042
C           62.05950108835457       -2.74374240388438       -0.11645067834094
C           63.32352736550413       -3.42018147907148       -0.12326986953268
C           64.27747966143691       -2.46090609791513       -0.07573824569416
C           63.59313641419125       -1.20134703946040       -0.04074744605742
N           62.23675800540917       -1.38840638176234       -0.06411310600885
H           65.31922633177520        0.02430415144228        0.01347591408254
H           65.32499576643156        2.62210586383039        0.07729653805944
H           63.39835924895939        4.52381109619365        0.11700174874176
H           60.80426925855857        4.48628352060275        0.12006992381511
H           58.21582871664283        4.50583556361665        0.14623146746238
H           56.30387618955714        2.59593407652917        0.09501985074324
H           56.32973730175905       -2.63182253637799       -0.16542096956198
H           58.26057762232044       -4.52281886104175       -0.23392702569563
H           60.84856932526001       -4.47817397608595       -0.20095214542446
H           63.44207941972520       -4.49160154834349       -0.16017262522511
H           65.35018162856169       -2.57289926796668       -0.06562840102000
C           32.92229463905242       -0.01330629818521       -0.02148915007876
C           34.14131132883450       -0.01498679960466       -0.01762687675439
C           43.84484705984080       -0.03958781629853       -0.00216895335173
C           45.06631232048731       -0.03805186972700        0.00223373166845
C           54.76593038059912       -0.02768293512929       -0.02406373819225
C           55.98422225111803       -0.02110968764429       -0.02638543584495
Fe          38.99086619572419       -0.02668869804091       -0.00982936061118
C           35.54491543635014       -0.01839519002961       -0.01421448257804
C           36.22241856682040        1.01750756006706        0.64281284264582
C           35.56050076895016        2.10358254508894        1.29752001254294
C           36.52705365130365        2.86060107382227        1.87144116876617
C           37.77420275471088        2.23379556946242        1.55748176854678
N           37.57377828948938        1.11717149304165        0.78557859440271
C           38.99374266215978        2.68021996795287        2.02402244512246
C           40.21003416773286        2.10505367474739        1.72306776154634
C           41.45827280107002        2.58726038954454        2.22898825796819
C           42.42317894170939        1.82584561064135        1.65956566105375
N           40.41123327562802        1.04812579885667        0.86879017750360
C           41.76206217614294        0.88474424056415        0.80956687889706
C           42.44212039186359       -0.03437415958127       -0.00538789819106
C           41.75896909737721       -0.95023386424216       -0.82128405953830
C           42.41793171151186       -1.89414429661184       -1.66992213120767
C           41.45117916736543       -2.65235906373370       -2.24037175244269
C           40.20392530012816       -2.16514693434047       -1.73671521731667
N           40.40756101475625       -1.10817024374890       -0.88312235610918
C           38.98611991719201       -2.73632023539561       -2.03935155997875
C           37.76753100855193       -2.28398151933121       -1.57617719883644
C           36.51801246211622       -2.90436578584341       -1.89361911857343
C           35.55373719307645       -2.14132442955452       -1.32403352551652
C           36.21947238732967       -1.05814738741585       -0.66814197836537
N           37.57067627628511       -1.16540135233486       -0.80606792012898
H           34.49371026061576        2.25584547135357        1.30712269905586
H           36.42303558447063        3.76031661926827        2.45669239860607
H           38.99569284816282        3.54807119822016        2.67448284708983
H           41.56409622569984        3.40498208395539        2.92387663996351
H           43.48980092848818        1.88840499780495        1.79219042482001
H           43.48458668122593       -1.96033522415324       -1.80037186964013
H           41.55474295153033       -3.47087119948116       -2.93467322617941
H           38.98613414954339       -3.60464233112105       -2.68914469347639
H           36.41126393380296       -3.80415348891600       -2.47826773276923
H           34.48611078858940       -2.28735350789911       -1.33687246015969
Fe          49.91914145082518       -0.03646879333575       -0.00885048663988
C           46.46908488296558       -0.04036830580471        0.00045568760965
C           47.15201524826055        0.86833572147576        0.82448601993026
C           46.49314639888115        1.79852304807586        1.68817064058075
C           47.45944141959420        2.55311822186026        2.26419026276256
C           48.70642687296277        2.07734997321887        1.74912198311668
N           48.50303543363244        1.03081907990155        0.88261983003319
C           49.92375495168080        2.64601825614444        2.05812986249118
C           51.14196990949435        2.20442463033765        1.58358882684469
C           52.39223030580424        2.81633732662251        1.91504220245038
C           53.35597244545780        2.06724396171824        1.32638411419441
N           51.33748703547601        1.10473723293991        0.78678590149655
C           52.68831270691538        1.00432125591034        0.63942689919767
C           53.36176238102016       -0.03207937430751       -0.01930793079076
C           52.68770840775455       -1.07117688776229       -0.67283904764344
C           53.35388315863454       -2.13300794818944       -1.36301229255853
C           52.38839850519911       -2.88502260036652       -1.94506588096933
C           51.13856432776014       -2.27571685922515       -1.60688465811429
N           51.33619211248855       -1.17522507708723       -0.81183453403189
C           49.91866351914351       -2.71992319930114       -2.07487349306491
C           48.70159711547623       -2.15404000369428       -1.75945941014791
C           47.45301977948917       -2.63258273027399       -2.26816309250620
C           46.48793832533504       -1.88014136229776       -1.68719899291129
C           47.14898593913779       -0.94878225651055       -0.82651175811133
N           48.50013030666285       -1.10818483772119       -0.89164234986575
H           45.42697661934730        1.85814189025480        1.82570831772877
H           47.35532967650121        3.36180521445616        2.96980333816006
H           49.92367733921419        3.50286690383058        2.72296437436680
H           52.49998120532387        3.69879248633291        2.52536706959976
H           54.42493665716692        2.20284501150107        1.35541188612303
H           54.42302840411504       -2.26612129102032       -1.39768086787470
H           52.49436267021907       -3.76789387637807       -2.55512962008297
H           49.91690903330223       -3.57656135538638       -2.73999982209243
H           47.34711707645460       -3.44133736888322       -2.97349257637305
H           45.42121316612411       -1.94282804019474       -1.81882031540559

          :  Hamiltonian                  GFN1-xTB          :
         :: total energy            -267.394877545610 Eh    ::
         :: gradient norm              0.000705669337 Eh/a0 ::
         :: HOMO-LUMO gap              0.039749122146 eV    ::
         :: SCC energy              -271.574843993430 Eh    ::
         :: repulsion energy           4.317621699901 Eh    ::

    * Orbital Energies and Occupations

         #    Occupation            Energy/Eh            Energy/eV
      -------------------------------------------------------------
         1        2.0000           -0.7744123             -21.0728
       ...           ...                  ...                  ...
       237        1.9925           -0.3912299             -10.6459
       238        1.9922           -0.3911846             -10.6447
       239        1.9913           -0.3910891             -10.6421
       240        1.9912           -0.3910736             -10.6417
       241        1.9737           -0.3900248             -10.6131
       242        1.9730           -0.3899997             -10.6124
       243        1.9558           -0.3895233             -10.5995
       244        1.9540           -0.3894846             -10.5984
       245        1.9524           -0.3894528             -10.5976
       246        1.9501           -0.3894057             -10.5963
       247        1.9410           -0.3892428             -10.5918
       248        1.9388           -0.3892073             -10.5909
       249        1.0185           -0.3859589             -10.5025 (HOMO)
       250        0.3647           -0.3844981             -10.4627 (LUMO)
       251        0.3601           -0.3844835             -10.4623
       252        0.3273           -0.3843739             -10.4593
       253        0.3252           -0.3843667             -10.4592
       254                         -0.3491446              -9.5007
       255                         -0.3389829              -9.2242
       256                         -0.3325623              -9.0495
       257                         -0.3324384              -9.0461
       258                         -0.3296400              -8.9700
       259                         -0.3288565              -8.9486
       260                         -0.3285111              -8.9392
       ...                                ...                  ...
       528                          1.3315687              36.2338
      -------------------------------------------------------------
                  HL-Gap            0.0014608 Eh            0.0397 eV

Wiberg/Mayer (AO) data.
largest (>0.10) Wiberg bond orders for each atom

     #   Z sym  total        # sym  WBO       # sym  WBO       # sym  WBO
 ---------------------------------------------------------------------------
     1  26 Fe   3.100 --    25 N    0.666     7 N    0.666    19 N    0.660
                            12 N    0.660
     2   6 C    3.921 --    24 C    1.364     3 C    1.364    26 H    0.971
     3   6 C    3.925 --     2 C    1.364     7 N    1.214     4 C    1.169
     4   6 C    3.959 --     5 C    1.655     3 C    1.169    27 H    0.975
     5   6 C    3.961 --     4 C    1.655     6 C    1.170    28 H    0.975
     6   6 C    3.921 --     8 C    1.353     7 N    1.220     5 C    1.170
     7   7 N    3.383 --     6 C    1.220     3 C    1.214     1 Fe   0.666
     8   6 C    3.927 --     9 C    1.377     6 C    1.353    29 H    0.970
     9   6 C    3.918 --     8 C    1.377    12 N    1.194    10 C    1.173
    10   6 C    3.956 --    11 C    1.645     9 C    1.173    30 H    0.975
    11   6 C    3.961 --    10 C    1.645    13 C    1.183    31 H    0.969
    12   7 N    3.381 --    13 C    1.251     9 C    1.194     1 Fe   0.660
    13   6 C    3.909 --    14 C    1.254    12 N    1.251    11 C    1.183
    14   6 C    3.923 --    15 C    1.254    13 C    1.254    73 C    1.194
    15   6 C    3.909 --    14 C    1.254    19 N    1.251    16 C    1.183
    16   6 C    3.961 --    17 C    1.645    15 C    1.183    32 H    0.969
    17   6 C    3.956 --    16 C    1.645    18 C    1.173    33 H    0.975
    18   6 C    3.918 --    20 C    1.377    19 N    1.194    17 C    1.173
    19   7 N    3.381 --    15 C    1.251    18 C    1.194     1 Fe   0.660
    20   6 C    3.927 --    18 C    1.377    21 C    1.353    34 H    0.970
    21   6 C    3.921 --    20 C    1.353    25 N    1.220    22 C    1.170
    22   6 C    3.961 --    23 C    1.655    21 C    1.170    35 H    0.975
    23   6 C    3.959 --    22 C    1.655    24 C    1.169    36 H    0.975
    24   6 C    3.925 --     2 C    1.364    25 N    1.214    23 C    1.169
    25   7 N    3.383 --    21 C    1.220    24 C    1.214     1 Fe   0.666
    26   1 H    1.000 --     2 C    0.971
    27   1 H    0.998 --     4 C    0.975
    28   1 H    0.998 --     5 C    0.975
    29   1 H    1.001 --     8 C    0.970
    30   1 H    0.997 --    10 C    0.975
    31   1 H    1.005 --    11 C    0.969
    32   1 H    1.005 --    16 C    0.969
    33   1 H    0.997 --    17 C    0.975
    34   1 H    1.001 --    20 C    0.970
    35   1 H    0.998 --    22 C    0.975
    36   1 H    0.998 --    23 C    0.975
    37  26 Fe   3.099 --    61 N    0.667    43 N    0.667    48 N    0.660
                            55 N    0.660
    38   6 C    3.922 --    60 C    1.364    39 C    1.364    62 H    0.971
    39   6 C    3.925 --    38 C    1.364    43 N    1.214    40 C    1.169
    40   6 C    3.959 --    41 C    1.655    39 C    1.169    63 H    0.975
    41   6 C    3.961 --    40 C    1.655    42 C    1.170    64 H    0.975
    42   6 C    3.921 --    44 C    1.354    43 N    1.219    41 C    1.170
    43   7 N    3.384 --    42 C    1.219    39 C    1.214    37 Fe   0.667
    44   6 C    3.927 --    45 C    1.377    42 C    1.354    65 H    0.970
    45   6 C    3.918 --    44 C    1.377    48 N    1.195    46 C    1.173
    46   6 C    3.956 --    47 C    1.645    45 C    1.173    66 H    0.975
    47   6 C    3.960 --    46 C    1.645    49 C    1.182    67 H    0.970
    48   7 N    3.382 --    49 C    1.249    45 C    1.195    37 Fe   0.660
    49   6 C    3.910 --    50 C    1.257    48 N    1.249    47 C    1.182
    50   6 C    3.924 --    51 C    1.257    49 C    1.257    78 C    1.188
    51   6 C    3.909 --    50 C    1.257    55 N    1.250    52 C    1.182
    52   6 C    3.960 --    53 C    1.645    51 C    1.182    68 H    0.970
    53   6 C    3.956 --    52 C    1.645    54 C    1.173    69 H    0.975
    54   6 C    3.918 --    56 C    1.377    55 N    1.195    53 C    1.173
    55   7 N    3.382 --    51 C    1.250    54 C    1.195    37 Fe   0.660
    56   6 C    3.927 --    54 C    1.377    57 C    1.354    70 H    0.970
    57   6 C    3.921 --    56 C    1.354    61 N    1.220    58 C    1.170
    58   6 C    3.961 --    59 C    1.655    57 C    1.170    71 H    0.975
    59   6 C    3.959 --    58 C    1.655    60 C    1.169    72 H    0.975
    60   6 C    3.925 --    38 C    1.364    61 N    1.214    59 C    1.169
    61   7 N    3.384 --    57 C    1.220    60 C    1.214    37 Fe   0.667
    62   1 H    1.000 --    38 C    0.971
    63   1 H    0.998 --    40 C    0.975
    64   1 H    0.998 --    41 C    0.975
    65   1 H    1.001 --    44 C    0.970
    66   1 H    0.997 --    46 C    0.975
    67   1 H    1.004 --    47 C    0.970
    68   1 H    1.004 --    52 C    0.970
    69   1 H    0.997 --    53 C    0.975
    70   1 H    1.001 --    56 C    0.970
    71   1 H    0.998 --    58 C    0.975
    72   1 H    0.998 --    59 C    0.975
    73   6 C    3.917 --    74 C    2.547    14 C    1.194
    74   6 C    3.924 --    73 C    2.547    80 C    1.198
    75   6 C    3.917 --    76 C    2.530    92 C    1.211
    76   6 C    3.917 --    75 C    2.530   115 C    1.211
    77   6 C    3.923 --    78 C    2.551   127 C    1.193
    78   6 C    3.916 --    77 C    2.551    50 C    1.188
    79  26 Fe   3.050 --    97 N    0.648    90 N    0.647   103 N    0.647
                            85 N    0.647
    80   6 C    3.904 --    81 C    1.250   102 C    1.250    74 C    1.198
    81   6 C    3.910 --    85 N    1.252    80 C    1.250    82 C    1.187
    82   6 C    3.960 --    83 C    1.638    81 C    1.187   104 H    0.969
    83   6 C    3.957 --    82 C    1.638    84 C    1.179   105 H    0.975
    84   6 C    3.917 --    86 C    1.360    85 N    1.202    83 C    1.179
    85   7 N    3.369 --    81 C    1.252    84 C    1.202    79 Fe   0.647
    86   6 C    3.916 --    87 C    1.369    84 C    1.360   106 H    0.970
    87   6 C    3.917 --    86 C    1.369    90 N    1.196    88 C    1.177
    88   6 C    3.957 --    89 C    1.639    87 C    1.177   107 H    0.975
    89   6 C    3.960 --    88 C    1.639    91 C    1.187   108 H    0.964
    90   7 N    3.367 --    91 C    1.258    87 C    1.196    79 Fe   0.647
    91   6 C    3.909 --    90 N    1.258    92 C    1.243    89 C    1.187
    92   6 C    3.904 --    93 C    1.243    91 C    1.243    75 C    1.211
    93   6 C    3.909 --    97 N    1.258    92 C    1.243    94 C    1.187
    94   6 C    3.960 --    95 C    1.639    93 C    1.187   109 H    0.964
    95   6 C    3.957 --    94 C    1.639    96 C    1.177   110 H    0.975
    96   6 C    3.917 --    98 C    1.369    97 N    1.196    95 C    1.177
    97   7 N    3.367 --    93 C    1.258    96 C    1.196    79 Fe   0.648
    98   6 C    3.916 --    96 C    1.369    99 C    1.360   111 H    0.970
    99   6 C    3.916 --    98 C    1.360   103 N    1.202   100 C    1.178
   100   6 C    3.957 --   101 C    1.638    99 C    1.178   112 H    0.975
   101   6 C    3.960 --   100 C    1.638   102 C    1.187   113 H    0.969
   102   6 C    3.910 --   103 N    1.252    80 C    1.250   101 C    1.187
   103   7 N    3.369 --   102 C    1.252    99 C    1.202    79 Fe   0.647
   104   1 H    1.005 --    82 C    0.969
   105   1 H    0.997 --    83 C    0.975
   106   1 H    1.001 --    86 C    0.970
   107   1 H    0.997 --    88 C    0.975
   108   1 H    1.007 --    89 C    0.964
   109   1 H    1.007 --    94 C    0.964
   110   1 H    0.997 --    95 C    0.975
   111   1 H    1.001 --    98 C    0.970
   112   1 H    0.997 --   100 C    0.975
   113   1 H    1.005 --   101 C    0.969
   114  26 Fe   3.052 --   120 N    0.649   138 N    0.648   125 N    0.648
                           132 N    0.647
   115   6 C    3.904 --   116 C    1.243   137 C    1.243    76 C    1.211
   116   6 C    3.909 --   120 N    1.258   115 C    1.243   117 C    1.187
   117   6 C    3.960 --   118 C    1.639   116 C    1.187   139 H    0.964
   118   6 C    3.957 --   117 C    1.639   119 C    1.177   140 H    0.975
   119   6 C    3.917 --   121 C    1.369   120 N    1.196   118 C    1.177
   120   7 N    3.367 --   116 C    1.258   119 C    1.196   114 Fe   0.649
   121   6 C    3.916 --   119 C    1.369   122 C    1.360   141 H    0.970
   122   6 C    3.916 --   121 C    1.360   125 N    1.203   123 C    1.178
   123   6 C    3.958 --   124 C    1.639   122 C    1.178   142 H    0.975
   124   6 C    3.960 --   123 C    1.639   126 C    1.186   143 H    0.970
   125   7 N    3.370 --   126 C    1.251   122 C    1.203   114 Fe   0.648
   126   6 C    3.911 --   127 C    1.253   125 N    1.251   124 C    1.186
   127   6 C    3.905 --   128 C    1.253   126 C    1.253    77 C    1.193
   128   6 C    3.911 --   127 C    1.253   132 N    1.251   129 C    1.186
   129   6 C    3.960 --   130 C    1.639   128 C    1.186   144 H    0.970
   130   6 C    3.958 --   129 C    1.639   131 C    1.178   145 H    0.975
   131   6 C    3.916 --   133 C    1.360   132 N    1.203   130 C    1.178
   132   7 N    3.370 --   128 C    1.251   131 C    1.203   114 Fe   0.647
   133   6 C    3.916 --   134 C    1.369   131 C    1.360   146 H    0.970
   134   6 C    3.917 --   133 C    1.369   138 N    1.196   135 C    1.177
   135   6 C    3.957 --   136 C    1.639   134 C    1.177   147 H    0.975
   136   6 C    3.960 --   135 C    1.639   137 C    1.187   148 H    0.964
   137   6 C    3.909 --   138 N    1.258   115 C    1.243   136 C    1.187
   138   7 N    3.367 --   137 C    1.258   134 C    1.196   114 Fe   0.648
   139   1 H    1.007 --   117 C    0.964
   140   1 H    0.997 --   118 C    0.975
   141   1 H    1.001 --   121 C    0.970
   142   1 H    0.997 --   123 C    0.975
   143   1 H    1.004 --   124 C    0.970
   144   1 H    1.004 --   129 C    0.970
   145   1 H    0.997 --   130 C    0.975
   146   1 H    1.001 --   133 C    0.970
   147   1 H    0.997 --   135 C    0.975
   148   1 H    1.007 --   136 C    0.964
 ---------------------------------------------------------------------------

           -------------------------------------------------
          | TOTAL ENERGY             -267.394877545610 Eh   |
          | GRADIENT NORM               0.000705669337 Eh/α |
          | HOMO-LUMO GAP               0.039749122146 eV   |
           -------------------------------------------------

 * finished run on 2022/07/29 at 15:55:40.050
