   * xtb version 6.5.1 (b24c23e) compiled by 'conda@728c89f4b128' on 2022-07-12
          program call               : xtb Fe_Ph2Me_C4_3.xyz --gfn 1 --opt -T 48

   ID    Z sym.   atoms
    1   26 Fe     1, 69, 145
    2    6 C      2-6, 8-11, 13-31, 34-41, 70-74, 76-79, 81-99, 102-109,
                  137-144, 146-150, 152-155, 157-175, 178-185
    3    7 N      7, 12, 32, 33, 75, 80, 100, 101, 151, 156, 176, 177
    4    1 H      42-68, 110-136, 186-211

          :  Hamiltonian                  GFN1-xTB          :
 * total energy  :  -334.8450527 Eh     change       -0.2150983E-07 Eh
 * total energy  :  -335.0425096 Eh     change       -0.1974568E+00 Eh
 * total energy  :  -335.0992810 Eh     change       -0.5677145E-01 Eh
 * total energy  :  -335.1418770 Eh     change       -0.4259602E-01 Eh
 * total energy  :  -335.1624538 Eh     change       -0.2057676E-01 Eh
 * total energy  :  -335.1840631 Eh     change       -0.2160929E-01 Eh
 * total energy  :  -335.2072971 Eh     change       -0.2323407E-01 Eh
 * total energy  :  -335.2350561 Eh     change       -0.2775899E-01 Eh
 * total energy  :  -335.2532992 Eh     change       -0.1824302E-01 Eh
 * total energy  :  -335.2758678 Eh     change       -0.2256864E-01 Eh
 * total energy  :  -335.5875135 Eh     change       -0.9306809E-05 Eh
 * total energy  :  -335.5875239 Eh     change       -0.1032607E-04 Eh
 * total energy  :  -335.5875354 Eh     change       -0.1152591E-04 Eh
 * total energy  :  -335.5875483 Eh     change       -0.1291461E-04 Eh
 * total energy  :  -335.5875633 Eh     change       -0.1502212E-04 Eh
 * total energy  :  -335.5875685 Eh     change       -0.5170100E-05 Eh
 * total energy  :  -335.5875671 Eh     change        0.1367386E-05 Eh
 * total energy  :  -335.5875813 Eh     change       -0.1418501E-04 Eh
 * total energy  :  -335.5875862 Eh     change       -0.4899048E-05 Eh
   *** GEOMETRY OPTIMIZATION CONVERGED AFTER 155 ITERATIONS ***

 final structure:
================
211
 xtb: 6.5.1 (b24c23e)
Fe          31.04962958599513        0.13229795471139       -0.48932707018368
C           27.84322518595004        0.39628364314867       -1.45694594438937
C           28.43007589343822        1.50731654760466       -0.88328712701193
C           27.73012621914972        2.72839325711749       -0.61941716143868
C           28.57814507652617        3.51856506559803        0.08156441537894
C           29.81635845920207        2.80288655052137        0.19257703456281
N           29.70066840651953        1.56347866884155       -0.37518617777802
C           30.98704998907455        3.33200460404448        0.72858029094590
C           32.20642527955089        2.67206325721650        0.64939251437732
C           33.46741008651503        3.28702758579240        0.94003858512812
C           34.42726605354149        2.39590284218585        0.59050520162901
N           32.40012626394444        1.40329289489943        0.16120004549502
C           33.74997198133373        1.22456007930192        0.12891965052291
C           34.40867803671852        0.02718480493389       -0.18747150848943
C           33.72421006690669       -1.17737267014321       -0.40745873937801
C           34.37455357076148       -2.44762789194703       -0.48992981734795
C           33.39500632838816       -3.38012446890461       -0.58206594005053
C           32.14957795603095       -2.67173188401045       -0.59897575189447
C           30.92354377718395       -3.26939749175347       -0.86004433218221
C           30.87091050377397       -4.74841902650864       -0.94276483877313
C           30.56381518355440       -5.38890843460725       -2.14043516694197
C           30.52348525644616       -6.77942169176419       -2.20763538653615
C           30.18596365443407       -7.45515760992446       -3.50924739766985
C           30.79073958037895       -7.52472967838249       -1.06560261843714
C           31.10536605817846       -6.89798516017868        0.13882200963103
C           31.39060645299928       -7.72465913687247        1.36338621235676
C           31.14760720648257       -5.51083109562959        0.19310414988982
C           29.77462399176148       -2.52963297349843       -1.12727203115793
C           28.53547998516073       -3.08898436562244       -1.58455569159723
C           27.70754632728031       -2.04882589333674       -1.84414756176587
C           28.41953229595906       -0.85853115731772       -1.48798185605858
N           29.68078432639548       -1.16696076390523       -1.05140660291144
N           32.37184676734612       -1.32201572562366       -0.47463600674944
C           30.96418208155282        4.68942774078633        1.32373863304498
C           30.64269699184345        5.80376954137328        0.54988898026322
C           30.62784368038806        7.07399974667518        1.11535824761497
C           30.30529938937889        8.27842653764191        0.27282805337765
C           30.93635496128293        7.22421451081577        2.46452339030774
C           31.26514880807248        6.12237737068948        3.24794822884620
C           31.58048840442314        6.29222240001919        4.70944941086654
C           31.28109159454906        4.85687537275195        2.67075345436387
H           26.82522956237723        0.49295706834958       -1.81806382854147
H           26.71105409962180        2.92569711930651       -0.91231461109467
H           28.39416719972394        4.50165764491731        0.48344611385995
H           33.59128496310846        4.28408445021557        1.33047023392831
H           35.49846307650501        2.50140487624326        0.65278459603294
H           35.44244145093822       -2.59358321946707       -0.46162150583479
H           33.49697679814712       -4.44996804070840       -0.66483671659202
H           30.37747376877318       -4.79946824708195       -3.03145379249727
H           30.32214472426819       -8.53400352036854       -3.43695115966544
H           29.14670631550757       -7.25450009705683       -3.77741734590067
H           30.81926692524927       -7.07449788301760       -4.31203038602572
H           30.75959280324428       -8.60852683357925       -1.11088934062504
H           31.72448035371303       -7.09733376552078        2.18960946949875
H           30.49031145083245       -8.25807720224506        1.67481691138941
H           32.16331461262969       -8.46532633520274        1.15109458808781
H           31.38380583590968       -5.00863892856678        1.12483139846931
H           28.33609301766268       -4.14233280619360       -1.69636192864158
H           26.69386791075063       -2.06917429837776       -2.21186153787428
H           30.42361606335400        5.67685590181995       -0.50458800287938
H           29.75151980616161        9.01828300108654        0.85149610401742
H           29.71446801077045        7.99713141736803       -0.59894004510843
H           31.22912765659917        8.74479023710194       -0.07704320406133
H           30.92377400995062        8.21394248672220        2.90940948043524
H           30.66962184956820        6.17664655286556        5.30134181617027
H           31.98988526155556        7.28321017354624        4.90625136907005
H           32.29744491864272        5.54094004465196        5.04130222240228
H           31.52779660671685        3.98840802922733        3.27163382394331
Fe          57.82663404732435        0.19642340954482       -0.19545282674479
C           61.14500031936401        0.73085435923005       -0.58195048211257
C           60.49025412060314        0.00591767538271       -1.55641319611162
C           61.14774293337444       -0.57239243039940       -2.68962200137561
C           60.23815066566672       -1.36595336315838       -3.30304779970127
C           59.01399996600389       -1.24421758513798       -2.56523390802672
N           59.17849413234185       -0.38893526651878       -1.50932390853473
C           57.84790120933274       -1.94232558771927       -2.86204211165642
C           56.65508046247079       -1.73727434319823       -2.18274000470498
C           55.41121922481254       -2.34561981789858       -2.55272497425346
C           54.44875811360289       -1.75894679125697       -1.80081385741300
N           56.45207515989099       -0.81468692995423       -1.18404856375882
C           55.10715690059723       -0.80755258665525       -0.96143662825232
C           54.43127853666382        0.04536681881907       -0.08136118982461
C           55.09546058349299        0.87575374130371        0.82684098121456
C           54.42177797968663        1.65566926695641        1.81776841976003
C           55.37906934462579        2.14788456037001        2.64113747472638
C           56.63767584925397        1.68544249391701        2.13667497723883
C           57.86377113488689        1.98024567183051        2.72040692102252
C           57.86623077791069        2.67511227363243        4.02942650272642
C           58.44091427948612        3.93557413353127        4.17155646508339
C           58.43750341667008        4.57871939296840        5.40694972344331
C           59.05770194331132        5.94350644650884        5.54031547864002
C           57.85543458614416        3.95009992964217        6.50102254960614
C           57.27258144277645        2.69037499223880        6.37389165269607
C           56.64928536095446        2.02714208091457        7.57234988325119
C           57.27845691636120        2.06017469706452        5.13655132769588
C           59.07562877207838        1.68368019763081        2.10670116066458
C           60.35938967405593        2.05194039373497        2.63063278751409
C           61.27202476083365        1.76075302316567        1.67315702647426
C           60.55223394328173        1.17250006652312        0.58440687014791
N           59.21560462038457        1.10572990243376        0.87235824085578
N           56.44776119747734        0.93607282955742        1.00235946776674
C           57.86233645667993       -2.91573462146552       -3.98184033348834
C           58.06580014207624       -2.48316696117732       -5.29139985331019
C           58.07631426560327       -3.39477245276231       -6.34143032822826
C           58.27264807833504       -2.92277506010567       -7.75683985972395
C           57.88158487008103       -4.74681701313239       -6.07315315115217
C           57.67436388404369       -5.19282299050819       -4.77167073589791
C           57.48417550844152       -6.65850110766357       -4.48836115709802
C           57.66428700796862       -4.27174713778846       -3.72910245788751
H           62.20599514656990        0.91245959672373       -0.71205618835139
H           62.18103870749129       -0.40432028181306       -2.94910299760686
H           60.37459725912790       -1.98660885492275       -4.17374982106460
H           55.29669427000069       -3.10419860229027       -3.30984917791485
H           53.38629525176692       -1.94243987028786       -1.80357996961754
H           53.35281205012942        1.78457665463513        1.87437933080906
H           55.25622557089283        2.78096657567688        3.50486052924494
H           58.87602532554563        4.42669644004040        3.30804496383646
H           59.02399949969639        6.28942120155723        6.57325894595134
H           60.09863828732765        5.92066657901149        5.21315145055562
H           58.52496062210487        6.66259625403634        4.91518679467678
H           57.85105804719437        4.44495509307851        7.46683268025238
H           56.17402420572143        1.08625924934754        7.29558878091384
H           57.41009616611467        1.82281468147768        8.32818160929054
H           55.89811528806771        2.68019460704947        8.01990879246318
H           56.83813632793365        1.07536934469849        5.02488985258424
H           60.52866627935276        2.48324571336837        3.60391111095385
H           62.34052998072501        1.90637335925300        1.69279470254884
H           58.19951377865825       -1.42535611570576       -5.48950051354406
H           58.82549693185103       -3.66131696869255       -8.33805869380604
H           58.81428790039386       -1.97707212479019       -7.78028926949643
H           57.30250060789636       -2.77201350457096       -8.23588433949565
H           57.88970451975527       -5.46126483112786       -6.88998036859992
H           58.44637622192607       -7.11880615349161       -4.25225508967149
H           57.06572988226279       -7.17100652513332       -5.35475220146090
H           56.82048831066528       -6.80551432723572       -3.63592390922027
H           57.51451245179415       -4.60761195417519       -2.70884134677118
C           37.03196283016173        0.00454606716446       -0.17547353401853
C           35.80732440522251        0.01082533444735       -0.17792218771841
C           38.37686758895615       -0.00136376070214       -0.16667103736468
C           39.60141541104986       -0.00749180710059       -0.14669891456356
C           50.45555676271594        0.00149444599584       -0.06996995924166
C           49.23289773292612       -0.00753828261239       -0.06907363490769
C           51.80466212551939        0.01249479789885       -0.07091402710056
C           53.02714866552114        0.02492123650323       -0.07278777262100
Fe          44.41468772903646       -0.00927949480774       -0.08719857249986
C           40.99996770077021       -0.00905587477056       -0.12544334201736
C           41.66928859202950        1.21278552640217        0.02903326948368
C           40.99465589232086        2.46011955054479        0.20404972009807
C           41.94963805336807        3.42200384107797        0.18876877016251
C           43.20247317717820        2.75586784683102       -0.00506649342095
N           43.01646197476370        1.39549391229284       -0.05687589634232
C           44.41266906683661        3.41368110233929       -0.18055987687145
C           45.62581815436467        2.74722557064384       -0.30915044267428
C           46.87878893557054        3.40370930059857       -0.53212960925184
C           47.83499160330042        2.44408995558231       -0.48924987800069
N           45.81186031993986        1.39323942433589       -0.18020942494323
C           47.16099036065497        1.20630453396438       -0.25420068571549
C           47.82914099347883       -0.00931787008945       -0.07032371737778
C           47.15994286608796       -1.22455510346141        0.11268802729817
C           47.83216449726544       -2.46131207750603        0.35798390042590
C           46.87521886291480       -3.42029081339499        0.40149619040545
C           45.62389912658076       -2.76469331631308        0.16667747571067
C           44.41182792216089       -3.43124392605622        0.02859273442008
C           44.40654660768191       -4.91183850389944        0.09745642471115
C           43.69168414749711       -5.56144826102685        1.10229645021880
C           43.68511342967965       -6.95043394600831        1.17925966638897
C           42.93423131397071       -7.64327760121256        2.28401155831594
C           44.39514411935228       -7.68810508480994        0.23751246493154
C           45.10890022383584       -7.05362962672793       -0.77595304839071
C           45.87961200228992       -7.86731417060465       -1.78008928153291
C           45.11482648928244       -5.66503332688178       -0.83856501046513
C           43.20471796467880       -2.77438414744293       -0.17075957958914
C           41.95630846784472       -3.44217598523812       -0.38638592071679
C           41.00255610580383       -2.48023644460723       -0.43532218319784
C           41.67317919865528       -1.23138552316080       -0.25566239127596
N           43.01788024923523       -1.41367958465495       -0.13422620306369
N           45.81131349021923       -1.41135159629311        0.03210656795138
C           44.40899140196783        4.89452225048638       -0.24182084649015
C           45.10746822257154        5.64253650475334        0.70416340643318
C           45.10305317977531        7.03269359127262        0.64783439955135
C           45.87069315453376        7.83177721859919        1.66592289887097
C           44.40025233052508        7.67158741202664       -0.36864202129210
C           43.69901536531822        6.93791694879507       -1.32185160435456
C           42.95948842326003        7.64131528191592       -2.42756565263785
C           43.70474217586031        5.54962093501104       -1.25189263416365
H           39.92855685498608        2.57070887674044        0.32048490506823
H           41.82688510096345        4.48683519418529        0.30136051786888
H           47.00138007019984        4.46085706505296       -0.70210608929025
H           48.90146314026138        2.54964284321931       -0.60639551815972
H           48.89800993625021       -2.56645179407329        0.48149283891139
H           46.99657926884088       -4.47656730601172        0.57795763626574
H           43.15075224315423       -4.97448365989241        1.83645532506426
H           42.61580038693827       -8.63850433152857        1.97341888430845
H           43.57858243286854       -7.75002098359512        3.15968955975190
H           42.05688358074342       -7.06656903929977        2.57769151005570
H           44.39052028959778       -8.77199841778896        0.29051280384493
H           46.12177095777278       -7.27283612065347       -2.66090182283049
H           45.30524547506693       -8.74083315555840       -2.09067643799699
H           46.81372656245963       -8.21822474579912       -1.33578903166262
H           45.65555111533211       -5.15870297916711       -1.63055940606788
H           41.83594872961515       -4.50812259788245       -0.49084594069357
H           39.93942123671575       -2.59149193404752       -0.57567647421774
H           45.64016375392968        5.13330376204300        1.49979472202865
H           45.45727349360386        8.83536722173124        1.76609688311823
H           46.91419813356886        7.92213395413577        1.35558101888497
H           45.84908766704938        7.34138415877412        2.63948527267429
H           44.39525391113956        8.75563711806356       -0.41792879061415
H           42.52256111128094        8.57371311957864       -2.06891444662012
H           42.16616724842119        7.01025987844733       -2.82826124898357
H           43.64828723204155        7.88108941016747       -3.24081100482418
H           43.17218939626876        4.96575177307023       -1.99458794966004

          :  Hamiltonian                  GFN1-xTB          :
         :: total energy            -335.587586206626 Eh    ::
         :: gradient norm              0.000539377640 Eh/a0 ::
         :: HOMO-LUMO gap              0.057713628654 eV    ::
         :: SCC energy              -341.067694674930 Eh    ::
         :: repulsion energy           5.663329974318 Eh    ::

    * Orbital Energies and Occupations

         #    Occupation            Energy/Eh            Energy/eV
      -------------------------------------------------------------
         1        2.0000           -0.7681448             -20.9023
       ...           ...                  ...                  ...
       302        2.0000           -0.3950719             -10.7505
       303        2.0000           -0.3919498             -10.6655
       304        1.9997           -0.3877915             -10.5523
       305        1.9947           -0.3851850             -10.4814
       306        1.9924           -0.3848433             -10.4721
       307        1.9741           -0.3836702             -10.4402
       308        1.9700           -0.3835275             -10.4363
       309        1.9665           -0.3834202             -10.4334
       310        1.9659           -0.3834031             -10.4329
       311        1.9511           -0.3830528             -10.4234
       312        1.9494           -0.3830198             -10.4225
       313        1.9463           -0.3829623             -10.4209
       314        1.3529           -0.3802520             -10.3472 (HOMO)
       315        0.3664           -0.3781311             -10.2895 (LUMO)
       316        0.3355           -0.3780297             -10.2867
       317        0.2351           -0.3776360             -10.2760
       318                         -0.3404307              -9.2636
       319                         -0.3293070              -8.9609
       320                         -0.3260831              -8.8732
       321                         -0.3259980              -8.8709
       322                         -0.3236789              -8.8077
       323                         -0.3224863              -8.7753
       324                         -0.3014177              -8.2020
       325                         -0.2980295              -8.1098
       ...                                ...                  ...
       699                          1.5141841              41.2030
      -------------------------------------------------------------
                  HL-Gap            0.0021209 Eh            0.0577 eV

Wiberg/Mayer (AO) data.
largest (>0.10) Wiberg bond orders for each atom

     #   Z sym  total        # sym  WBO       # sym  WBO       # sym  WBO
 ---------------------------------------------------------------------------
     1  26 Fe   3.197 --     7 N    0.666    32 N    0.666    33 N    0.661
                            12 N    0.660
     2   6 C    3.923 --    31 C    1.360     3 C    1.359    42 H    0.971
     3   6 C    3.926 --     2 C    1.359     7 N    1.212     4 C    1.174
     4   6 C    3.960 --     5 C    1.648     3 C    1.174    43 H    0.975
     5   6 C    3.963 --     4 C    1.648     6 C    1.176    44 H    0.972
     6   6 C    3.922 --     8 C    1.311     7 N    1.227     5 C    1.176
     7   7 N    3.379 --     6 C    1.227     3 C    1.212     1 Fe   0.666
     8   6 C    3.925 --     9 C    1.332     6 C    1.311    34 C    1.026
     9   6 C    3.918 --     8 C    1.332    12 N    1.201    10 C    1.180
    10   6 C    3.959 --    11 C    1.637     9 C    1.180    45 H    0.973
    11   6 C    3.961 --    10 C    1.637    13 C    1.189    46 H    0.974
    12   7 N    3.378 --    13 C    1.249     9 C    1.201     1 Fe   0.660
    13   6 C    3.906 --    12 N    1.249    14 C    1.243    11 C    1.189
    14   6 C    3.920 --    13 C    1.243    15 C    1.243   138 C    1.213
    15   6 C    3.906 --    33 N    1.250    14 C    1.243    16 C    1.189
    16   6 C    3.961 --    17 C    1.637    15 C    1.189    47 H    0.974
    17   6 C    3.959 --    16 C    1.637    18 C    1.180    48 H    0.973
    18   6 C    3.918 --    19 C    1.333    33 N    1.200    17 C    1.180
    19   6 C    3.925 --    18 C    1.333    28 C    1.309    20 C    1.026
    20   6 C    3.988 --    21 C    1.405    27 C    1.387    19 C    1.026
                            24 C    0.103
    21   6 C    3.986 --    22 C    1.407    20 C    1.405    49 H    0.972
                            25 C    0.104
    22   6 C    3.988 --    24 C    1.426    21 C    1.407    23 C    1.020
                            27 C    0.103
    23   6 C    3.995 --    22 C    1.020    50 H    0.986    52 H    0.977
                            51 H    0.974
    24   6 C    3.988 --    22 C    1.426    25 C    1.405    53 H    0.972
                            20 C    0.103
    25   6 C    3.988 --    27 C    1.427    24 C    1.405    26 C    1.020
                            21 C    0.104
    26   6 C    3.995 --    25 C    1.020    54 H    0.986    56 H    0.977
                            55 H    0.974
    27   6 C    3.986 --    25 C    1.427    20 C    1.387    57 H    0.972
                            22 C    0.103
    28   6 C    3.922 --    19 C    1.309    32 N    1.228    29 C    1.176
    29   6 C    3.963 --    30 C    1.648    28 C    1.176    58 H    0.972
    30   6 C    3.960 --    29 C    1.648    31 C    1.173    59 H    0.975
    31   6 C    3.926 --     2 C    1.360    32 N    1.210    30 C    1.173
    32   7 N    3.379 --    28 C    1.228    31 C    1.210     1 Fe   0.666
    33   7 N    3.379 --    15 C    1.250    18 C    1.200     1 Fe   0.661
    34   6 C    3.988 --    41 C    1.398    35 C    1.394     8 C    1.026
                            38 C    0.103
    35   6 C    3.986 --    36 C    1.418    34 C    1.394    60 H    0.971
                            39 C    0.103
    36   6 C    3.988 --    35 C    1.418    38 C    1.413    37 C    1.020
                            41 C    0.104
    37   6 C    3.995 --    36 C    1.020    62 H    0.984    61 H    0.981
                            63 H    0.971
    38   6 C    3.988 --    39 C    1.417    36 C    1.413    64 H    0.972
                            34 C    0.103
    39   6 C    3.988 --    38 C    1.417    41 C    1.416    40 C    1.020
                            35 C    0.103
    40   6 C    3.995 --    39 C    1.020    66 H    0.983    67 H    0.982
                            65 H    0.971
    41   6 C    3.986 --    39 C    1.416    34 C    1.398    68 H    0.972
                            36 C    0.104
    42   1 H    1.001 --     2 C    0.971
    43   1 H    0.998 --     4 C    0.975
    44   1 H    1.005 --     5 C    0.972
    45   1 H    1.004 --    10 C    0.973
    46   1 H    1.002 --    11 C    0.974
    47   1 H    1.002 --    16 C    0.974
    48   1 H    1.004 --    17 C    0.973
    49   1 H    1.002 --    21 C    0.972
    50   1 H    1.004 --    23 C    0.986
    51   1 H    1.005 --    23 C    0.974
    52   1 H    1.005 --    23 C    0.977
    53   1 H    1.000 --    24 C    0.972
    54   1 H    1.003 --    26 C    0.986
    55   1 H    1.005 --    26 C    0.974
    56   1 H    1.005 --    26 C    0.977
    57   1 H    1.002 --    27 C    0.972
    58   1 H    1.005 --    29 C    0.972
    59   1 H    0.998 --    30 C    0.975
    60   1 H    1.003 --    35 C    0.971
    61   1 H    1.004 --    37 C    0.981
    62   1 H    1.004 --    37 C    0.984
    63   1 H    1.006 --    37 C    0.971
    64   1 H    1.000 --    38 C    0.972
    65   1 H    1.006 --    40 C    0.971
    66   1 H    1.004 --    40 C    0.983
    67   1 H    1.004 --    40 C    0.982
    68   1 H    1.002 --    41 C    0.972
    69  26 Fe   3.127 --    75 N    0.670   100 N    0.667   101 N    0.666
                            80 N    0.663
    70   6 C    3.920 --    71 C    1.366    99 C    1.358   110 H    0.971
    71   6 C    3.925 --    70 C    1.366    75 N    1.206    72 C    1.172
    72   6 C    3.958 --    73 C    1.650    71 C    1.172   111 H    0.975
    73   6 C    3.962 --    72 C    1.650    74 C    1.176   112 H    0.972
    74   6 C    3.919 --    76 C    1.314    75 N    1.224    73 C    1.176
    75   7 N    3.381 --    74 C    1.224    71 C    1.206    69 Fe   0.670
    76   6 C    3.924 --    77 C    1.335    74 C    1.314   102 C    1.022
    77   6 C    3.917 --    76 C    1.335    80 N    1.198    78 C    1.179
    78   6 C    3.958 --    79 C    1.640    77 C    1.179   113 H    0.973
    79   6 C    3.961 --    78 C    1.640    81 C    1.188   114 H    0.974
    80   7 N    3.381 --    81 C    1.243    77 C    1.198    69 Fe   0.663
    81   6 C    3.907 --    82 C    1.255    80 N    1.243    79 C    1.188
    82   6 C    3.923 --    83 C    1.262    81 C    1.255   144 C    1.187
    83   6 C    3.907 --    82 C    1.262   101 N    1.235    84 C    1.187
    84   6 C    3.960 --    85 C    1.638    83 C    1.187   115 H    0.974
    85   6 C    3.958 --    84 C    1.638    86 C    1.181   116 H    0.973
    86   6 C    3.917 --    87 C    1.325   101 N    1.205    85 C    1.181
    87   6 C    3.924 --    86 C    1.325    96 C    1.319    88 C    1.028
    88   6 C    3.988 --    89 C    1.405    95 C    1.385    87 C    1.028
                            92 C    0.102
    89   6 C    3.986 --    90 C    1.407    88 C    1.405   117 H    0.972
                            93 C    0.104
    90   6 C    3.988 --    92 C    1.426    89 C    1.407    91 C    1.020
                            95 C    0.103
    91   6 C    3.996 --    90 C    1.020   118 H    0.986   119 H    0.976
                           120 H    0.975
    92   6 C    3.988 --    90 C    1.426    93 C    1.404   121 H    0.972
                            88 C    0.102
    93   6 C    3.988 --    95 C    1.428    92 C    1.404    94 C    1.020
                            89 C    0.104
    94   6 C    3.995 --    93 C    1.020   122 H    0.986   124 H    0.976
                           123 H    0.974
    95   6 C    3.984 --    93 C    1.428    88 C    1.385   125 H    0.971
                            90 C    0.103
    96   6 C    3.921 --    87 C    1.319   100 N    1.218    97 C    1.175
    97   6 C    3.961 --    98 C    1.648    96 C    1.175   126 H    0.972
    98   6 C    3.958 --    97 C    1.648    99 C    1.174   127 H    0.975
    99   6 C    3.925 --    70 C    1.358   100 N    1.213    98 C    1.174
   100   7 N    3.380 --    96 C    1.218    99 C    1.213    69 Fe   0.667
   101   7 N    3.382 --    83 C    1.235    86 C    1.205    69 Fe   0.666
   102   6 C    3.988 --   109 C    1.400   103 C    1.396    76 C    1.022
                           106 C    0.103
   103   6 C    3.986 --   104 C    1.418   102 C    1.396   128 H    0.972
                           107 C    0.103
   104   6 C    3.988 --   103 C    1.418   106 C    1.414   105 C    1.020
                           109 C    0.104
   105   6 C    3.995 --   104 C    1.020   130 H    0.984   129 H    0.982
                           131 H    0.971
   106   6 C    3.989 --   107 C    1.418   104 C    1.414   132 H    0.972
                           102 C    0.103
   107   6 C    3.988 --   106 C    1.418   109 C    1.415   108 C    1.020
                           103 C    0.103
   108   6 C    3.995 --   107 C    1.020   134 H    0.983   135 H    0.982
                           133 H    0.971
   109   6 C    3.986 --   107 C    1.415   102 C    1.400   136 H    0.972
                           104 C    0.104
   110   1 H    1.001 --    70 C    0.971
   111   1 H    0.998 --    72 C    0.975
   112   1 H    1.005 --    73 C    0.972
   113   1 H    1.005 --    78 C    0.973
   114   1 H    1.002 --    79 C    0.974
   115   1 H    1.002 --    84 C    0.974
   116   1 H    1.005 --    85 C    0.973
   117   1 H    1.003 --    89 C    0.972
   118   1 H    1.004 --    91 C    0.986
   119   1 H    1.005 --    91 C    0.976
   120   1 H    1.005 --    91 C    0.975
   121   1 H    1.000 --    92 C    0.972
   122   1 H    1.003 --    94 C    0.986
   123   1 H    1.005 --    94 C    0.974
   124   1 H    1.005 --    94 C    0.976
   125   1 H    1.003 --    95 C    0.971
   126   1 H    1.005 --    97 C    0.972
   127   1 H    0.998 --    98 C    0.975
   128   1 H    1.002 --   103 C    0.972
   129   1 H    1.004 --   105 C    0.982
   130   1 H    1.004 --   105 C    0.984
   131   1 H    1.006 --   105 C    0.971
   132   1 H    1.000 --   106 C    0.972
   133   1 H    1.006 --   108 C    0.971
   134   1 H    1.004 --   108 C    0.983
   135   1 H    1.004 --   108 C    0.982
   136   1 H    1.002 --   109 C    0.972
   137   6 C    3.920 --   138 C    2.437   139 C    1.334
   138   6 C    3.917 --   137 C    2.437    14 C    1.213   140 C    0.195
   139   6 C    3.919 --   140 C    2.437   137 C    1.334
   140   6 C    3.912 --   139 C    2.437   146 C    1.213   138 C    0.195
   141   6 C    3.920 --   142 C    2.463   143 C    1.311
   142   6 C    3.912 --   141 C    2.463   158 C    1.191   144 C    0.194
   143   6 C    3.925 --   144 C    2.466   141 C    1.311
   144   6 C    3.910 --   143 C    2.466    82 C    1.187   142 C    0.194
   145  26 Fe   3.056 --   156 N    0.649   177 N    0.649   176 N    0.648
                           151 N    0.648
   146   6 C    3.903 --   175 C    1.244   147 C    1.243   140 C    1.213
   147   6 C    3.905 --   151 N    1.250   146 C    1.243   148 C    1.191
   148   6 C    3.959 --   149 C    1.633   147 C    1.191   186 H    0.974
   149   6 C    3.958 --   148 C    1.633   150 C    1.183   187 H    0.973
   150   6 C    3.916 --   152 C    1.326   151 N    1.202   149 C    1.183
   151   7 N    3.366 --   147 C    1.250   150 C    1.202   145 Fe   0.648
   152   6 C    3.912 --   150 C    1.326   153 C    1.318   178 C    1.028
   153   6 C    3.914 --   152 C    1.318   156 N    1.209   154 C    1.184
   154   6 C    3.959 --   155 C    1.634   153 C    1.184   188 H    0.973
   155   6 C    3.959 --   154 C    1.634   157 C    1.191   189 H    0.973
   156   7 N    3.368 --   157 C    1.242   153 C    1.209   145 Fe   0.649
   157   6 C    3.908 --   158 C    1.255   156 N    1.242   155 C    1.191
   158   6 C    3.905 --   157 C    1.255   159 C    1.255   142 C    1.191
   159   6 C    3.908 --   158 C    1.255   177 N    1.242   160 C    1.191
   160   6 C    3.959 --   161 C    1.634   159 C    1.191   190 H    0.973
   161   6 C    3.959 --   160 C    1.634   162 C    1.184   191 H    0.973
   162   6 C    3.915 --   163 C    1.318   177 N    1.209   161 C    1.184
   163   6 C    3.912 --   172 C    1.326   162 C    1.318   164 C    1.027
   164   6 C    3.988 --   165 C    1.398   171 C    1.392   163 C    1.027
                           168 C    0.103
   165   6 C    3.986 --   166 C    1.414   164 C    1.398   192 H    0.972
                           169 C    0.103
   166   6 C    3.988 --   168 C    1.418   165 C    1.414   167 C    1.020
                           171 C    0.103
   167   6 C    3.995 --   166 C    1.020   193 H    0.983   195 H    0.982
                           194 H    0.971
   168   6 C    3.988 --   166 C    1.418   169 C    1.411   196 H    0.972
                           164 C    0.103
   169   6 C    3.988 --   171 C    1.420   168 C    1.411   170 C    1.020
                           165 C    0.103
   170   6 C    3.995 --   169 C    1.020   197 H    0.985   198 H    0.980
                           199 H    0.972
   171   6 C    3.986 --   169 C    1.420   164 C    1.392   200 H    0.971
                           166 C    0.103
   172   6 C    3.916 --   163 C    1.326   176 N    1.202   173 C    1.183
   173   6 C    3.958 --   174 C    1.634   172 C    1.183   201 H    0.973
   174   6 C    3.959 --   173 C    1.634   175 C    1.191   202 H    0.974
   175   6 C    3.906 --   176 N    1.250   146 C    1.244   174 C    1.191
   176   7 N    3.366 --   175 C    1.250   172 C    1.202   145 Fe   0.648
   177   7 N    3.368 --   159 C    1.242   162 C    1.209   145 Fe   0.649
   178   6 C    3.988 --   179 C    1.398   185 C    1.392   152 C    1.028
                           182 C    0.102
   179   6 C    3.986 --   180 C    1.414   178 C    1.398   203 H    0.972
                           183 C    0.104
   180   6 C    3.988 --   182 C    1.418   179 C    1.414   181 C    1.020
                           185 C    0.103
   181   6 C    3.995 --   180 C    1.020   204 H    0.984   206 H    0.982
                           205 H    0.971
   182   6 C    3.988 --   180 C    1.418   183 C    1.412   207 H    0.972
                           178 C    0.102
   183   6 C    3.988 --   185 C    1.420   182 C    1.412   184 C    1.020
                           179 C    0.104
   184   6 C    3.995 --   183 C    1.020   209 H    0.984   208 H    0.981
                           210 H    0.971
   185   6 C    3.986 --   183 C    1.420   178 C    1.392   211 H    0.972
                           180 C    0.103
   186   1 H    1.002 --   148 C    0.974
   187   1 H    1.005 --   149 C    0.973
   188   1 H    1.005 --   154 C    0.973
   189   1 H    1.002 --   155 C    0.973
   190   1 H    1.002 --   160 C    0.973
   191   1 H    1.005 --   161 C    0.973
   192   1 H    1.003 --   165 C    0.972
   193   1 H    1.004 --   167 C    0.983
   194   1 H    1.006 --   167 C    0.971
   195   1 H    1.004 --   167 C    0.982
   196   1 H    1.000 --   168 C    0.972
   197   1 H    1.004 --   170 C    0.985
   198   1 H    1.005 --   170 C    0.980
   199   1 H    1.006 --   170 C    0.972
   200   1 H    1.003 --   171 C    0.971
   201   1 H    1.005 --   173 C    0.973
   202   1 H    1.002 --   174 C    0.974
   203   1 H    1.002 --   179 C    0.972
   204   1 H    1.004 --   181 C    0.984
   205   1 H    1.006 --   181 C    0.971
   206   1 H    1.004 --   181 C    0.982
   207   1 H    1.000 --   182 C    0.972
   208   1 H    1.004 --   184 C    0.981
   209   1 H    1.004 --   184 C    0.984
   210   1 H    1.006 --   184 C    0.971
   211   1 H    1.003 --   185 C    0.972
 ---------------------------------------------------------------------------

           -------------------------------------------------
          | TOTAL ENERGY             -335.587586206626 Eh   |
          | GRADIENT NORM               0.000539377640 Eh/α |
          | HOMO-LUMO GAP               0.057713628654 eV   |
           -------------------------------------------------

 * finished run on 2022/07/29 at 18:21:28.240
