   * xtb version 6.5.1 (b24c23e) compiled by 'conda@728c89f4b128' on 2022-07-12
          program call               : xtb Co_p-CP_C6_2.xyz --gfn 1 --opt -T 48

   ID    Z sym.   atoms
    1   27 Co     1, 63
    2    6 C      2-6, 8-11, 13-24, 27-32, 35-39, 42, 43, 64-68, 70-73,
                  75-86, 89-94, 97-101, 104, 105, 125-130
    3    7 N      7, 12, 33, 34, 69, 74, 95, 96
    4    8 O      25, 26, 40, 41, 87, 88, 102, 103
    5    1 H      44-62, 106-124
########################################################################
[WARNING] Please study the warnings concerning your input carefully
-1- prog_main_parseArguments: Unknown option '-T' provided
########################################################################

          :  Hamiltonian                  GFN1-xTB          :
 * total energy  :  -246.5823256 Eh     change       -0.8469101E-09 Eh
 * total energy  :  -246.8468370 Eh     change       -0.2645114E+00 Eh
 * total energy  :  -246.9260102 Eh     change       -0.7917316E-01 Eh
 * total energy  :  -246.9603448 Eh     change       -0.3433464E-01 Eh
 * total energy  :  -246.9731348 Eh     change       -0.1279002E-01 Eh
 * total energy  :  -246.9795401 Eh     change       -0.6405310E-02 Eh
 * total energy  :  -246.9827649 Eh     change       -0.3224780E-02 Eh
 * total energy  :  -246.9845082 Eh     change       -0.1743315E-02 Eh
 * total energy  :  -246.9855206 Eh     change       -0.1012312E-02 Eh
 * total energy  :  -246.9861415 Eh     change       -0.6209554E-03 Eh
 * total energy  :  -246.9885231 Eh     change       -0.1601750E-04 Eh
 * total energy  :  -246.9885393 Eh     change       -0.1622436E-04 Eh
 * total energy  :  -246.9885521 Eh     change       -0.1277402E-04 Eh
 * total energy  :  -246.9885667 Eh     change       -0.1468234E-04 Eh
 * total energy  :  -246.9885777 Eh     change       -0.1097097E-04 Eh
 * total energy  :  -246.9885925 Eh     change       -0.1475661E-04 Eh
 * total energy  :  -246.9886028 Eh     change       -0.1034704E-04 Eh
 * total energy  :  -246.9886110 Eh     change       -0.8228963E-05 Eh
 * total energy  :  -246.9886135 Eh     change       -0.2434013E-05 Eh
   *** GEOMETRY OPTIMIZATION CONVERGED AFTER 38 ITERATIONS ***

 final structure:
================
130
 xtb: 6.5.1 (b24c23e)
Co          16.46678704150519       -0.10591176787922        0.01861311594164
C           13.09223031198204       -0.17417567762847        0.05294361680159
C           13.76577683833965       -0.45288384107867        1.22251834162277
C           13.11388017677134       -0.77239398156109        2.45609920912422
C           14.07188802667098       -0.77398033771227        3.41192124161154
C           15.31067480524635       -0.46607529571718        2.75872143242601
N           15.11767195659190       -0.30967566409781        1.40993329295286
C           16.49734198606302       -0.19848253385957        3.42797320240698
C           17.67328172311476        0.09520335514075        2.75534837370868
C           18.92746687146010        0.32847885753431        3.40657216950052
C           19.87325371179621        0.34890064535205        2.43771958130067
N           17.84699236509911        0.02191733940705        1.39129806655866
C           19.19565118453375        0.12893606399687        1.19944597093221
C           19.86102406522495       -0.06833769615532       -0.01307863251860
C           19.17118140713000       -0.24414148049980       -1.21475306652741
C           19.81992012528678       -0.46416552699379       -2.46811506246873
C           18.85749211118067       -0.40061268244965       -3.41951037506756
C           17.62421051204634       -0.13625547101537       -2.74180244934704
C           16.42505354438193        0.13165975837842       -3.38582898924391
C           16.40997656627946        0.22360762872781       -4.86284994526195
C           15.61547045912875       -0.64309151713325       -5.61835266524316
C           15.60719233371878       -0.55752338871648       -6.99829002535897
C           16.38892230607969        0.39907330532365       -7.64874524876069
C           16.34359028763371        0.45369178726942       -9.12983558093845
O           17.13554529737281        1.39970200037093       -9.65650836013346
O           15.66928683764898       -0.27090804195237       -9.81658258404605
C           17.18247466268781        1.26789979499539       -6.89903080607459
C           17.19344740323368        1.17706483751920       -5.51820105424950
C           15.23805264111364        0.30064242782482       -2.68591197643398
C           13.97763109141088        0.60224770645323       -3.29961266979196
C           13.03738655320549        0.50083256129003       -2.33139734055901
C           13.72623704596777        0.15570179034530       -1.12517892293301
N           15.08066243289857        0.09619846761752       -1.33863180146115
N           17.82223519443567       -0.09814781288077       -1.38101399113797
C           16.51275880015660       -0.23792818875596        4.90932505372496
C           16.29778117245882       -1.44048471139030        5.58648314459529
C           16.32092767348704       -1.47499716943260        6.96878912403729
C           16.55567202963048       -0.30784330985014        7.69790208723091
C           16.56957849705179       -0.39547381511325        9.17800563967255
O           16.81295168571698        0.77698562722777        9.78274004803242
O           16.38516281990748       -1.40998333112483        9.80080558630928
C           16.76853427904501        0.89575128259806        7.02521280181579
C           16.74855858450699        0.92766098431589        5.64166873607426
H           12.00910122035774       -0.20383170821816        0.06366551296546
H           12.05493899379560       -0.94773625227626        2.55941852313196
H           13.96006968032817       -0.94656517892422        4.46995000481073
H           19.05975190669212        0.43420223888896        4.47085977815428
H           20.93816682347424        0.48366039870391        2.53718313935626
H           20.87759062972202       -0.63507585690837       -2.58773686407489
H           18.96126635693407       -0.52337562134193       -4.48523955431496
H           15.01835433656078       -1.39568632597812       -5.11610872714225
H           14.99736555136678       -1.23057545578353       -7.59098661314700
H           17.04930419739429        1.37002828608398      -10.62320946524820
H           17.78844055060976        2.01383764135659       -7.39955077660091
H           17.80099883355735        1.85983384871052       -4.93495295269250
H           13.84389989830551        0.85353159148969       -4.33924209591537
H           11.97063821525200        0.63897648808123       -2.40718798116489
H           16.12890605979521       -2.35003139785197        5.02144383301190
H           16.15991630990648       -2.40560834949707        7.50188005072143
H           16.80562829759231        0.63512411723795       10.74319593435765
H           16.94866638291829        1.80443675224053        7.58731842385790
H           16.90334450076012        1.86439826819873        5.11832226803079
Co          32.42518928155027       -0.10353681528189       -0.03059600036581
C           35.79978563235365       -0.16724287648538       -0.07218437451313
C           35.12639172389678       -0.30893230251379       -1.26622595477638
C           35.77844285118717       -0.48380387221688       -2.52838218633694
C           34.82054182646343       -0.37498191207227       -3.47809530420765
C           33.58167117431315       -0.14457437965769       -2.79383291636809
N           33.77456060574843       -0.14465854503760       -1.43600826556626
C           32.39503779438169        0.19848867470991       -3.42783037056730
C           31.21914655701378        0.41303813802792       -2.72584540927377
C           29.96512296352539        0.72048980599799       -3.34583409508778
C           29.01926707765591        0.62941609908204       -2.38113455056949
N           31.04533110491338        0.18321179810792       -1.37929515127245
C           29.69665406787066        0.26775306456392       -1.17648521926966
C           29.03100874715802       -0.06778471590960        0.00511482287898
C           29.72053191021220       -0.38114838138698        1.17866739201419
C           29.07152823889773       -0.74374947213343        2.39830480911148
C           30.03387505271284       -0.79069746061998        3.35074166480722
C           31.26737461743512       -0.45068787416602        2.70804976292158
C           32.46662532927931       -0.25927725666132        3.37864643310647
C           32.48193264137421       -0.33858991563678        4.85638875839418
C           33.27665783372349       -1.28678930343670        5.50643235840734
C           33.28534185935746       -1.36129453699783        6.88700018196376
C           32.50379155156352       -0.48631701726445        7.64388527086250
C           32.54968837294251       -0.60319287486658        9.12134501743815
O           31.75726656254908        0.27503045813374        9.75408574778416
O           33.22435250035488       -1.40215049224919        9.71952431173890
C           31.71000322149104        0.46330211296127        6.99984299597981
C           31.69865961606765        0.53271556462614        5.61776847516516
C           33.65366209456278       -0.01088812966676        2.70287473029463
C           34.91403553469596        0.21792313693332        3.34736625054608
C           35.85438407568515        0.22857999786740        2.37402253444369
C           35.16563208631495        0.02472021787501        1.13601963997772
N           33.81114261121325       -0.05852177799535        1.34101130577894
N           31.06948026127538       -0.25566134130736        1.36076960384095
C           32.37967160935148        0.32977528001502       -4.90387419974186
C           32.59523778796371       -0.78682358756406       -5.71485765837732
C           32.57243874933816       -0.66207967642895       -7.09196748172428
C           32.33684727631894        0.58102578067691       -7.68200320124590
C           32.32155698043714        0.66394925019258       -9.16228419713981
O           32.07850241158976        1.89822675191490       -9.62824677505643
O           32.50874401179649       -0.27171847446916       -9.89776707951844
C           32.12352735937257        1.69917674063690       -6.87535880195722
C           32.14347227316429        1.57176432999206       -5.49731919254812
H           36.88291076562481       -0.19570451854564       -0.08606530087615
H           36.83741328499967       -0.64596389716572       -2.65115568278358
H           34.93252111414857       -0.42408189354906       -4.54896629253708
H           29.83295493883569        0.94843969827297       -4.39079640100603
H           27.95444387197210        0.77539691410423       -2.46437009600657
H           28.01373240156006       -0.92660043156604        2.49742705414681
H           29.92989835763053       -1.03529612368478        4.39524091753302
H           33.87364753667572       -1.97624869089214        4.92038338918367
H           33.89543215900299       -2.09825024985740        7.39776227413320
H           31.84370683235509        0.13363776055428       10.71083409714709
H           31.10420732184599        1.14638890686918        7.58340331434708
H           31.09099662490073        1.27836338815927        5.11753842741977
H           35.04765250618092        0.34792986618662        4.40901237874494
H           36.92112572197502        0.35702819386345        2.46533573618953
H           32.76433335841637       -1.75527997795211       -5.25817279754306
H           32.73353858746887       -1.52517757984249       -7.72854517379369
H           32.08694849508075        1.86792734125347      -10.59872430287151
H           31.94291985939906        2.66638703834284       -7.32922932665674
H           31.98840590647523        2.44205867512101       -4.86972807872983
C           25.06039940813258       -0.09082217593788        0.00054279693529
C           23.83164555344208       -0.09054792853183       -0.01072313613416
C           22.48808627477407       -0.08821572532071       -0.01618281092509
C           21.26393333913577       -0.08043910168037       -0.02170475346502
C           26.40394663702893       -0.08770706031148        0.00644308052274
C           27.62811113913931       -0.08091210082362        0.01210427812053

          :  Hamiltonian                  GFN1-xTB          :
         :: total energy            -246.988613478104 Eh    ::
         :: gradient norm              0.000739517861 Eh/a0 ::
         :: HOMO-LUMO gap              0.008113613350 eV    ::
         :: SCC energy              -250.625685773692 Eh    ::
         :: repulsion energy           3.750672249914 Eh    ::

    * Orbital Energies and Occupations

         #    Occupation            Energy/Eh            Energy/eV
      -------------------------------------------------------------
         1        2.0000           -0.8338853             -22.6912
       ...           ...                  ...                  ...
       208        2.0000           -0.4326194             -11.7722
       209        2.0000           -0.4261369             -11.5958
       210        2.0000           -0.4069042             -11.0724
       211        2.0000           -0.4068812             -11.0718
       212        2.0000           -0.4061866             -11.0529
       213        2.0000           -0.4058510             -11.0438
       214        2.0000           -0.4054002             -11.0315
       215        1.9998           -0.4024242             -10.9505
       216        1.9998           -0.4024143             -10.9502
       217        1.9998           -0.4023034             -10.9472
       218        1.9998           -0.4022959             -10.9470
       219        1.9062           -0.3965326             -10.7902
       220        1.1255           -0.3939110             -10.7189 (HOMO)
       221        0.9692           -0.3936128             -10.7107 (LUMO)
       222                         -0.3485253              -9.4839
       223                         -0.3396674              -9.2428
       224                         -0.3396354              -9.2419
       225                         -0.3373929              -9.1809
       226                         -0.3169755              -8.6253
       227                         -0.3155365              -8.5862
       228                         -0.3101803              -8.4404
       229                         -0.3101425              -8.4394
       230                         -0.3052411              -8.3060
       231                         -0.3047093              -8.2916
       ...                                ...                  ...
       454                          1.5676007              42.6566
      -------------------------------------------------------------
                  HL-Gap            0.0002982 Eh            0.0081 eV

Wiberg/Mayer (AO) data.
largest (>0.10) Wiberg bond orders for each atom

     #   Z sym  total        # sym  WBO       # sym  WBO       # sym  WBO
 ---------------------------------------------------------------------------
     1  27 Co   3.045 --    33 N    0.640     7 N    0.638    12 N    0.635
                            34 N    0.633
     2   6 C    3.930 --    32 C    1.365     3 C    1.365    44 H    0.970
     3   6 C    3.923 --     2 C    1.365     7 N    1.201     4 C    1.173
     4   6 C    3.960 --     5 C    1.651     3 C    1.173    45 H    0.975
     5   6 C    3.963 --     4 C    1.651     6 C    1.176    46 H    0.972
     6   6 C    3.919 --     8 C    1.319     7 N    1.213     5 C    1.176
     7   7 N    3.348 --     6 C    1.213     3 C    1.201     1 Co   0.638
     8   6 C    3.933 --     9 C    1.334     6 C    1.319    35 C    1.025
     9   6 C    3.915 --     8 C    1.334    12 N    1.192    10 C    1.180
    10   6 C    3.958 --    11 C    1.640     9 C    1.180    47 H    0.972
    11   6 C    3.962 --    10 C    1.640    13 C    1.189    48 H    0.973
    12   7 N    3.348 --    13 C    1.232     9 C    1.192     1 Co   0.635
    13   6 C    3.902 --    14 C    1.259    12 N    1.232    11 C    1.189
    14   6 C    3.935 --    15 C    1.260    13 C    1.259   128 C    1.191
    15   6 C    3.903 --    14 C    1.260    34 N    1.229    16 C    1.190
    16   6 C    3.961 --    17 C    1.636    15 C    1.190    49 H    0.973
    17   6 C    3.958 --    16 C    1.636    18 C    1.182    50 H    0.973
    18   6 C    3.916 --    19 C    1.327    34 N    1.196    17 C    1.182
    19   6 C    3.933 --    18 C    1.327    29 C    1.319    20 C    1.033
    20   6 C    3.986 --    28 C    1.385    21 C    1.384    19 C    1.033
    21   6 C    3.987 --    22 C    1.464    20 C    1.384    51 H    0.972
                            27 C    0.103
    22   6 C    3.990 --    21 C    1.464    23 C    1.385    52 H    0.968
                            28 C    0.103
    23   6 C    3.982 --    27 C    1.389    22 C    1.385    24 C    1.009
    24   6 C    3.836 --    26 O    1.690    25 O    1.088    23 C    1.009
    25   8 O    2.097 --    24 C    1.088    53 H    0.838    26 O    0.129
    26   8 O    1.958 --    24 C    1.690    25 O    0.129
    27   6 C    3.991 --    28 C    1.462    23 C    1.389    54 H    0.970
                            21 C    0.103
    28   6 C    3.987 --    27 C    1.462    20 C    1.385    55 H    0.972
                            22 C    0.103
    29   6 C    3.920 --    19 C    1.319    33 N    1.212    30 C    1.175
    30   6 C    3.963 --    31 C    1.650    29 C    1.175    56 H    0.973
    31   6 C    3.960 --    30 C    1.650    32 C    1.174    57 H    0.975
    32   6 C    3.923 --     2 C    1.365    33 N    1.201    31 C    1.174
    33   7 N    3.346 --    29 C    1.212    32 C    1.201     1 Co   0.640
    34   7 N    3.349 --    15 C    1.229    18 C    1.196     1 Co   0.633
    35   6 C    3.986 --    43 C    1.388    36 C    1.387     8 C    1.025
    36   6 C    3.987 --    37 C    1.463    35 C    1.387    58 H    0.972
                            42 C    0.103
    37   6 C    3.990 --    36 C    1.463    38 C    1.386    59 H    0.968
                            43 C    0.103
    38   6 C    3.984 --    42 C    1.389    37 C    1.386    39 C    1.009
    39   6 C    3.836 --    41 O    1.690    40 O    1.088    38 C    1.009
    40   8 O    2.097 --    39 C    1.088    60 H    0.838    41 O    0.129
    41   8 O    1.959 --    39 C    1.690    40 O    0.129
    42   6 C    3.991 --    43 C    1.461    38 C    1.389    61 H    0.970
                            36 C    0.103
    43   6 C    3.988 --    42 C    1.461    35 C    1.388    62 H    0.972
                            37 C    0.103
    44   1 H    1.000 --     2 C    0.970
    45   1 H    0.997 --     4 C    0.975
    46   1 H    1.004 --     5 C    0.972
    47   1 H    1.004 --    10 C    0.972
    48   1 H    1.001 --    11 C    0.973
    49   1 H    1.001 --    16 C    0.973
    50   1 H    1.003 --    17 C    0.973
    51   1 H    1.004 --    21 C    0.972
    52   1 H    1.005 --    22 C    0.968
    53   1 H    0.873 --    25 O    0.838
    54   1 H    1.005 --    27 C    0.970
    55   1 H    1.004 --    28 C    0.972
    56   1 H    1.003 --    30 C    0.973
    57   1 H    0.997 --    31 C    0.975
    58   1 H    1.003 --    36 C    0.972
    59   1 H    1.005 --    37 C    0.968
    60   1 H    0.873 --    40 O    0.838
    61   1 H    1.005 --    42 C    0.970
    62   1 H    1.003 --    43 C    0.972
    63  27 Co   3.046 --    95 N    0.640    69 N    0.638    74 N    0.635
                            96 N    0.633
    64   6 C    3.930 --    94 C    1.365    65 C    1.365   106 H    0.970
    65   6 C    3.923 --    64 C    1.365    69 N    1.201    66 C    1.173
    66   6 C    3.960 --    67 C    1.651    65 C    1.173   107 H    0.975
    67   6 C    3.963 --    66 C    1.651    68 C    1.176   108 H    0.972
    68   6 C    3.919 --    70 C    1.319    69 N    1.213    67 C    1.176
    69   7 N    3.348 --    68 C    1.213    65 C    1.201    63 Co   0.638
    70   6 C    3.933 --    71 C    1.334    68 C    1.319    97 C    1.025
    71   6 C    3.916 --    70 C    1.334    74 N    1.192    72 C    1.180
    72   6 C    3.958 --    73 C    1.640    71 C    1.180   109 H    0.972
    73   6 C    3.962 --    72 C    1.640    75 C    1.189   110 H    0.973
    74   7 N    3.348 --    75 C    1.232    71 C    1.192    63 Co   0.635
    75   6 C    3.902 --    76 C    1.259    74 N    1.232    73 C    1.189
    76   6 C    3.935 --    77 C    1.260    75 C    1.259   130 C    1.191
    77   6 C    3.903 --    76 C    1.260    96 N    1.229    78 C    1.190
    78   6 C    3.961 --    79 C    1.636    77 C    1.190   111 H    0.973
    79   6 C    3.958 --    78 C    1.636    80 C    1.182   112 H    0.973
    80   6 C    3.916 --    81 C    1.327    96 N    1.196    79 C    1.182
    81   6 C    3.933 --    80 C    1.327    91 C    1.319    82 C    1.033
    82   6 C    3.987 --    90 C    1.385    83 C    1.384    81 C    1.033
    83   6 C    3.987 --    84 C    1.464    82 C    1.384   113 H    0.972
                            89 C    0.103
    84   6 C    3.990 --    83 C    1.464    85 C    1.385   114 H    0.968
                            90 C    0.103
    85   6 C    3.982 --    89 C    1.389    84 C    1.385    86 C    1.009
    86   6 C    3.836 --    88 O    1.690    87 O    1.088    85 C    1.009
    87   8 O    2.097 --    86 C    1.088   115 H    0.838    88 O    0.129
    88   8 O    1.958 --    86 C    1.690    87 O    0.129
    89   6 C    3.991 --    90 C    1.462    85 C    1.389   116 H    0.970
                            83 C    0.103
    90   6 C    3.987 --    89 C    1.462    82 C    1.385   117 H    0.972
                            84 C    0.103
    91   6 C    3.920 --    81 C    1.319    95 N    1.212    92 C    1.175
    92   6 C    3.963 --    93 C    1.650    91 C    1.175   118 H    0.973
    93   6 C    3.960 --    92 C    1.650    94 C    1.174   119 H    0.975
    94   6 C    3.923 --    64 C    1.365    95 N    1.201    93 C    1.174
    95   7 N    3.346 --    91 C    1.212    94 C    1.201    63 Co   0.640
    96   7 N    3.349 --    77 C    1.229    80 C    1.196    63 Co   0.633
    97   6 C    3.986 --   105 C    1.388    98 C    1.387    70 C    1.025
    98   6 C    3.987 --    99 C    1.463    97 C    1.387   120 H    0.972
                           104 C    0.103
    99   6 C    3.990 --    98 C    1.463   100 C    1.386   121 H    0.968
                           105 C    0.103
   100   6 C    3.984 --   104 C    1.389    99 C    1.386   101 C    1.009
   101   6 C    3.836 --   103 O    1.690   102 O    1.088   100 C    1.009
   102   8 O    2.097 --   101 C    1.088   122 H    0.838   103 O    0.129
   103   8 O    1.958 --   101 C    1.690   102 O    0.129
   104   6 C    3.991 --   105 C    1.461   100 C    1.389   123 H    0.970
                            98 C    0.103
   105   6 C    3.988 --   104 C    1.461    97 C    1.388   124 H    0.972
                            99 C    0.103
   106   1 H    1.000 --    64 C    0.970
   107   1 H    0.997 --    66 C    0.975
   108   1 H    1.004 --    67 C    0.972
   109   1 H    1.004 --    72 C    0.972
   110   1 H    1.001 --    73 C    0.973
   111   1 H    1.001 --    78 C    0.973
   112   1 H    1.003 --    79 C    0.973
   113   1 H    1.004 --    83 C    0.972
   114   1 H    1.005 --    84 C    0.968
   115   1 H    0.873 --    87 O    0.838
   116   1 H    1.005 --    89 C    0.970
   117   1 H    1.004 --    90 C    0.972
   118   1 H    1.003 --    92 C    0.973
   119   1 H    0.997 --    93 C    0.975
   120   1 H    1.003 --    98 C    0.972
   121   1 H    1.005 --    99 C    0.968
   122   1 H    0.873 --   102 O    0.838
   123   1 H    1.005 --   104 C    0.970
   124   1 H    1.003 --   105 C    0.972
   125   6 C    3.921 --   126 C    2.361   129 C    1.339   128 C    0.189
   126   6 C    3.921 --   125 C    2.361   127 C    1.339   130 C    0.189
   127   6 C    3.931 --   128 C    2.443   126 C    1.339
   128   6 C    3.885 --   127 C    2.443    14 C    1.191   125 C    0.189
   129   6 C    3.931 --   130 C    2.443   125 C    1.339
   130   6 C    3.885 --   129 C    2.443    76 C    1.191   126 C    0.189
 ---------------------------------------------------------------------------

           -------------------------------------------------
          | TOTAL ENERGY             -246.988613478104 Eh   |
          | GRADIENT NORM               0.000739517861 Eh/α |
          | HOMO-LUMO GAP               0.008113613350 eV   |
           -------------------------------------------------

 * finished run on 2022/07/30 at 03:37:12.987
