   * xtb version 6.5.1 (b24c23e) compiled by 'conda@728c89f4b128' on 2022-07-12
          program call               : xtb Cu_PhNO2_C4_2.xyz --gfn 1 --opt -T 48

   ID    Z sym.   atoms
    1   29 Cu     1, 61
    2    6 C      2-6, 8-12, 16-20, 22-27, 29-33, 37-42, 62-66, 68-72, 76-80,
                  82-87, 89-93, 97-102, 121-124
    3    7 N      7, 13, 21, 28, 34, 43, 67, 73, 81, 88, 94, 103
    4    8 O      14, 15, 35, 36, 74, 75, 95, 96
    5    1 H      44-60, 104-120
########################################################################
[WARNING] Please study the warnings concerning your input carefully
-1- prog_main_parseArguments: Unknown option '-T' provided
########################################################################

          :  Hamiltonian                  GFN1-xTB          :
 * total energy  :  -245.8132347 Eh     change       -0.6706671E-09 Eh
 * total energy  :  -246.2504681 Eh     change       -0.4372334E+00 Eh
 * total energy  :  -246.3767876 Eh     change       -0.1263196E+00 Eh
 * total energy  :  -246.4101601 Eh     change       -0.3337248E-01 Eh
 * total energy  :  -246.4240379 Eh     change       -0.1387774E-01 Eh
 * total energy  :  -246.4300972 Eh     change       -0.6059306E-02 Eh
 * total energy  :  -246.4329484 Eh     change       -0.2851183E-02 Eh
 * total energy  :  -246.4351103 Eh     change       -0.2161921E-02 Eh
 * total energy  :  -246.4365919 Eh     change       -0.1481628E-02 Eh
 * total energy  :  -246.4376654 Eh     change       -0.1073535E-02 Eh
 * total energy  :  -246.4422749 Eh     change       -0.2569167E-04 Eh
 * total energy  :  -246.4423015 Eh     change       -0.2655626E-04 Eh
 * total energy  :  -246.4423183 Eh     change       -0.1682639E-04 Eh
 * total energy  :  -246.4423270 Eh     change       -0.8680046E-05 Eh
 * total energy  :  -246.4423383 Eh     change       -0.1133551E-04 Eh
 * total energy  :  -246.4423509 Eh     change       -0.1261215E-04 Eh
 * total energy  :  -246.4423541 Eh     change       -0.3144452E-05 Eh
 * total energy  :  -246.4423593 Eh     change       -0.5188847E-05 Eh
 * total energy  :  -246.4423619 Eh     change       -0.2588029E-05 Eh
   *** GEOMETRY OPTIMIZATION CONVERGED AFTER 39 ITERATIONS ***

 final structure:
================
124
 xtb: 6.5.1 (b24c23e)
Cu          15.93136472170264       -0.05010096857516       -0.01246148673697
C           12.52803953572813       -0.05603461134962       -0.15346161968383
C           13.16120759369869       -1.27825508417962       -0.32001060558905
C           12.48408305751163       -2.53048492375314       -0.50222568296422
C           13.44127511129955       -3.48177854578671       -0.63050726971275
C           14.71328419114074       -2.81605218364131       -0.54034799907787
N           14.51192248013847       -1.48132598041750       -0.34196989521421
C           15.95894589137035       -3.44482479605517       -0.61884528339369
C           15.97044190490921       -4.90287198636286       -0.88365493907333
C           16.53289269300403       -5.78639098847583        0.04272689700982
C           16.54252465988696       -7.14784997292083       -0.19986919894224
C           15.98881679287713       -7.63078270493476       -1.38222597964966
N           15.99772865137161       -9.05905856980977       -1.64301319572908
O           15.50040457044174       -9.44147963070836       -2.67120183635268
O           16.50124217197219       -9.77417405002383       -0.81489621002942
C           15.42591268088799       -6.76825959362533       -2.31874596374987
C           15.41726816551667       -5.40911398547456       -2.06401759109668
C           17.19353757487501       -2.80741433023138       -0.47184325727615
C           18.47170215968866       -3.44451940525632       -0.62109034644547
C           19.41674277152379       -2.49171068417675       -0.41999874051792
N           17.38029384536456       -1.47937988650892       -0.19644169976219
C           18.72411891008231       -1.26640785228973       -0.15537909498916
C           19.35872276446975       -0.04035294268521        0.11011871737515
C           18.70006768735181        1.18052921521516        0.33794709675451
C           19.36504984465132        2.40835813799620        0.65638087830225
C           18.40250265057538        3.35498498920664        0.79421155648358
C           17.14207357834347        2.71197211492628        0.54964101359123
N           17.35557759385200        1.38581505082450        0.28478795238878
C           15.89684892038926        3.34329356424031        0.60132551451401
C           15.87894385030345        4.80095192864679        0.86853943354398
C           15.23188334678589        5.30100931983652        2.00288090983297
C           15.20823145187918        6.65995879436122        2.25774908667397
C           15.83286023417543        7.52843111019625        1.36700067659993
N           15.80610976393197        8.95676984428672        1.62650598480447
O           15.23566445343988        9.33285482440320        2.61844310202515
O           16.35554846059608        9.67815460437294        0.83383598988168
C           16.48133374915876        7.05158253989618        0.23125115352441
C           16.50378903154656        5.69019353180808       -0.01113326107688
C           14.66417014331574        2.70994105754674        0.42025964012480
C           13.38675946487028        3.37120648511374        0.40620075903280
C           12.44697156640647        2.41732524397297        0.19508876233666
C           13.14125613505063        1.16783210359514        0.06689535372752
N           14.48473972511032        1.37516860309064        0.20216781684195
H           11.44396202367025       -0.05762204450791       -0.19928442898355
H           11.41267948138145       -2.65275744689038       -0.51720427790699
H           13.30475332658893       -4.54316984202421       -0.76096461504727
H           16.94924473955955       -5.39918130677678        0.96537598359632
H           16.97054224527419       -7.84062976948152        0.51465850471546
H           15.00506998558849       -7.16883132045413       -3.23313378900814
H           14.99345431330928       -4.72615635059301       -2.79104319228773
H           18.62384770897196       -4.48344082793964       -0.86471049319229
H           20.48914459950058       -2.59824858219049       -0.45303431451017
H           20.43171470733327        2.52032118678102        0.76709680065129
H           18.53072016102628        4.39356212918549        1.05274981404879
H           14.75894895932343        4.61357755490851        2.69450149414036
H           14.71399980323307        7.05601625522501        3.13668533471555
H           16.95646922210784        7.74887840235397       -0.44821803441849
H           16.99417899599663        5.30776107856070       -0.89873195428156
H           13.23608329438180        4.43167939342718        0.52825361746846
H           11.37767362676141        2.53619970538562        0.12060148662866
Cu          29.39282191350938        0.05165745319902        0.00792985422914
C           32.79622151611442        0.10986215821250       -0.11953588864451
C           32.16299929118335        1.30569495049631        0.18292087236153
C           32.84007378107805        2.53528496035770        0.48205345725991
C           31.88285022276558        3.46535227338399        0.71938936493452
C           30.61086449237215        2.81402278945002        0.55460149141578
N           30.81228638216692        1.50208455842174        0.23896965205281
C           29.36519631254396        3.42615416495658        0.71827264994546
C           29.35374346995469        4.87723261942016        1.01904921573534
C           28.79303507807717        5.34931255091774        2.20978073656156
C           28.78347451339936        6.70255324870561        2.49473647291090
C           29.33555434478919        7.59328493303217        1.57845629909108
N           29.32678029754693        9.01529244209922        1.87159417175235
O           29.82434723866250        9.75492061914045        1.06159824585602
O           28.82258419084387        9.36827425974480        2.90691788000444
C           29.89672480705113        7.14445416855752        0.38618426095818
C           29.90527433916743        5.78883245656016        0.11333247332355
C           28.13063171364877        2.77995065245474        0.61634688051381
C           26.85245115819064        3.42636885930172        0.71790802499553
C           25.90743095726135        2.46772713777991        0.54660601803761
N           27.94388923326977        1.44569250959891        0.37295794197075
C           26.60006257018111        1.23282297562178        0.33134082337110
C           25.96533583017507       -0.00311262941810        0.11654081761777
C           26.62392808496732       -1.22025717499979       -0.13081040227059
C           25.95886795904951       -2.47761129220810       -0.29791732930651
C           26.92149919850202       -3.40687937626255       -0.52468317716412
C           28.18204259543067       -2.71936071223538       -0.50808852588141
N           27.96850213113840       -1.39076894944942       -0.25575961824607
C           29.42737070501292       -3.32424690401684       -0.69534125156592
C           29.44510224629726       -4.77566201357091       -0.99486370531394
C           30.08862952207107       -5.66566586652071       -0.12935182352782
C           30.11188133193323       -7.02089362322552       -0.40348857985896
C           29.49048087990505       -7.49064744678203       -1.55716796618354
N           29.51681923585257       -8.91191871301168       -1.85298363965068
O           30.08596315554500       -9.63333026546674       -1.07433845746553
O           28.96872493882704       -9.28238471631320       -2.85948263679798
C           28.84550517936926       -6.62157252590995       -2.43269353871015
C           28.82336162571075       -5.26881434240841       -2.14605291002239
C           30.66012961155152       -2.66960072282861       -0.62406731299415
C           31.93768682153098       -3.27784765489120       -0.88314038542440
C           32.87748910763446       -2.31443285396319       -0.72105549196653
C           32.18306666975268       -1.10760437831972       -0.37310839326510
N           30.83951745993135       -1.35028441399642       -0.32641001071004
H           33.88030807354793        0.12844168989984       -0.16116913432073
H           33.91147401274904        2.65446897293627        0.51334848343107
H           32.01934511041410        4.49852183072559        0.99532632975461
H           28.37796087964346        4.64465082452936        2.92092443990322
H           28.35684641390996        7.07719766326661        3.41740741143611
H           30.31632037161220        7.85843113196714       -0.31227255558825
H           30.32771747075931        5.42794915051182       -0.81721392428122
H           26.70031942835890        4.48068948517903        0.88260203376146
H           24.83500900954668        2.57869401435229        0.55640716086467
H           24.89210012100267       -2.62276697179609       -0.23874138189803
H           26.79328415548368       -4.46646960242807       -0.67556527466417
H           30.55908489129667       -5.28874081048855        0.77128652770904
H           30.60327852608476       -7.71854278506272        0.26393394786815
H           28.37283716997870       -7.01218148499531       -3.32581264215262
H           28.33562838262757       -4.58052268951107       -2.82644446390497
H           32.08837582525011       -4.30703965321495       -1.16644773779399
H           33.94689082657663       -2.39696494558008       -0.83353489169734
C           21.98686761102408       -0.03519665091944        0.15432907007329
C           20.76522629744515       -0.03425010621060        0.14224691263914
C           23.33719725602278       -0.02783152608611        0.15487188614065
C           24.55882630749686       -0.02055030395782        0.14379016814695

          :  Hamiltonian                  GFN1-xTB          :
         :: total energy            -246.442361866331 Eh    ::
         :: gradient norm              0.000440833974 Eh/a0 ::
         :: HOMO-LUMO gap              0.002269241141 eV    ::
         :: SCC energy              -249.767358658598 Eh    ::
         :: repulsion energy           3.436492829395 Eh    ::

    * Orbital Energies and Occupations

         #    Occupation            Energy/Eh            Energy/eV
      -------------------------------------------------------------
         1        2.0000           -0.9224198             -25.1003
       ...           ...                  ...                  ...
       206        2.0000           -0.4346430             -11.8272
       207        2.0000           -0.4346323             -11.8269
       208        2.0000           -0.4315199             -11.7423
       209        2.0000           -0.4315152             -11.7421
       210        2.0000           -0.4314810             -11.7412
       211        2.0000           -0.4314069             -11.7392
       212        2.0000           -0.4313957             -11.7389
       213        2.0000           -0.4313916             -11.7388
       214        2.0000           -0.4197156             -11.4210
       215        2.0000           -0.4197107             -11.4209
       216        2.0000           -0.4184641             -11.3870
       217        2.0000           -0.4058756             -11.0444
       218        1.0219           -0.3793098             -10.3215 (HOMO)
       219        0.9781           -0.3792264             -10.3193 (LUMO)
       220                         -0.3619693              -9.8497
       221                         -0.3583330              -9.7507
       222                         -0.3583098              -9.7501
       223                         -0.3493102              -9.5052
       224                         -0.3492380              -9.5032
       225                         -0.3475171              -9.4564
       226                         -0.3428082              -9.3283
       227                         -0.3427920              -9.3278
       228                         -0.3195352              -8.6950
       229                         -0.3120613              -8.4916
       ...                                ...                  ...
       438                          1.4960281              40.7090
      -------------------------------------------------------------
                  HL-Gap            0.0000834 Eh            0.0023 eV

Wiberg/Mayer (AO) data.
largest (>0.10) Wiberg bond orders for each atom

     #   Z sym  total        # sym  WBO       # sym  WBO       # sym  WBO
 ---------------------------------------------------------------------------
     1  29 Cu   2.176 --    43 N    0.503     7 N    0.503    21 N    0.500
                            28 N    0.499
     2   6 C    3.931 --    42 C    1.362     3 C    1.362    44 H    0.971
     3   6 C    3.914 --     2 C    1.362     7 N    1.228     4 C    1.169
     4   6 C    3.955 --     5 C    1.658     3 C    1.169    45 H    0.975
     5   6 C    3.958 --     4 C    1.658     6 C    1.170    46 H    0.973
     6   6 C    3.914 --     8 C    1.316     7 N    1.242     5 C    1.170
     7   7 N    3.243 --     6 C    1.242     3 C    1.228     1 Cu   0.503
     8   6 C    3.931 --    18 C    1.322     6 C    1.316     9 C    1.034
     9   6 C    3.984 --    10 C    1.383    17 C    1.383     8 C    1.034
    10   6 C    3.987 --    11 C    1.464     9 C    1.383    47 H    0.971
                            16 C    0.101
    11   6 C    3.987 --    10 C    1.464    12 C    1.387    48 H    0.965
                            17 C    0.101
    12   6 C    3.941 --    11 C    1.387    16 C    1.386    13 N    0.921
    13   7 N    3.865 --    15 O    1.454    14 O    1.454    12 C    0.921
    14   8 O    1.828 --    13 N    1.454    15 O    0.251
    15   8 O    1.828 --    13 N    1.454    14 O    0.251
    16   6 C    3.987 --    17 C    1.464    12 C    1.386    49 H    0.965
                            10 C    0.101
    17   6 C    3.986 --    16 C    1.464     9 C    1.383    50 H    0.971
                            11 C    0.101
    18   6 C    3.908 --     8 C    1.322    21 N    1.226    19 C    1.178
    19   6 C    3.954 --    20 C    1.644    18 C    1.178    51 H    0.973
    20   6 C    3.956 --    19 C    1.644    22 C    1.186    52 H    0.974
    21   7 N    3.247 --    22 C    1.255    18 C    1.226     1 Cu   0.500
    22   6 C    3.896 --    23 C    1.261    21 N    1.255    20 C    1.186
    23   6 C    3.940 --    22 C    1.261    24 C    1.261   122 C    1.184
    24   6 C    3.896 --    23 C    1.261    28 N    1.256    25 C    1.186
    25   6 C    3.956 --    26 C    1.644    24 C    1.186    53 H    0.974
    26   6 C    3.954 --    25 C    1.644    27 C    1.178    54 H    0.973
    27   6 C    3.908 --    29 C    1.322    28 N    1.225    26 C    1.178
    28   7 N    3.247 --    24 C    1.256    27 C    1.225     1 Cu   0.499
    29   6 C    3.931 --    27 C    1.322    39 C    1.316    30 C    1.034
    30   6 C    3.984 --    38 C    1.383    31 C    1.383    29 C    1.034
    31   6 C    3.986 --    32 C    1.464    30 C    1.383    55 H    0.971
                            37 C    0.101
    32   6 C    3.987 --    31 C    1.464    33 C    1.386    56 H    0.965
                            38 C    0.101
    33   6 C    3.941 --    37 C    1.387    32 C    1.386    34 N    0.921
    34   7 N    3.865 --    36 O    1.454    35 O    1.454    33 C    0.921
    35   8 O    1.828 --    34 N    1.454    36 O    0.251
    36   8 O    1.828 --    34 N    1.454    35 O    0.251
    37   6 C    3.987 --    38 C    1.464    33 C    1.387    57 H    0.965
                            31 C    0.101
    38   6 C    3.987 --    37 C    1.464    30 C    1.383    58 H    0.971
                            32 C    0.101
    39   6 C    3.914 --    29 C    1.316    43 N    1.242    40 C    1.170
    40   6 C    3.958 --    41 C    1.658    39 C    1.170    59 H    0.973
    41   6 C    3.955 --    40 C    1.658    42 C    1.169    60 H    0.975
    42   6 C    3.914 --     2 C    1.362    43 N    1.228    41 C    1.169
    43   7 N    3.243 --    39 C    1.242    42 C    1.228     1 Cu   0.503
    44   1 H    1.001 --     2 C    0.971
    45   1 H    0.997 --     4 C    0.975
    46   1 H    1.003 --     5 C    0.973
    47   1 H    1.003 --    10 C    0.971
    48   1 H    1.006 --    11 C    0.965
    49   1 H    1.006 --    16 C    0.965
    50   1 H    1.003 --    17 C    0.971
    51   1 H    1.003 --    19 C    0.973
    52   1 H    1.002 --    20 C    0.974
    53   1 H    1.002 --    25 C    0.974
    54   1 H    1.003 --    26 C    0.973
    55   1 H    1.003 --    31 C    0.971
    56   1 H    1.006 --    32 C    0.965
    57   1 H    1.006 --    37 C    0.965
    58   1 H    1.003 --    38 C    0.971
    59   1 H    1.003 --    40 C    0.973
    60   1 H    0.997 --    41 C    0.975
    61  29 Cu   2.176 --   103 N    0.503    67 N    0.503    81 N    0.500
                            88 N    0.499
    62   6 C    3.931 --    63 C    1.362   102 C    1.362   104 H    0.971
    63   6 C    3.914 --    62 C    1.362    67 N    1.229    64 C    1.169
    64   6 C    3.955 --    65 C    1.658    63 C    1.169   105 H    0.975
    65   6 C    3.958 --    64 C    1.658    66 C    1.170   106 H    0.973
    66   6 C    3.914 --    68 C    1.317    67 N    1.242    65 C    1.170
    67   7 N    3.243 --    66 C    1.242    63 C    1.229    61 Cu   0.503
    68   6 C    3.931 --    78 C    1.322    66 C    1.317    69 C    1.034
    69   6 C    3.984 --    70 C    1.383    77 C    1.383    68 C    1.034
    70   6 C    3.987 --    71 C    1.464    69 C    1.383   107 H    0.971
                            76 C    0.101
    71   6 C    3.987 --    70 C    1.464    72 C    1.387   108 H    0.965
                            77 C    0.101
    72   6 C    3.941 --    71 C    1.387    76 C    1.386    73 N    0.921
    73   7 N    3.865 --    75 O    1.454    74 O    1.454    72 C    0.921
    74   8 O    1.828 --    73 N    1.454    75 O    0.251
    75   8 O    1.828 --    73 N    1.454    74 O    0.251
    76   6 C    3.987 --    77 C    1.464    72 C    1.386   109 H    0.965
                            70 C    0.101
    77   6 C    3.986 --    76 C    1.464    69 C    1.383   110 H    0.971
                            71 C    0.101
    78   6 C    3.908 --    68 C    1.322    81 N    1.226    79 C    1.178
    79   6 C    3.954 --    80 C    1.644    78 C    1.178   111 H    0.973
    80   6 C    3.956 --    79 C    1.644    82 C    1.186   112 H    0.974
    81   7 N    3.247 --    82 C    1.255    78 C    1.226    61 Cu   0.500
    82   6 C    3.896 --    83 C    1.261    81 N    1.255    80 C    1.186
    83   6 C    3.940 --    82 C    1.261    84 C    1.261   124 C    1.185
    84   6 C    3.896 --    83 C    1.261    88 N    1.256    85 C    1.186
    85   6 C    3.956 --    86 C    1.644    84 C    1.186   113 H    0.974
    86   6 C    3.954 --    85 C    1.644    87 C    1.178   114 H    0.973
    87   6 C    3.908 --    89 C    1.322    88 N    1.225    86 C    1.178
    88   7 N    3.247 --    84 C    1.256    87 C    1.225    61 Cu   0.499
    89   6 C    3.931 --    87 C    1.322    99 C    1.316    90 C    1.033
    90   6 C    3.984 --    98 C    1.384    91 C    1.383    89 C    1.033
    91   6 C    3.986 --    92 C    1.464    90 C    1.383   115 H    0.971
                            97 C    0.101
    92   6 C    3.987 --    91 C    1.464    93 C    1.387   116 H    0.965
                            98 C    0.101
    93   6 C    3.941 --    97 C    1.387    92 C    1.387    94 N    0.921
    94   7 N    3.865 --    96 O    1.454    95 O    1.454    93 C    0.921
    95   8 O    1.828 --    94 N    1.454    96 O    0.251
    96   8 O    1.828 --    94 N    1.454    95 O    0.251
    97   6 C    3.987 --    98 C    1.464    93 C    1.387   117 H    0.965
                            91 C    0.101
    98   6 C    3.987 --    97 C    1.464    90 C    1.384   118 H    0.971
                            92 C    0.101
    99   6 C    3.914 --    89 C    1.316   103 N    1.242   100 C    1.170
   100   6 C    3.958 --   101 C    1.658    99 C    1.170   119 H    0.973
   101   6 C    3.955 --   100 C    1.658   102 C    1.169   120 H    0.975
   102   6 C    3.914 --    62 C    1.362   103 N    1.228   101 C    1.169
   103   7 N    3.243 --    99 C    1.242   102 C    1.228    61 Cu   0.503
   104   1 H    1.001 --    62 C    0.971
   105   1 H    0.997 --    64 C    0.975
   106   1 H    1.003 --    65 C    0.973
   107   1 H    1.003 --    70 C    0.971
   108   1 H    1.006 --    71 C    0.965
   109   1 H    1.006 --    76 C    0.965
   110   1 H    1.003 --    77 C    0.971
   111   1 H    1.003 --    79 C    0.973
   112   1 H    1.002 --    80 C    0.974
   113   1 H    1.002 --    85 C    0.974
   114   1 H    1.003 --    86 C    0.973
   115   1 H    1.003 --    91 C    0.971
   116   1 H    1.006 --    92 C    0.965
   117   1 H    1.006 --    97 C    0.965
   118   1 H    1.003 --    98 C    0.971
   119   1 H    1.003 --   100 C    0.973
   120   1 H    0.997 --   101 C    0.975
   121   6 C    3.937 --   122 C    2.482   123 C    1.305
   122   6 C    3.927 --   121 C    2.482    23 C    1.184   124 C    0.200
   123   6 C    3.937 --   124 C    2.482   121 C    1.305
   124   6 C    3.927 --   123 C    2.482    83 C    1.185   122 C    0.200
 ---------------------------------------------------------------------------

           -------------------------------------------------
          | TOTAL ENERGY             -246.442361866331 Eh   |
          | GRADIENT NORM               0.000440833974 Eh/α |
          | HOMO-LUMO GAP               0.002269241141 eV   |
           -------------------------------------------------

 * finished run on 2022/07/30 at 08:04:25.564
