   * xtb version 6.5.1 (b24c23e) compiled by 'conda@728c89f4b128' on 2022-07-12
          program call               : xtb Fe_PhCN_C4_3.xyz --gfn 1 --opt -T 48

   ID    Z sym.   atoms
    1   26 Fe     1, 59, 125
    2    6 C      2-6, 8-13, 15-19, 21-26, 28-33, 35-40, 60-64, 66-71, 73-77,
                  79-84, 86-91, 93-98, 117-124, 126-130, 132-137, 139-143,
                  145-150, 152-157, 159-164
    3    7 N      7, 14, 20, 27, 34, 41, 65, 72, 78, 85, 92, 99, 131, 138,
                  144, 151, 158, 165
    4    1 H      42-58, 100-116, 166-181

          :  Hamiltonian                  GFN1-xTB          :
 * total energy  :  -324.8113882 Eh     change        0.4593403E-08 Eh
 * total energy  :  -325.1018552 Eh     change       -0.2904669E+00 Eh
 * total energy  :  -325.2154443 Eh     change       -0.1135891E+00 Eh
 * total energy  :  -325.2901227 Eh     change       -0.7467839E-01 Eh
 * total energy  :  -325.3513112 Eh     change       -0.6118849E-01 Eh
 * total energy  :  -325.3845076 Eh     change       -0.3319647E-01 Eh
 * total energy  :  -325.4063874 Eh     change       -0.2187979E-01 Eh
 * total energy  :  -325.4212219 Eh     change       -0.1483449E-01 Eh
 * total energy  :  -325.4340192 Eh     change       -0.1279729E-01 Eh
 * total energy  :  -325.4448051 Eh     change       -0.1078593E-01 Eh
 * total energy  :  -325.5229125 Eh     change       -0.1022067E-04 Eh
 * total energy  :  -325.5229293 Eh     change       -0.1687168E-04 Eh
 * total energy  :  -325.5229436 Eh     change       -0.1425635E-04 Eh
 * total energy  :  -325.5229498 Eh     change       -0.6147565E-05 Eh
 * total energy  :  -325.5229571 Eh     change       -0.7326516E-05 Eh
 * total energy  :  -325.5229590 Eh     change       -0.1902126E-05 Eh
 * total energy  :  -325.5229643 Eh     change       -0.5312503E-05 Eh
 * total energy  :  -325.5229702 Eh     change       -0.5957408E-05 Eh
 * total energy  :  -325.5229741 Eh     change       -0.3897837E-05 Eh
   *** GEOMETRY OPTIMIZATION CONVERGED AFTER 59 ITERATIONS ***

 final structure:
================
181
 xtb: 6.5.1 (b24c23e)
Fe          33.80052183960364        0.03479105367943        0.03918875297330
C           30.41418215896230        0.04471234959296        0.16275240820026
C           31.06447429474741        1.26048963155106        0.21513360715308
C           30.38884345605582        2.52076853750427        0.28783652816777
C           31.34753280155532        3.46764250282704        0.41880437211766
C           32.60727461735146        2.78146362083240        0.44155008774983
N           32.42221839352720        1.43628704235428        0.27322759373934
C           33.83027520076297        3.40610218553235        0.66440543984600
C           33.84328569085465        4.86224398966693        0.93558868518220
C           33.18797936987811        5.38004056721486        2.05509592811088
C           33.20260537811576        6.73894495265636        2.31332008215975
C           33.87040124426838        7.60970698234899        1.44706870901492
C           33.88361241921633        9.00927320023303        1.70761654058708
N           33.89311167556954       10.14036238480482        1.91885713856757
C           34.52522895089616        7.09633599593187        0.32361976457418
C           34.51315755941882        5.73544770938649        0.07565515548785
C           35.03848947606659        2.72323517941876        0.65514993749283
C           36.30299419286783        3.32779016230637        0.95308117191777
C           37.24587822446024        2.37286320827718        0.76679932271507
N           35.20853096167810        1.39904087379947        0.32919661809459
C           36.55470100191237        1.18916006636264        0.36131085548658
C           37.20939736259056        0.01309848835197       -0.02705914576803
C           36.52529411027079       -1.14767932203685       -0.41057483082271
C           37.18502614566562       -2.33015772201050       -0.86826306568947
C           36.22131822057317       -3.26370045935550       -1.05642546665821
C           34.97685368927316       -2.65069739048047       -0.69730233778495
N           35.17748481721165       -1.33723807863056       -0.34442395533857
C           33.76257909103931       -3.32160409697488       -0.66031434964633
C           33.74299789998069       -4.77071902611685       -0.96574028290885
C           33.00701170476305       -5.25570753173632       -2.04929866095284
C           32.98834335522034       -6.60827123675623       -2.33874909300986
C           33.70341303369557       -7.50583564501155       -1.54020610791255
C           33.68230424424799       -8.89904057330109       -1.83232405267508
N           33.66240515236463      -10.02534274257226       -2.06746685016307
C           34.43854769482667       -7.02556733228017       -0.45233244093731
C           34.45863733129831       -5.67093324914870       -0.17293317972363
C           32.56216689783530       -2.69452575147388       -0.34057419150023
C           31.30425481984369       -3.37570068474578       -0.23183977670935
C           30.36577763308382       -2.42887032977511        0.00405748380886
C           31.05217901397486       -1.17303852385960        0.04700997594448
N           32.39941319501597       -1.35291528268403       -0.12890375060087
H           29.33098799009921        0.04706766139226        0.20834632511269
H           29.31862876654458        2.64460081357341        0.24157469891695
H           31.22579214544252        4.53614433155893        0.49178616512858
H           32.67862876210658        4.70626582775053        2.73474057998233
H           32.69797955620253        7.13315929018317        3.18759810044446
H           35.04114835312303        7.76894574917867       -0.35153468729577
H           35.01318930847102        5.34132775460263       -0.80183510526647
H           36.44056551012179        4.34855687167081        1.27043378793364
H           38.31455758188199        2.44920090875780        0.88651673125030
H           38.24822422688884       -2.41870063012021       -1.02323875076047
H           36.33299279761366       -4.27587690367214       -1.40944198418595
H           32.45990502525574       -4.56124421708501       -2.67680132778803
H           32.42054265769328       -6.97680808646655       -3.18504732113600
H           34.99097105932986       -7.71898587487928        0.17094246383960
H           35.02004564947956       -5.30304508088670        0.67844469568016
H           31.17024003943882       -4.44156054641041       -0.32043931064545
H           29.30253540317027       -2.54975099531531        0.13726413143550
Fe          60.65095505385772        0.00699072860854        0.07380015911765
C           64.04093123558219        0.00289973158862        0.19670424077720
C           63.39028031031849       -1.20447562477517        0.34291069292252
C           64.06963286089913       -2.45246507305310        0.51916584606980
C           63.11237599141575       -3.39481030078470        0.68502921626507
C           61.84904315011985       -2.71748465764778        0.62426081150499
N           62.03211285037640       -1.38311845595184        0.38092366692984
C           60.62343251066574       -3.34430031745898        0.81896348981545
C           60.61194171930302       -4.78838221771243        1.15125856698226
C           61.20456537920010       -5.24648436046650        2.33009754340253
C           61.18998175093060       -6.59261860219990        2.64841307727631
C           60.58481969615111       -7.51030608899919        1.78455391173033
C           60.56951952986974       -8.89661352205023        2.10823174297670
N           60.55599025055722      -10.01673179732274        2.37114511463044
C           59.99388541332680       -7.05681313843568        0.60147268909242
C           60.00600738679586       -5.70828144909460        0.29284040988839
C           59.41061654500038       -2.67568504982111        0.73029927219906
C           58.14152136266396       -3.28905813021940        0.98810670694087
C           57.19814880195980       -2.34338804478868        0.76457515232195
N           59.24186683326708       -1.35762534602783        0.38004537507419
C           57.89295057592144       -1.15548249342067        0.37740725291778
C           57.23921508776151        0.02714586712508        0.01604920801948
C           57.91837675758093        1.19378097281474       -0.35048304516023
C           57.25078543496151        2.37761465503850       -0.79351313029064
C           58.21417201549608        3.29715695787811       -1.03967208449253
C           59.46729828995389        2.67674134429039       -0.72609643484761
N           59.27028498576257        1.37346995128465       -0.33598999237040
C           60.68942805050776        3.33178299089907       -0.78112203933592
C           60.71220526936861        4.76210220630275       -1.16708335609751
C           61.38855232627760        5.16946912299947       -2.31924543392592
C           61.41029833973403        6.50224079694116       -2.68907107554112
C           60.75799098418342        7.45775772735605       -1.90426268543669
C           60.78118697241887        8.83079243157457       -2.27969183903910
N           60.80324697872823        9.94081029775423       -2.58263180579530
C           60.08352404840107        7.05539439785581       -0.74763773457160
C           60.06058601951253        5.72000482188524       -0.38713328899361
C           61.89601711662216        2.70828174088702       -0.48221962732759
C           63.16094387364038        3.38481918164211       -0.45738043038691
C           64.09847220349984        2.45112485471079       -0.17228544639870
C           63.40534268012598        1.20763356154367       -0.01951294463384
N           62.05605162004603        1.38221800664673       -0.18507170362882
H           65.12400142718799        0.00332686172190        0.24504798130633
H           65.14133036256531       -2.57177324568767        0.51004922159755
H           63.23692932165897       -4.45545190833187        0.83118858639724
H           61.66482777240645       -4.53594041476937        3.00734824010604
H           61.64578193656996       -6.94037495191763        3.56807617098728
H           59.52716621086189       -7.76608091263380       -0.07200345217719
H           59.55537292666182       -5.36077202890898       -0.62993883815283
H           58.00137617973264       -4.30865972533904        1.30795091027049
H           56.12684994993599       -2.42681471818705        0.85143363482229
H           56.18291144412294        2.47423818698265       -0.90536136283369
H           58.09665045361317        4.30431462078618       -1.40475514701134
H           61.88678765836235        4.42949722738536       -2.93532245310544
H           61.93160573921136        6.81011222597752       -3.58790474007942
H           59.58014225964745        7.79417854990601       -0.13507254759406
H           59.54685532270335        5.41311739980166        0.51686823399347
H           63.29924910142750        4.44010422738702       -0.62800623181485
H           65.16519788261873        2.57302016723632       -0.07178134070193
C           39.83366144860458       -0.00505355545591       -0.04614294337766
C           38.60933427537699        0.00090407923418       -0.03907871918256
C           41.17910238315579       -0.00794332172646       -0.05111504023185
C           42.40365337735957       -0.00639508163985       -0.05245576655252
C           53.26439797233160        0.04546317878585       -0.00269955501626
C           52.04111955353091        0.04257105665981       -0.01062250037525
C           54.61255498647283        0.04474588997200        0.00387511141224
C           55.83554995248887        0.03876971085956        0.00930898382366
Fe          47.22111582068528        0.01979953795111       -0.03824084339379
C           43.80297824113430        0.00078628758685       -0.05230120891236
C           44.48131366440437       -1.18623678733977       -0.35921948450224
C           43.81320044879314       -2.41628933320270       -0.64613358650455
C           44.77383443817591       -3.30585910224754       -0.99605150904122
C           46.02372457910483       -2.60994913594267       -0.92777709312278
N           45.83009986135551       -1.31932816330673       -0.49952816997190
C           47.24266495337366       -3.16872911304834       -1.28991990106950
C           47.25011371911705       -4.54408085446279       -1.84064890896153
C           46.58427480677188       -4.82874591943835       -3.03492870127618
C           46.59327024041979       -6.10951329663326       -3.55754808017925
C           47.26507837723314       -7.13542867575628       -2.88629728914915
C           47.27374646307650       -8.45538310542269       -3.41998100799266
N           47.28108654291976       -9.52179354147791       -3.85196187169558
C           47.92842482239464       -6.85612426770610       -1.68779871882956
C           47.92243261664531       -5.57131915660388       -1.17493317294107
C           48.45476150073637       -2.50146551099211       -1.16055165982129
C           49.71517938273553       -3.04983708240285       -1.56280695274829
C           50.66414137464977       -2.15493252182071       -1.19563090234028
N           48.63012094608224       -1.26318331650301       -0.59378082408196
C           49.97838829233044       -1.06046774889919       -0.58420033234481
C           50.63856869988851        0.03716545107748       -0.01935610563725
C           49.96101631427565        1.12872650602064        0.53643459482505
C           50.62815334855120        2.22902992871561        1.15765199629534
C           49.66622732045948        3.11630629986577        1.50950593552935
C           48.41672207536766        2.55729453270615        1.08836723266919
N           48.61100667341109        1.32007848598486        0.52572183514311
C           47.19684522653083        3.21400728337941        1.19937580365579
C           47.18434965114972        4.58983241355746        1.74820094730964
C           46.49234034453035        4.87131948795231        2.92839892653351
C           46.48298473673947        6.15224839396089        3.45041174625204
C           47.16312629255992        7.18167840798523        2.79307416073190
C           47.15304741881587        8.50158660660518        3.32678853437530
N           47.14596827542118        9.56818676677277        3.75842307119721
C           47.85288514369164        6.90567604611705        1.60884860202455
C           47.86448410841997        5.62078899298330        1.09626144898907
C           45.98780859408772        2.64162862518155        0.82533114327922
C           44.72957052141300        3.32350466722891        0.88054850683722
C           43.78152746488850        2.42040472830023        0.53095497065579
C           44.46576135908426        1.19679920704422        0.25493143741020
N           45.81192795076809        1.34671015458922        0.40189532380240
H           42.74723061284351       -2.56480622859860       -0.58455180481299
H           44.65667086844017       -4.34148402255710       -1.27033959034218
H           46.07104338367537       -4.03294655508202       -3.56275495256869
H           46.08082248039594       -6.32191551188700       -4.48849961210083
H           48.44653549961468       -7.65003057487495       -1.16279742116260
H           48.42911258150547       -5.35990749369478       -0.24012807350309
H           49.84749474760004       -3.99434064842755       -2.06461216836769
H           51.73282418211645       -2.21552693266888       -1.32338023272706
H           51.69414905114970        2.29843288475058        1.30219083539575
H           49.78328369629878        4.06176027579194        2.01327788952691
H           45.97326340245900        4.07272761545875        3.44617629338253
H           45.94989034454077        6.36202681903343        4.37027529840828
H           48.37775922272873        7.70219173959525        1.09464403804793
H           48.39142104943584        5.41226611239542        0.17208293118730
H           44.59820455200992        4.35951514068956        1.14676354935038
H           42.71434739820415        2.55635542668067        0.46199182926256

          :  Hamiltonian                  GFN1-xTB          :
         :: total energy            -325.522974172064 Eh    ::
         :: gradient norm              0.000749127050 Eh/a0 ::
         :: HOMO-LUMO gap              0.054072340063 eV    ::
         :: SCC energy              -331.076442530972 Eh    ::
         :: repulsion energy           5.722491211353 Eh    ::

    * Orbital Energies and Occupations

         #    Occupation            Energy/Eh            Energy/eV
      -------------------------------------------------------------
         1        2.0000           -0.7854585             -21.3734
       ...           ...                  ...                  ...
       290        2.0000           -0.4104260             -11.1683
       291        2.0000           -0.4091281             -11.1329
       292        1.9988           -0.4040833             -10.9957
       293        1.9924           -0.4023518             -10.9486
       294        1.9922           -0.4023292             -10.9479
       295        1.9915           -0.4022427             -10.9456
       296        1.9656           -0.4009033             -10.9091
       297        1.9582           -0.4007151             -10.9040
       298        1.9520           -0.4005806             -10.9004
       299        1.9473           -0.4004890             -10.8979
       300        1.9434           -0.4004197             -10.8960
       301        1.9372           -0.4003177             -10.8932
       302        1.2913           -0.3976296             -10.8201 (HOMO)
       303        0.3674           -0.3956425             -10.7660 (LUMO)
       304        0.3389           -0.3955493             -10.7634
       305        0.3237           -0.3954971             -10.7620
       306                         -0.3571724              -9.7192
       307                         -0.3458603              -9.4113
       308                         -0.3452461              -9.3946
       309                         -0.3427990              -9.3280
       310                         -0.3413693              -9.2891
       311                         -0.3391518              -9.2288
       312                         -0.3209033              -8.7322
       313                         -0.3163634              -8.6087
       ...                                ...                  ...
       639                          1.4968602              40.7316
      -------------------------------------------------------------
                  HL-Gap            0.0019871 Eh            0.0541 eV

Wiberg/Mayer (AO) data.
largest (>0.10) Wiberg bond orders for each atom

     #   Z sym  total        # sym  WBO       # sym  WBO       # sym  WBO
 ---------------------------------------------------------------------------
     1  26 Fe   3.095 --     7 N    0.664    41 N    0.663    27 N    0.656
                            20 N    0.655
     2   6 C    3.916 --    40 C    1.363     3 C    1.362    42 H    0.970
     3   6 C    3.923 --     2 C    1.362     7 N    1.209     4 C    1.173
     4   6 C    3.959 --     5 C    1.650     3 C    1.173    43 H    0.975
     5   6 C    3.961 --     4 C    1.650     6 C    1.175    44 H    0.973
     6   6 C    3.920 --     8 C    1.311     7 N    1.226     5 C    1.175
     7   7 N    3.377 --     6 C    1.226     3 C    1.209     1 Fe   0.664
     8   6 C    3.918 --    17 C    1.333     6 C    1.311     9 C    1.030
     9   6 C    3.963 --    16 C    1.385    10 C    1.385     8 C    1.030
    10   6 C    3.987 --    11 C    1.463     9 C    1.385    45 H    0.971
                            15 C    0.102
    11   6 C    3.993 --    10 C    1.463    12 C    1.364    46 H    0.972
                            16 C    0.102
    12   6 C    3.984 --    15 C    1.365    11 C    1.364    13 C    1.098
    13   6 C    3.958 --    14 N    2.820    12 C    1.098
    14   7 N    2.973 --    13 C    2.820
    15   6 C    3.993 --    16 C    1.463    12 C    1.365    47 H    0.972
                            10 C    0.102
    16   6 C    3.987 --    15 C    1.463     9 C    1.385    48 H    0.971
                            11 C    0.102
    17   6 C    3.917 --     8 C    1.333    20 N    1.201    18 C    1.179
    18   6 C    3.956 --    19 C    1.638    17 C    1.179    49 H    0.973
    19   6 C    3.960 --    18 C    1.638    21 C    1.188    50 H    0.973
    20   7 N    3.375 --    21 C    1.247    17 C    1.201     1 Fe   0.655
    21   6 C    3.903 --    22 C    1.248    20 N    1.247    19 C    1.188
    22   6 C    3.915 --    21 C    1.248    23 C    1.248   118 C    1.207
    23   6 C    3.903 --    27 N    1.248    22 C    1.248    24 C    1.188
    24   6 C    3.960 --    25 C    1.638    23 C    1.188    51 H    0.973
    25   6 C    3.956 --    24 C    1.638    26 C    1.179    52 H    0.973
    26   6 C    3.917 --    28 C    1.334    27 N    1.199    25 C    1.179
    27   7 N    3.376 --    23 C    1.248    26 C    1.199     1 Fe   0.656
    28   6 C    3.918 --    26 C    1.334    37 C    1.310    29 C    1.031
    29   6 C    3.963 --    30 C    1.385    36 C    1.385    28 C    1.031
    30   6 C    3.987 --    31 C    1.463    29 C    1.385    53 H    0.971
                            35 C    0.102
    31   6 C    3.993 --    30 C    1.463    32 C    1.364    54 H    0.972
                            36 C    0.102
    32   6 C    3.984 --    35 C    1.364    31 C    1.364    33 C    1.098
    33   6 C    3.958 --    34 N    2.820    32 C    1.098
    34   7 N    2.973 --    33 C    2.820
    35   6 C    3.993 --    36 C    1.463    32 C    1.364    55 H    0.972
                            30 C    0.102
    36   6 C    3.987 --    35 C    1.463    29 C    1.385    56 H    0.971
                            31 C    0.102
    37   6 C    3.920 --    28 C    1.310    41 N    1.227    38 C    1.175
    38   6 C    3.962 --    39 C    1.649    37 C    1.175    57 H    0.973
    39   6 C    3.959 --    38 C    1.649    40 C    1.173    58 H    0.975
    40   6 C    3.923 --     2 C    1.363    41 N    1.208    39 C    1.173
    41   7 N    3.377 --    37 C    1.227    40 C    1.208     1 Fe   0.663
    42   1 H    1.000 --     2 C    0.970
    43   1 H    0.997 --     4 C    0.975
    44   1 H    1.004 --     5 C    0.973
    45   1 H    1.003 --    10 C    0.971
    46   1 H    1.000 --    11 C    0.972
    47   1 H    1.000 --    15 C    0.972
    48   1 H    1.003 --    16 C    0.971
    49   1 H    1.004 --    18 C    0.973
    50   1 H    1.002 --    19 C    0.973
    51   1 H    1.002 --    24 C    0.973
    52   1 H    1.004 --    25 C    0.973
    53   1 H    1.003 --    30 C    0.971
    54   1 H    1.000 --    31 C    0.972
    55   1 H    1.000 --    35 C    0.972
    56   1 H    1.003 --    36 C    0.971
    57   1 H    1.004 --    38 C    0.973
    58   1 H    0.997 --    39 C    0.975
    59  26 Fe   3.099 --    65 N    0.667    99 N    0.666    85 N    0.660
                            78 N    0.659
    60   6 C    3.921 --    98 C    1.364    61 C    1.363   100 H    0.970
    61   6 C    3.923 --    60 C    1.363    65 N    1.209    62 C    1.172
    62   6 C    3.959 --    63 C    1.650    61 C    1.172   101 H    0.975
    63   6 C    3.961 --    62 C    1.650    64 C    1.174   102 H    0.973
    64   6 C    3.920 --    66 C    1.315    65 N    1.224    63 C    1.174
    65   7 N    3.381 --    64 C    1.224    61 C    1.209    59 Fe   0.667
    66   6 C    3.923 --    75 C    1.332    64 C    1.315    67 C    1.028
    67   6 C    3.963 --    74 C    1.386    68 C    1.386    66 C    1.028
    68   6 C    3.987 --    69 C    1.463    67 C    1.386   103 H    0.971
                            73 C    0.102
    69   6 C    3.993 --    68 C    1.463    70 C    1.364   104 H    0.972
                            74 C    0.102
    70   6 C    3.985 --    73 C    1.365    69 C    1.364    71 C    1.098
    71   6 C    3.958 --    72 N    2.820    70 C    1.098
    72   7 N    2.973 --    71 C    2.820
    73   6 C    3.993 --    74 C    1.463    70 C    1.365   105 H    0.972
                            68 C    0.102
    74   6 C    3.987 --    73 C    1.463    67 C    1.386   106 H    0.971
                            69 C    0.102
    75   6 C    3.917 --    66 C    1.332    78 N    1.202    76 C    1.179
    76   6 C    3.957 --    77 C    1.639    75 C    1.179   107 H    0.973
    77   6 C    3.960 --    76 C    1.639    79 C    1.187   108 H    0.973
    78   7 N    3.380 --    79 C    1.242    75 C    1.202    59 Fe   0.659
    79   6 C    3.905 --    80 C    1.257    78 N    1.242    77 C    1.187
    80   6 C    3.922 --    79 C    1.257    81 C    1.256   124 C    1.191
    81   6 C    3.905 --    80 C    1.256    85 N    1.243    82 C    1.187
    82   6 C    3.960 --    83 C    1.639    81 C    1.187   109 H    0.973
    83   6 C    3.957 --    82 C    1.639    84 C    1.178   110 H    0.972
    84   6 C    3.917 --    86 C    1.333    85 N    1.201    83 C    1.178
    85   7 N    3.380 --    81 C    1.243    84 C    1.201    59 Fe   0.660
    86   6 C    3.923 --    84 C    1.333    95 C    1.313    87 C    1.029
    87   6 C    3.963 --    94 C    1.386    88 C    1.385    86 C    1.029
    88   6 C    3.987 --    89 C    1.463    87 C    1.385   111 H    0.971
                            93 C    0.102
    89   6 C    3.993 --    88 C    1.463    90 C    1.364   112 H    0.972
                            94 C    0.102
    90   6 C    3.985 --    93 C    1.365    89 C    1.364    91 C    1.098
    91   6 C    3.958 --    92 N    2.820    90 C    1.098
    92   7 N    2.973 --    91 C    2.820
    93   6 C    3.993 --    94 C    1.463    90 C    1.365   113 H    0.972
                            88 C    0.102
    94   6 C    3.987 --    93 C    1.463    87 C    1.386   114 H    0.971
                            89 C    0.102
    95   6 C    3.920 --    86 C    1.313    99 N    1.225    96 C    1.174
    96   6 C    3.961 --    97 C    1.650    95 C    1.174   115 H    0.973
    97   6 C    3.958 --    96 C    1.650    98 C    1.172   116 H    0.975
    98   6 C    3.923 --    60 C    1.364    99 N    1.208    97 C    1.172
    99   7 N    3.381 --    95 C    1.225    98 C    1.208    59 Fe   0.666
   100   1 H    1.000 --    60 C    0.970
   101   1 H    0.997 --    62 C    0.975
   102   1 H    1.004 --    63 C    0.973
   103   1 H    1.003 --    68 C    0.971
   104   1 H    1.000 --    69 C    0.972
   105   1 H    1.000 --    73 C    0.972
   106   1 H    1.003 --    74 C    0.971
   107   1 H    1.004 --    76 C    0.973
   108   1 H    1.002 --    77 C    0.973
   109   1 H    1.001 --    82 C    0.973
   110   1 H    1.004 --    83 C    0.972
   111   1 H    1.003 --    88 C    0.971
   112   1 H    1.000 --    89 C    0.972
   113   1 H    1.000 --    93 C    0.972
   114   1 H    1.003 --    94 C    0.971
   115   1 H    1.004 --    96 C    0.973
   116   1 H    0.997 --    97 C    0.975
   117   6 C    3.922 --   118 C    2.442   119 C    1.331
   118   6 C    3.910 --   117 C    2.442    22 C    1.207   120 C    0.195
   119   6 C    3.918 --   120 C    2.439   117 C    1.331
   120   6 C    3.912 --   119 C    2.439   126 C    1.211   118 C    0.195
   121   6 C    3.918 --   122 C    2.456   123 C    1.316
   122   6 C    3.912 --   121 C    2.456   146 C    1.197   124 C    0.194
   123   6 C    3.924 --   124 C    2.459   121 C    1.316
   124   6 C    3.909 --   123 C    2.459    80 C    1.191   122 C    0.194
   125  26 Fe   3.047 --   144 N    0.648   151 N    0.647   165 N    0.647
                           131 N    0.647
   126   6 C    3.902 --   127 C    1.245   164 C    1.244   120 C    1.211
   127   6 C    3.904 --   131 N    1.249   126 C    1.245   128 C    1.191
   128   6 C    3.959 --   129 C    1.634   127 C    1.191   166 H    0.973
   129   6 C    3.957 --   128 C    1.634   130 C    1.182   167 H    0.973
   130   6 C    3.915 --   132 C    1.324   131 N    1.205   129 C    1.182
   131   7 N    3.366 --   127 C    1.249   130 C    1.205   125 Fe   0.647
   132   6 C    3.911 --   130 C    1.324   141 C    1.320   133 C    1.029
   133   6 C    3.963 --   140 C    1.385   134 C    1.385   132 C    1.029
   134   6 C    3.987 --   135 C    1.463   133 C    1.385   168 H    0.971
                           139 C    0.102
   135   6 C    3.993 --   134 C    1.463   136 C    1.365   169 H    0.972
                           140 C    0.102
   136   6 C    3.985 --   139 C    1.365   135 C    1.365   137 C    1.097
   137   6 C    3.958 --   138 N    2.821   136 C    1.097
   138   7 N    2.974 --   137 C    2.821
   139   6 C    3.993 --   140 C    1.463   136 C    1.365   170 H    0.972
                           134 C    0.102
   140   6 C    3.987 --   139 C    1.463   133 C    1.385   171 H    0.971
                           135 C    0.102
   141   6 C    3.915 --   132 C    1.320   144 N    1.208   142 C    1.182
   142   6 C    3.959 --   143 C    1.635   141 C    1.182   172 H    0.973
   143   6 C    3.959 --   142 C    1.635   145 C    1.190   173 H    0.973
   144   7 N    3.367 --   145 C    1.245   141 C    1.208   125 Fe   0.648
   145   6 C    3.906 --   146 C    1.252   144 N    1.245   143 C    1.190
   146   6 C    3.904 --   147 C    1.252   145 C    1.252   122 C    1.197
   147   6 C    3.906 --   146 C    1.252   151 N    1.245   148 C    1.190
   148   6 C    3.959 --   149 C    1.635   147 C    1.190   174 H    0.973
   149   6 C    3.959 --   148 C    1.635   150 C    1.183   175 H    0.973
   150   6 C    3.915 --   152 C    1.319   151 N    1.208   149 C    1.183
   151   7 N    3.367 --   147 C    1.245   150 C    1.208   125 Fe   0.647
   152   6 C    3.911 --   161 C    1.324   150 C    1.319   153 C    1.030
   153   6 C    3.963 --   160 C    1.385   154 C    1.385   152 C    1.030
   154   6 C    3.987 --   155 C    1.463   153 C    1.385   176 H    0.971
                           159 C    0.102
   155   6 C    3.993 --   154 C    1.463   156 C    1.365   177 H    0.972
                           160 C    0.102
   156   6 C    3.984 --   159 C    1.365   155 C    1.365   157 C    1.097
   157   6 C    3.958 --   158 N    2.821   156 C    1.097
   158   7 N    2.974 --   157 C    2.821
   159   6 C    3.993 --   160 C    1.463   156 C    1.365   178 H    0.972
                           154 C    0.102
   160   6 C    3.987 --   159 C    1.463   153 C    1.385   179 H    0.971
                           155 C    0.102
   161   6 C    3.915 --   152 C    1.324   165 N    1.204   162 C    1.182
   162   6 C    3.957 --   163 C    1.634   161 C    1.182   180 H    0.973
   163   6 C    3.959 --   162 C    1.634   164 C    1.191   181 H    0.973
   164   6 C    3.904 --   165 N    1.250   126 C    1.244   163 C    1.191
   165   7 N    3.366 --   164 C    1.250   161 C    1.204   125 Fe   0.647
   166   1 H    1.001 --   128 C    0.973
   167   1 H    1.003 --   129 C    0.973
   168   1 H    1.003 --   134 C    0.971
   169   1 H    1.000 --   135 C    0.972
   170   1 H    1.000 --   139 C    0.972
   171   1 H    1.003 --   140 C    0.971
   172   1 H    1.004 --   142 C    0.973
   173   1 H    1.001 --   143 C    0.973
   174   1 H    1.001 --   148 C    0.973
   175   1 H    1.004 --   149 C    0.973
   176   1 H    1.003 --   154 C    0.971
   177   1 H    1.000 --   155 C    0.972
   178   1 H    1.000 --   159 C    0.972
   179   1 H    1.003 --   160 C    0.971
   180   1 H    1.004 --   162 C    0.973
   181   1 H    1.002 --   163 C    0.973
 ---------------------------------------------------------------------------

           -------------------------------------------------
          | TOTAL ENERGY             -325.522974172064 Eh   |
          | GRADIENT NORM               0.000749127050 Eh/α |
          | HOMO-LUMO GAP               0.054072340063 eV   |
           -------------------------------------------------

 * finished run on 2022/07/29 at 23:59:45.072
