   * xtb version 6.5.1 (b24c23e) compiled by 'conda@728c89f4b128' on 2022-07-12
          program call               : xtb Ni_PhCN_C8_3.xyz --gfn 1 --opt -T 48

   ID    Z sym.   atoms
    1   28 Ni     1, 59, 133
    2    6 C      2-6, 8-13, 15-19, 21-26, 28-33, 35-40, 60-64, 66-71, 73-77,
                  79-84, 86-91, 93-98, 117-132, 134-138, 140-145, 147-151,
                  153-158, 160-165, 167-172
    3    7 N      7, 14, 20, 27, 34, 41, 65, 72, 78, 85, 92, 99, 139, 146,
                  152, 159, 166, 173
    4    1 H      42-58, 100-116, 174-189

          :  Hamiltonian                  GFN1-xTB          :
 * total energy  :  -344.7114185 Eh     change       -0.7352867E-08 Eh
 * total energy  :  -345.0811638 Eh     change       -0.3697453E+00 Eh
 * total energy  :  -345.2060352 Eh     change       -0.1248714E+00 Eh
 * total energy  :  -345.2702505 Eh     change       -0.6421529E-01 Eh
 * total energy  :  -345.3281349 Eh     change       -0.5788437E-01 Eh
 * total energy  :  -345.3906481 Eh     change       -0.6251324E-01 Eh
 * total energy  :  -345.4474868 Eh     change       -0.5683864E-01 Eh
 * total energy  :  -345.4812453 Eh     change       -0.3375850E-01 Eh
 * total energy  :  -345.5084579 Eh     change       -0.2721267E-01 Eh
 * total energy  :  -345.5282876 Eh     change       -0.1982962E-01 Eh
 * total energy  :  -345.6497425 Eh     change       -0.1027768E-04 Eh
 * total energy  :  -345.6497349 Eh     change        0.7577171E-05 Eh
 * total energy  :  -345.6497438 Eh     change       -0.8888359E-05 Eh
 * total energy  :  -345.6497278 Eh     change        0.1596002E-04 Eh
 * total energy  :  -345.6497442 Eh     change       -0.1641920E-04 Eh
 * total energy  :  -345.6497423 Eh     change        0.1897608E-05 Eh
 * total energy  :  -345.6497442 Eh     change       -0.1833391E-05 Eh
 * total energy  :  -345.6497463 Eh     change       -0.2112692E-05 Eh
 * total energy  :  -345.6497478 Eh     change       -0.1525540E-05 Eh
   *** GEOMETRY OPTIMIZATION CONVERGED AFTER 86 ITERATIONS ***

 final structure:
================
189
 xtb: 6.5.1 (b24c23e)
Ni          28.66990399499536        0.02353911942998        0.04188803472199
C           25.28065820731655        0.03085251430165        0.16489289029639
C           25.93365546758180        1.24490246190985        0.21572256898167
C           25.26013565186172        2.50601256398682        0.27735151272233
C           26.21908650781970        3.45231474799553        0.40790082890003
C           27.47744666960690        2.76579709240616        0.44400897588842
N           27.29396545545962        1.41549585637289        0.28253604311447
C           28.69683742046288        3.38925452321082        0.67715795645318
C           28.71326270176466        4.84665658942647        0.94267926509926
C           28.04022559549704        5.37451822039834        2.04682712282302
C           28.05788754785416        6.73474657681497        2.29813287212471
C           28.74816520075060        7.59691295029055        1.44101461514212
C           28.76571998736233        8.99761112797598        1.69479021581700
N           28.77962087595570       10.12987509395064        1.89960663794233
C           29.42150286860202        7.07358804260021        0.33317852234504
C           29.40484530619598        5.71167472075132        0.09155004114215
C           29.90263476382607        2.69994052386385        0.68141245358629
C           31.16282372320920        3.30020211824584        0.99917296096201
C           32.10752246196709        2.34653759962628        0.81631914680416
N           30.07119995184668        1.37543088465921        0.34753368797772
C           31.42241864575482        1.16722855027957        0.39274824106818
C           32.08112678535316        0.00109459067843       -0.00763257741647
C           31.39640626207440       -1.15025256042240       -0.40748244953360
C           32.05284999647815       -2.32712044079739       -0.88006334053625
C           31.08860560477658       -3.25902616842581       -1.07319464331474
C           29.84644672953857       -2.65115544280511       -0.70297896250868
N           30.04375043128333       -1.33921189896591       -0.33563741772824
C           28.63403823239215       -3.32745659327423       -0.66620678508406
C           28.61761925707631       -4.77578893810357       -0.97737625031336
C           27.87765220876239       -5.25927713529542       -2.05880755348250
C           27.86100501654598       -6.61093310477762       -2.35278167260985
C           28.58324604591363       -7.50913633403003       -1.56152705271138
C           28.56538287114302       -8.90131268306267       -1.85849017401087
N           28.55093969932163      -10.02671533582348       -2.09809576520687
C           29.32278976080231       -7.03044527875465       -0.47595304172986
C           29.33993721798775       -5.67679992145337       -0.19163419332737
C           27.43634514900795       -2.70283278173428       -0.34075861728064
C           26.18052029095349       -3.38576552462371       -0.22895797262635
C           25.24055200851205       -2.44131699961842        0.00881415505949
C           25.92322561558032       -1.18423173588275        0.05007269627462
N           27.27340917104310       -1.35729900460080       -0.12802582053129
H           24.19785868731745        0.03245511279187        0.20901504489430
H           24.19042550061523        2.63070372840204        0.22319455380952
H           26.09843372467223        4.52140992532391        0.47324777221137
H           27.51409966103423        4.70766666936898        2.72052823801227
H           27.53863813431897        7.13661929995699        3.16028302488357
H           29.95509481361944        7.73939041076665       -0.33494963117588
H           29.91949215778831        5.31014373813445       -0.77406740616815
H           31.29656772245515        4.31828172224782        1.32641054204401
H           33.17479005911169        2.42071735592725        0.94850294387064
H           33.11545359068818       -2.41323125206878       -1.03985375268693
H           31.19845816559285       -4.26768309434482       -1.43649202746995
H           27.32514445907965       -4.56428626205427       -2.68098974349947
H           27.28956813316736       -6.97821723010855       -3.19716618465806
H           29.88066272911185       -7.72439720315625        0.14180297678734
H           29.90513041996183       -5.31041806832990        0.65788985628716
H           26.04929652462660       -4.45193604055510       -0.31771134095018
H           24.17786161465120       -2.56426938658074        0.14417796791739
Ni          65.80254057328003        0.00478467041694        0.06415352689284
C           69.19248565108104        0.00159196579140        0.17983976636714
C           68.53897698284602       -1.20727961219752        0.29962384520738
C           69.21249000253016       -2.46329257423024        0.42862075772431
C           68.25337628525004       -3.40162325579607        0.60642795361838
C           66.99493196895975       -2.71423488978319        0.60495083328886
N           67.17862470094531       -1.37400242454448        0.37425100202686
C           65.77529608738583       -3.32541332555904        0.86693406183714
C           65.75817760277792       -4.76831684379796        1.20265395127547
C           66.42881968467401       -5.24242786762993        2.33233694374108
C           66.41042487356950       -6.58899287114932        2.64880489017010
C           65.72167962019435       -7.49136631655048        1.83284032025195
C           65.70303852840169       -8.87822308808175        2.15367896100004
N           65.68843904784221       -9.99946993615511        2.41207652620541
C           65.05060574427470       -7.02192834625874        0.69976568043835
C           65.06807646019577       -5.67324777595170        0.39283011557623
C           64.56963598822139       -2.63640832947501        0.83790972853251
C           63.30988046155382       -3.22061272595108        1.18608961720421
C           62.36536773848599       -2.27556944737786        0.96264272414564
N           64.40111697825522       -1.32888099300893        0.44309125078518
C           63.05005860670485       -1.11746146269551        0.48336629165581
C           62.39074306074001        0.03025522204650        0.03480362988518
C           63.07382946762121        1.16045246987477       -0.42292006506452
C           62.41505922818162        2.31379852240144       -0.94760279847703
C           63.37948458140758        3.23109200138643       -1.20000323587217
C           64.62422613418615        2.63907027517628       -0.81297509097163
N           64.42771904543700        1.34898290514897       -0.37483264484230
C           65.83892136894501        3.31196559190734       -0.82804428189066
C           65.85681297936330        4.73981729070425       -1.22306549289587
C           66.58341549771086        5.15508755219754       -2.34127079763605
C           66.60148223717016        6.48696723956802       -2.71462358448416
C           65.89433059367100        7.43377359289647       -1.96761948191526
C           65.91362186324160        8.80580232212911       -2.34686683904881
N           65.92912511267045        9.91486409699721       -2.65328891330249
C           65.16865180090164        7.02357756822674       -0.84528951712110
C           65.14986236436140        5.68907529894006       -0.48149249781327
C           67.03805953938894        2.70352718857101       -0.47857336784459
C           68.29565313201120        3.38946074904926       -0.41520177863903
C           69.23518162799883        2.45942750997167       -0.12499322300769
C           68.55072324399895        1.20832855048990       -0.00514946320872
N           67.19999975309855        1.37263094678917       -0.18755284340110
H           70.27534730222212        0.00175679752054        0.22247730952447
H           70.28228088922434       -2.59050080097786        0.38249732749396
H           68.37398179227151       -4.46587382702819        0.72727234071629
H           66.95367547919798       -4.54396709130980        2.97424975833418
H           66.92789029990404       -6.94891460324818        3.53034562618971
H           64.51811722127874       -7.71907802805719        0.06349101426610
H           64.55514446659600       -5.31378183093013       -0.49207955403034
H           63.17644079245125       -4.22249168363548        1.56010400579999
H           61.29846015244981       -2.34259147429084        1.10140770893052
H           61.35092641674770        2.39497585469480       -1.09960065645286
H           63.26815985325032        4.21995145393093       -1.61376017906164
H           67.12428692039953        4.42188262868784       -2.92885677293377
H           67.16229485740296        6.80108547902572       -3.58711499285361
H           64.62275168814584        7.75549806188121       -0.26159394711913
H           64.59545761122753        5.37619239711584        0.39606323616151
H           68.42802692971820        4.44805700684515       -0.56905860501035
H           70.29872321640244        2.58825279432142       -0.00237534348092
C           33.48543502579647       -0.01036682714529       -0.01770740589968
C           34.70960433545003       -0.01781026439054       -0.02330613186705
C           36.05247993644019       -0.02325096024229       -0.02971544452799
C           37.28291372087696       -0.02460817106149       -0.03496193326340
C           38.62093403050608       -0.02355910769474       -0.03929733822935
C           39.85143934211905       -0.02007184701187       -0.04181497901687
C           41.19410814191340       -0.01343323066908       -0.04490074301720
C           42.41847616154386       -0.00588790494924       -0.04804136036015
C           52.05234414918718        0.04800300468409       -0.02886337982622
C           53.27649877158090        0.05304634454024       -0.02019361619587
C           54.61960159526132        0.05664123522796       -0.00971671212687
C           55.84985649851443        0.05754765879785       -0.00036338510827
C           57.18831123740133        0.05657799403889        0.00973326837652
C           58.41849363832806        0.05606729128724        0.01848343451662
C           59.76184668758022        0.05171692679273        0.02484764880382
C           60.98579161590537        0.04280680259815        0.03093582109512
Ni          47.23522003842886        0.02361940913470       -0.04513481983022
C           43.82204497982539        0.00261849311102       -0.04868197413958
C           44.50374252667160       -1.18949193626631       -0.31306615020509
C           43.84647662937554       -2.43586531816064       -0.54338563973307
C           44.80761447667201       -3.32189898487548       -0.90117031749331
C           46.04828028182149       -2.60868870651573       -0.89798129240954
N           45.85477859239197       -1.30921182034455       -0.48806570316920
C           47.25592870116885       -3.14616172048362       -1.32497080650190
C           47.26389313076883       -4.51908431112402       -1.88057409350843
C           46.51330810937661       -4.82633347021809       -3.01782372762628
C           46.51981511713845       -6.10671875689121       -3.54126612820832
C           47.27636040627044       -7.11027863771953       -2.92886164625076
C           47.28262145430608       -8.42998591413031       -3.46280229433890
N           47.28661321959177       -9.49677955256510       -3.89412816305206
C           48.02671273338823       -6.80850545170553       -1.78851330403340
C           48.02090651365819       -5.52430309592260       -1.27439109796933
C           48.45580796784076       -2.45006984498529       -1.25193597824974
C           49.70516915991652       -2.95307800323472       -1.73577303739637
C           50.65485676424948       -2.05799533368259       -1.37015402243390
N           48.63262019496594       -1.22852377070607       -0.64309401505166
C           49.98190238647009       -1.00745851452425       -0.67576029154094
C           50.64822104708627        0.04218489301474       -0.03587299357176
C           49.96706483695613        1.08577515807424        0.59822342109358
C           50.62484669975723        2.14462432498646        1.29455142170540
C           49.66360880632556        3.03005722955478        1.65335943471300
C           48.42233974699978        2.51255930098899        1.16403740817494
N           48.61570453646894        1.29234943889426        0.55762122151883
C           47.21400344959704        3.19432547382528        1.23238913662614
C           47.20357112310509        4.56644581847174        1.78997000608029
C           46.44706374006321        4.86193940136690        2.92640992967644
C           46.43782582388774        6.14084374601723        3.45340691190810
C           47.18412581352652        7.15467000203255        2.84536492873078
C           47.17480317175644        8.47267618896161        3.38344473775567
N           47.16607844098188        9.53796344249678        3.81841286010519
C           47.93993261992016        6.86476310969622        1.70553401990086
C           47.94996370730837        5.58199388415874        1.18788956817554
C           46.01430738065556        2.64204244036187        0.80202964487543
C           44.76494332588004        3.33988196158934        0.80231961160810
C           43.81549262070509        2.44168799859335        0.44365766755194
C           44.48857230352397        1.20337266673729        0.21550285795696
N           45.83770535546228        1.33996193196327        0.39265051331261
H           42.78522361146118       -2.59627081416170       -0.44305816631032
H           44.69616315528022       -4.36615173988730       -1.14319021482416
H           45.93434768105966       -4.04785239419899       -3.50169921954765
H           45.94001529065515       -6.33625850370341       -4.42756987781116
H           48.61121471870100       -7.58496972060673       -1.30908217028060
H           48.59480277503856       -5.29665032318662       -0.38322628503131
H           49.82978948859913       -3.87134300295323       -2.28598160693738
H           51.71788636474439       -2.09332579970248       -1.54561854417241
H           51.68647949454609        2.19187841812495        1.47554284873967
H           49.77539676500295        3.95060656526378        2.20249886630306
H           45.87620848242437        4.07548647686920        3.40701959962527
H           45.85381757983678        6.36119633909517        4.33928194182146
H           48.51644976494003        7.64921995518430        1.22946017114925
H           48.52831510967358        5.36334388654470        0.29735240659335
H           44.64022524244861        4.38286509654238        1.04335794292614
H           42.75252308523118        2.58887784673085        0.34126003506457

          :  Hamiltonian                  GFN1-xTB          :
         :: total energy            -345.649747807141 Eh    ::
         :: gradient norm              0.000301148949 Eh/a0 ::
         :: HOMO-LUMO gap              1.084206302860 eV    ::
         :: SCC energy              -351.718330723867 Eh    ::
         :: repulsion energy           6.241076307398 Eh    ::

    * Orbital Energies and Occupations

         #    Occupation            Energy/Eh            Energy/eV
      -------------------------------------------------------------
         1        2.0000           -0.7951943             -21.6383
       ...           ...                  ...                  ...
       309        2.0000           -0.4103408             -11.1659
       310        2.0000           -0.4103168             -11.1653
       311        2.0000           -0.4098659             -11.1530
       312        2.0000           -0.4097454             -11.1497
       313        2.0000           -0.4094466             -11.1416
       314        2.0000           -0.4094102             -11.1406
       315        2.0000           -0.4083620             -11.1121
       316        2.0000           -0.4083350             -11.1114
       317        2.0000           -0.4082813             -11.1099
       318        2.0000           -0.4082524             -11.1091
       319        2.0000           -0.4045992             -11.0097
       320        2.0000           -0.4004745             -10.8975
       321        2.0000           -0.3950796             -10.7507 (HOMO)
       322                         -0.3552357              -9.6665 (LUMO)
       323                         -0.3477568              -9.4629
       324                         -0.3445481              -9.3756
       325                         -0.3438603              -9.3569
       326                         -0.3432765              -9.3410
       327                         -0.3432221              -9.3395
       328                         -0.3414124              -9.2903
       329                         -0.3402314              -9.2582
       330                         -0.3401750              -9.2566
       331                         -0.3237830              -8.8106
       332                         -0.3166061              -8.6153
       ...                                ...                  ...
       671                          1.5954615              43.4147
      -------------------------------------------------------------
                  HL-Gap            0.0398438 Eh            1.0842 eV

Wiberg/Mayer (AO) data.
largest (>0.10) Wiberg bond orders for each atom

     #   Z sym  total        # sym  WBO       # sym  WBO       # sym  WBO
 ---------------------------------------------------------------------------
     1  28 Ni   3.014 --    41 N    0.664     7 N    0.664    20 N    0.661
                            27 N    0.661
     2   6 C    3.935 --    40 C    1.365     3 C    1.364    42 H    0.970
     3   6 C    3.922 --     2 C    1.364     7 N    1.213     4 C    1.175
     4   6 C    3.960 --     5 C    1.649     3 C    1.175    43 H    0.975
     5   6 C    3.963 --     4 C    1.649     6 C    1.176    44 H    0.973
     6   6 C    3.920 --     8 C    1.322     7 N    1.222     5 C    1.176
     7   7 N    3.401 --     6 C    1.222     3 C    1.213     1 Ni   0.664
     8   6 C    3.938 --    17 C    1.326     6 C    1.322     9 C    1.030
     9   6 C    3.963 --    10 C    1.386    16 C    1.385     8 C    1.030
    10   6 C    3.988 --    11 C    1.463     9 C    1.386    45 H    0.971
                            15 C    0.102
    11   6 C    3.993 --    10 C    1.463    12 C    1.364    46 H    0.972
                            16 C    0.102
    12   6 C    3.985 --    11 C    1.364    15 C    1.364    13 C    1.098
    13   6 C    3.958 --    14 N    2.820    12 C    1.098
    14   7 N    2.973 --    13 C    2.820
    15   6 C    3.993 --    16 C    1.464    12 C    1.364    47 H    0.972
                            10 C    0.102
    16   6 C    3.988 --    15 C    1.464     9 C    1.385    48 H    0.971
                            11 C    0.102
    17   6 C    3.914 --     8 C    1.326    20 N    1.207    18 C    1.184
    18   6 C    3.959 --    19 C    1.636    17 C    1.184    49 H    0.973
    19   6 C    3.961 --    18 C    1.636    21 C    1.191    50 H    0.973
    20   7 N    3.405 --    21 C    1.238    17 C    1.207     1 Ni   0.661
    21   6 C    3.902 --    22 C    1.262    20 N    1.238    19 C    1.191
    22   6 C    3.944 --    21 C    1.262    23 C    1.261   117 C    1.187
    23   6 C    3.902 --    22 C    1.261    27 N    1.239    24 C    1.192
    24   6 C    3.961 --    25 C    1.635    23 C    1.192    51 H    0.973
    25   6 C    3.958 --    24 C    1.635    26 C    1.183    52 H    0.973
    26   6 C    3.914 --    28 C    1.327    27 N    1.206    25 C    1.183
    27   7 N    3.405 --    23 C    1.239    26 C    1.206     1 Ni   0.661
    28   6 C    3.938 --    26 C    1.327    37 C    1.320    29 C    1.030
    29   6 C    3.963 --    30 C    1.386    36 C    1.385    28 C    1.030
    30   6 C    3.988 --    31 C    1.463    29 C    1.386    53 H    0.971
                            35 C    0.102
    31   6 C    3.993 --    30 C    1.463    32 C    1.364    54 H    0.972
                            36 C    0.102
    32   6 C    3.985 --    31 C    1.364    35 C    1.364    33 C    1.098
    33   6 C    3.958 --    34 N    2.820    32 C    1.098
    34   7 N    2.973 --    33 C    2.820
    35   6 C    3.993 --    36 C    1.463    32 C    1.364    55 H    0.972
                            30 C    0.102
    36   6 C    3.988 --    35 C    1.463    29 C    1.385    56 H    0.971
                            31 C    0.102
    37   6 C    3.919 --    28 C    1.320    41 N    1.223    38 C    1.176
    38   6 C    3.963 --    39 C    1.649    37 C    1.176    57 H    0.973
    39   6 C    3.959 --    38 C    1.649    40 C    1.175    58 H    0.975
    40   6 C    3.922 --     2 C    1.365    41 N    1.212    39 C    1.175
    41   7 N    3.401 --    37 C    1.223    40 C    1.212     1 Ni   0.664
    42   1 H    1.000 --     2 C    0.970
    43   1 H    0.997 --     4 C    0.975
    44   1 H    1.004 --     5 C    0.973
    45   1 H    1.003 --    10 C    0.971
    46   1 H    1.000 --    11 C    0.972
    47   1 H    1.000 --    15 C    0.972
    48   1 H    1.003 --    16 C    0.971
    49   1 H    1.004 --    18 C    0.973
    50   1 H    1.001 --    19 C    0.973
    51   1 H    1.001 --    24 C    0.973
    52   1 H    1.004 --    25 C    0.973
    53   1 H    1.003 --    30 C    0.971
    54   1 H    1.000 --    31 C    0.972
    55   1 H    1.000 --    35 C    0.972
    56   1 H    1.003 --    36 C    0.971
    57   1 H    1.004 --    38 C    0.973
    58   1 H    0.997 --    39 C    0.975
    59  28 Ni   3.014 --    99 N    0.664    65 N    0.664    78 N    0.661
                            85 N    0.661
    60   6 C    3.935 --    98 C    1.365    61 C    1.364   100 H    0.970
    61   6 C    3.922 --    60 C    1.364    65 N    1.213    62 C    1.175
    62   6 C    3.960 --    63 C    1.649    61 C    1.175   101 H    0.975
    63   6 C    3.963 --    62 C    1.649    64 C    1.176   102 H    0.973
    64   6 C    3.920 --    66 C    1.322    65 N    1.222    63 C    1.176
    65   7 N    3.402 --    64 C    1.222    61 C    1.213    59 Ni   0.664
    66   6 C    3.939 --    75 C    1.326    64 C    1.322    67 C    1.029
    67   6 C    3.963 --    68 C    1.386    74 C    1.386    66 C    1.029
    68   6 C    3.988 --    69 C    1.463    67 C    1.386   103 H    0.971
                            73 C    0.102
    69   6 C    3.993 --    68 C    1.463    70 C    1.365   104 H    0.972
                            74 C    0.102
    70   6 C    3.985 --    69 C    1.365    73 C    1.364    71 C    1.098
    71   6 C    3.958 --    72 N    2.820    70 C    1.098
    72   7 N    2.973 --    71 C    2.820
    73   6 C    3.993 --    74 C    1.464    70 C    1.364   105 H    0.972
                            68 C    0.102
    74   6 C    3.988 --    73 C    1.464    67 C    1.386   106 H    0.971
                            69 C    0.102
    75   6 C    3.914 --    66 C    1.326    78 N    1.208    76 C    1.183
    76   6 C    3.959 --    77 C    1.636    75 C    1.183   107 H    0.973
    77   6 C    3.961 --    76 C    1.636    79 C    1.191   108 H    0.973
    78   7 N    3.406 --    79 C    1.237    75 C    1.208    59 Ni   0.661
    79   6 C    3.902 --    80 C    1.264    78 N    1.237    77 C    1.191
    80   6 C    3.945 --    79 C    1.264    81 C    1.263   132 C    1.184
    81   6 C    3.902 --    80 C    1.263    85 N    1.238    82 C    1.191
    82   6 C    3.961 --    83 C    1.636    81 C    1.191   109 H    0.973
    83   6 C    3.959 --    82 C    1.636    84 C    1.183   110 H    0.973
    84   6 C    3.914 --    86 C    1.327    85 N    1.206    83 C    1.183
    85   7 N    3.406 --    81 C    1.238    84 C    1.206    59 Ni   0.661
    86   6 C    3.939 --    84 C    1.327    95 C    1.321    87 C    1.029
    87   6 C    3.963 --    88 C    1.386    94 C    1.386    86 C    1.029
    88   6 C    3.988 --    89 C    1.463    87 C    1.386   111 H    0.971
                            93 C    0.102
    89   6 C    3.993 --    88 C    1.463    90 C    1.364   112 H    0.972
                            94 C    0.102
    90   6 C    3.985 --    89 C    1.364    93 C    1.364    91 C    1.098
    91   6 C    3.958 --    92 N    2.820    90 C    1.098
    92   7 N    2.973 --    91 C    2.820
    93   6 C    3.993 --    94 C    1.463    90 C    1.364   113 H    0.972
                            88 C    0.102
    94   6 C    3.988 --    93 C    1.463    87 C    1.386   114 H    0.971
                            89 C    0.102
    95   6 C    3.920 --    86 C    1.321    99 N    1.223    96 C    1.176
    96   6 C    3.963 --    97 C    1.650    95 C    1.176   115 H    0.973
    97   6 C    3.960 --    96 C    1.650    98 C    1.174   116 H    0.975
    98   6 C    3.922 --    60 C    1.365    99 N    1.212    97 C    1.174
    99   7 N    3.402 --    95 C    1.223    98 C    1.212    59 Ni   0.664
   100   1 H    1.000 --    60 C    0.970
   101   1 H    0.997 --    62 C    0.975
   102   1 H    1.004 --    63 C    0.973
   103   1 H    1.003 --    68 C    0.971
   104   1 H    1.000 --    69 C    0.972
   105   1 H    1.000 --    73 C    0.972
   106   1 H    1.003 --    74 C    0.971
   107   1 H    1.004 --    76 C    0.973
   108   1 H    1.001 --    77 C    0.973
   109   1 H    1.001 --    82 C    0.973
   110   1 H    1.004 --    83 C    0.973
   111   1 H    1.003 --    88 C    0.971
   112   1 H    1.000 --    89 C    0.972
   113   1 H    1.000 --    93 C    0.972
   114   1 H    1.003 --    94 C    0.971
   115   1 H    1.004 --    96 C    0.973
   116   1 H    0.997 --    97 C    0.975
   117   6 C    3.878 --   118 C    2.444    22 C    1.187   120 C    0.187
   118   6 C    3.938 --   117 C    2.444   119 C    1.342
   119   6 C    3.893 --   120 C    2.339   118 C    1.342   122 C    0.183
   120   6 C    3.927 --   119 C    2.339   121 C    1.368   117 C    0.187
   121   6 C    3.926 --   122 C    2.338   120 C    1.368   124 C    0.187
   122   6 C    3.894 --   121 C    2.338   123 C    1.343   119 C    0.183
   123   6 C    3.935 --   124 C    2.441   122 C    1.343
   124   6 C    3.878 --   123 C    2.441   134 C    1.189   121 C    0.187
   125   6 C    3.878 --   126 C    2.444   154 C    1.187   128 C    0.187
   126   6 C    3.935 --   125 C    2.444   127 C    1.340
   127   6 C    3.894 --   128 C    2.341   126 C    1.340   130 C    0.183
   128   6 C    3.926 --   127 C    2.341   129 C    1.365   125 C    0.187
   129   6 C    3.927 --   130 C    2.342   128 C    1.365   132 C    0.187
   130   6 C    3.893 --   129 C    2.342   131 C    1.339   127 C    0.183
   131   6 C    3.938 --   132 C    2.447   130 C    1.339
   132   6 C    3.877 --   131 C    2.447    80 C    1.184   129 C    0.187
   133  28 Ni   3.006 --   173 N    0.660   139 N    0.660   152 N    0.660
                           159 N    0.660
   134   6 C    3.935 --   135 C    1.259   172 C    1.259   124 C    1.189
   135   6 C    3.902 --   134 C    1.259   139 N    1.239   136 C    1.193
   136   6 C    3.959 --   137 C    1.633   135 C    1.193   174 H    0.973
   137   6 C    3.959 --   136 C    1.633   138 C    1.186   175 H    0.973
   138   6 C    3.912 --   140 C    1.324   139 N    1.205   137 C    1.186
   139   7 N    3.399 --   135 C    1.239   138 C    1.205   133 Ni   0.660
   140   6 C    3.934 --   138 C    1.324   149 C    1.324   141 C    1.031
   141   6 C    3.963 --   148 C    1.385   142 C    1.385   140 C    1.031
   142   6 C    3.987 --   143 C    1.464   141 C    1.385   176 H    0.971
                           147 C    0.102
   143   6 C    3.993 --   142 C    1.464   144 C    1.364   177 H    0.972
                           148 C    0.102
   144   6 C    3.984 --   147 C    1.364   143 C    1.364   145 C    1.098
   145   6 C    3.958 --   146 N    2.820   144 C    1.098
   146   7 N    2.973 --   145 C    2.820
   147   6 C    3.993 --   148 C    1.463   144 C    1.364   178 H    0.972
                           142 C    0.102
   148   6 C    3.987 --   147 C    1.463   141 C    1.385   179 H    0.971
                           143 C    0.102
   149   6 C    3.912 --   140 C    1.324   152 N    1.206   150 C    1.186
   150   6 C    3.959 --   151 C    1.633   149 C    1.186   180 H    0.973
   151   6 C    3.959 --   150 C    1.633   153 C    1.193   181 H    0.973
   152   7 N    3.399 --   153 C    1.238   149 C    1.206   133 Ni   0.660
   153   6 C    3.902 --   154 C    1.260   152 N    1.238   151 C    1.193
   154   6 C    3.935 --   155 C    1.260   153 C    1.260   125 C    1.187
   155   6 C    3.902 --   154 C    1.260   159 N    1.238   156 C    1.193
   156   6 C    3.959 --   157 C    1.633   155 C    1.193   182 H    0.973
   157   6 C    3.959 --   156 C    1.633   158 C    1.186   183 H    0.973
   158   6 C    3.912 --   160 C    1.324   159 N    1.206   157 C    1.186
   159   7 N    3.399 --   155 C    1.238   158 C    1.206   133 Ni   0.660
   160   6 C    3.934 --   169 C    1.324   158 C    1.324   161 C    1.031
   161   6 C    3.963 --   168 C    1.385   162 C    1.385   160 C    1.031
   162   6 C    3.987 --   163 C    1.464   161 C    1.385   184 H    0.971
                           167 C    0.102
   163   6 C    3.993 --   162 C    1.464   164 C    1.364   185 H    0.972
                           168 C    0.102
   164   6 C    3.984 --   167 C    1.364   163 C    1.364   165 C    1.098
   165   6 C    3.958 --   166 N    2.820   164 C    1.098
   166   7 N    2.973 --   165 C    2.820
   167   6 C    3.993 --   168 C    1.463   164 C    1.364   186 H    0.972
                           162 C    0.102
   168   6 C    3.988 --   167 C    1.463   161 C    1.385   187 H    0.971
                           163 C    0.102
   169   6 C    3.912 --   160 C    1.324   173 N    1.205   170 C    1.186
   170   6 C    3.959 --   171 C    1.633   169 C    1.186   188 H    0.973
   171   6 C    3.959 --   170 C    1.633   172 C    1.193   189 H    0.973
   172   6 C    3.902 --   134 C    1.259   173 N    1.239   171 C    1.193
   173   7 N    3.399 --   172 C    1.239   169 C    1.205   133 Ni   0.660
   174   1 H    1.001 --   136 C    0.973
   175   1 H    1.003 --   137 C    0.973
   176   1 H    1.003 --   142 C    0.971
   177   1 H    1.000 --   143 C    0.972
   178   1 H    1.000 --   147 C    0.972
   179   1 H    1.003 --   148 C    0.971
   180   1 H    1.003 --   150 C    0.973
   181   1 H    1.001 --   151 C    0.973
   182   1 H    1.001 --   156 C    0.973
   183   1 H    1.003 --   157 C    0.973
   184   1 H    1.003 --   162 C    0.971
   185   1 H    1.000 --   163 C    0.972
   186   1 H    1.000 --   167 C    0.972
   187   1 H    1.003 --   168 C    0.971
   188   1 H    1.003 --   170 C    0.973
   189   1 H    1.001 --   171 C    0.973
 ---------------------------------------------------------------------------

           -------------------------------------------------
          | TOTAL ENERGY             -345.649747807141 Eh   |
          | GRADIENT NORM               0.000301148949 Eh/α |
          | HOMO-LUMO GAP               1.084206302860 eV   |
           -------------------------------------------------

 * finished run on 2022/07/30 at 11:47:09.389
