   * xtb version 6.5.1 (b24c23e) compiled by 'conda@728c89f4b128' on 2022-07-12
          program call               : xtb Co_PhCHO_C6_2.xyz --gfn 1 --opt -T 48

   ID    Z sym.   atoms
    1   27 Co     1, 61
    2    6 C      2-6, 8-13, 15-19, 21-26, 28-33, 35-40, 62-66, 68-73, 75-79,
                  81-86, 88-93, 95-100, 121-126
    3    7 N      7, 20, 27, 41, 67, 80, 87, 101
    4    8 O      14, 34, 74, 94
    5    1 H      42-60, 102-120
########################################################################
[WARNING] Please study the warnings concerning your input carefully
-1- prog_main_parseArguments: Unknown option '-T' provided
########################################################################

          :  Hamiltonian                  GFN1-xTB          :
 * total energy  :  -227.8674498 Eh     change        0.2625598E-09 Eh
 * total energy  :  -227.9542850 Eh     change       -0.8683518E-01 Eh
 * total energy  :  -227.9992712 Eh     change       -0.4498624E-01 Eh
 * total energy  :  -228.0123156 Eh     change       -0.1304438E-01 Eh
 * total energy  :  -228.0201562 Eh     change       -0.7840559E-02 Eh
 * total energy  :  -228.0242104 Eh     change       -0.4054181E-02 Eh
 * total energy  :  -228.0270959 Eh     change       -0.2885579E-02 Eh
 * total energy  :  -228.0284655 Eh     change       -0.1369591E-02 Eh
 * total energy  :  -228.0293215 Eh     change       -0.8560078E-03 Eh
 * total energy  :  -228.0299411 Eh     change       -0.6195832E-03 Eh
 * total energy  :  -228.0320129 Eh     change       -0.1701669E-04 Eh
 * total energy  :  -228.0320266 Eh     change       -0.1363392E-04 Eh
 * total energy  :  -228.0320212 Eh     change        0.5358503E-05 Eh
 * total energy  :  -228.0320277 Eh     change       -0.6473404E-05 Eh
 * total energy  :  -228.0319997 Eh     change        0.2799459E-04 Eh
 * total energy  :  -228.0320327 Eh     change       -0.3299607E-04 Eh
 * total energy  :  -228.0320201 Eh     change        0.1255413E-04 Eh
 * total energy  :  -228.0320375 Eh     change       -0.1739500E-04 Eh
 * total energy  :  -228.0320403 Eh     change       -0.2765154E-05 Eh
   *** GEOMETRY OPTIMIZATION CONVERGED AFTER 50 ITERATIONS ***

 final structure:
================
126
 xtb: 6.5.1 (b24c23e)
Co          14.59365006289793        0.05739669188798       -0.12181707054521
C           11.22581239616125        0.10656334118019       -0.30054743759970
C           11.90373621811868        1.30479676810580       -0.36103608595919
C           11.25633676554780        2.57520363649522       -0.48644602638099
C           12.20564501874557        3.51654948561548       -0.27627539073550
C           13.43694764411867        2.82010410444610       -0.04237542562942
N           13.24791087384934        1.46511331854670       -0.13399377321478
C           14.61369535896413        3.43193496723650        0.36972014957096
C           14.62190075132155        4.89535667461511        0.60021439967182
C           14.83786426653170        5.40455326680262        1.88371909067384
C           14.84480529363958        6.76930579760984        2.09936100926063
C           14.64119968604845        7.65467358814883        1.03580863415183
C           14.65501054976752        9.10694875364092        1.29138358046725
O           14.83239861977613        9.59310966995075        2.37868390596823
C           14.42951137850354        7.14591674341686       -0.24770734849325
C           14.41820095946960        5.77900100034577       -0.46253634434254
C           15.78927098473201        2.72013255294785        0.55122620289432
C           17.04209665337308        3.32519670748486        0.89244308482046
C           17.99238057995286        2.37428636270520        0.73018722719939
N           15.96830909217548        1.39173449926336        0.23554968299456
C           17.31819031105168        1.19078767149506        0.29935688118014
C           17.98494732483216        0.02854716047816       -0.09627380390380
C           17.29694326322509       -1.13784252668776       -0.43816094326905
C           17.94823356057880       -2.34891453221251       -0.82494142913655
C           16.98999560571545       -3.30517233921792       -0.87670443637290
C           15.75574678789526       -2.67210276928405       -0.52213272764098
N           15.94936262437686       -1.32765570768553       -0.30759739040467
C           14.55542961138458       -3.34743123856428       -0.35294628305138
C           14.54773175955358       -4.82303633011533       -0.45921540498173
C           13.77484754764665       -5.45747337475747       -1.43583269096687
C           13.78002887940473       -6.83644512599951       -1.54687514002300
C           14.55433001875851       -7.60946157529106       -0.67841143423266
C           14.57854639261820       -9.08048105905057       -0.77765700880298
O           15.23106427954895       -9.78916287640769       -0.05507390058675
C           15.32424957923348       -6.97510897861610        0.30216991309153
C           15.32383803069445       -5.59772170272658        0.40837199713778
C           13.36287618625232       -2.67555051485072       -0.12164208338075
C           12.09499359047406       -3.32224189834071        0.05336259191015
C           11.15474180712899       -2.34868803686782        0.03889598944751
C           11.85091205725437       -1.10815167309135       -0.11857235909634
N           13.20724119595108       -1.31291876977828       -0.15467009193968
H           10.14476479535017        0.12322692287369       -0.37268310659028
H           10.20454671872586        2.70781856719370       -0.68362795236761
H           12.09138465275024        4.58819074123024       -0.26104229386870
H           14.98570625578297        4.71975132450878        2.71101592621256
H           15.00677137666202        7.17374020233422        3.09273747245287
H           14.48666420661418        9.73039005393972        0.38742956512126
H           14.27534794772215        7.82615450265136       -1.07903583483434
H           14.26748546818211        5.38696188871196       -1.46201719826167
H           17.16992531789379        4.35378146199111        1.18741441522077
H           19.05781731363533        2.45357972602134        0.87384672132530
H           19.00509783794776       -2.44124374283873       -1.01624687013323
H           17.09700110386106       -4.34585168884942       -1.13569425414076
H           13.18499410812042       -4.85949231445645       -2.12137122819752
H           13.18360796742702       -7.32037796003959       -2.31349311311829
H           13.94167249573993       -9.49291870818615       -1.58910007609238
H           15.91950989413604       -7.58376066942762        0.97433461013302
H           15.91433398929620       -5.10891919036363        1.17498707812772
H           11.95661589197177       -4.38531691491759        0.16560693855050
H           10.08393302618038       -2.44116399178242        0.12597197417946
Co          30.54392117570814       -0.03994477572193       -0.13061020307175
C           33.91080717280215       -0.06355207349023       -0.30891450173275
C           33.23224098917039       -1.23877747324132       -0.54921208073932
C           33.87750368050464       -2.47703364240344       -0.86422137058411
C           32.92766788506945       -3.43852522515291       -0.79284205450764
C           31.69820587645701       -2.78381498174772       -0.45290201381648
N           31.88844247663976       -1.43019458457827       -0.34526956683539
C           30.52384561970395       -3.44833328927310       -0.12372640800012
C           30.51585494539260       -4.92968983314193       -0.10387952512010
C           30.31433385019061       -5.61634438441791        1.09657340565170
C           30.30767059538434       -6.99790058557718        1.11578775201317
C           30.49664947600498       -7.72279019346964       -0.06542956488107
C           30.48297033326396       -9.19666143195623       -0.01913035395222
O           30.31875640534026       -9.83268340012942        0.99009877708089
C           30.69385023048788       -7.03648292571110       -1.26590431493417
C           30.70538887481653       -5.65290127887699       -1.28399366956931
C           29.35061511448786       -2.76942122920535        0.16658981087821
C           28.09945729585851       -3.41553502769597        0.42979220342651
C           27.14880431901753       -2.45144754305833        0.40471920218232
N           29.17054245356741       -1.41021552042498        0.03850323286474
C           27.82113037712132       -1.21998266577181        0.13567937546556
C           27.15389087770589       -0.01525141681954       -0.10015427148932
C           27.84226697926931        1.18614411176631       -0.28402086526191
C           27.19285299179708        2.43858171286858       -0.50773504628579
C           28.15104134263860        3.39280706838130       -0.42409445420875
C           29.38344148716227        2.71727580471492       -0.15083993368875
N           29.18924806521123        1.35628026189795       -0.12340015864980
C           30.58165184168643        3.36185621663701        0.12254276267123
C           30.58851470177711        4.83727979672838        0.22839406855806
C           31.37579335995453        5.60515849325353       -0.63432577596227
C           31.37128433557080        6.98569632343591       -0.54492635713714
C           30.58279231256719        7.62629814390941        0.41385196934634
C           30.55922831541547        9.09621982967222        0.52820664844987
O           29.89472896672997        9.69396523504081        1.33528268925542
C           29.79790314083344        6.85803492965761        1.28011530477153
C           29.79799116755484        5.47978834354084        1.18632116959412
C           31.77263366385366        2.66306858989693        0.26680746645749
C           33.03910777723531        3.27604405260467        0.54385592077489
C           33.97980244185652        2.31440697663183        0.39338972935739
C           33.28529410128583        1.11079361426072        0.05074568653016
N           31.92915014193939        1.31959003125530        0.03734495890295
H           34.99198645156159       -0.06988392877504       -0.38061484468361
H           34.92842402272316       -2.57977856241572       -1.08272739691205
H           33.04043367022171       -4.50062760343900       -0.93762996100807
H           30.17757994025865       -5.05626816347839        2.01463428084351
H           30.15708510903673       -7.53966723634369        2.04336859218366
H           30.63845277104624       -9.68504017521955       -1.00476319135959
H           30.83660424021057       -7.59144629204640       -2.18743963590988
H           30.84517324946490       -5.12246879294175       -2.21912239849296
H           27.97280845266415       -4.47480738665103        0.58232689688780
H           26.08417758297426       -2.54985598674449        0.54248133369678
H           26.13705672096781        2.55638103532562       -0.69081423616705
H           28.04506200627559        4.45898041643520       -0.54074749377221
H           31.97681400014627        5.11176108013388       -1.38983752032706
H           31.97892142548917        7.57445014897223       -1.22444092222746
H           31.20879692098147        9.62071784444619       -0.20471778073453
H           29.19130099100753        7.36403675203693        2.02348268691906
H           29.19641877779396        4.88626318104845        1.86539954571292
H           33.17657249222284        4.31102936659927        0.81176828398651
H           35.04994354798689        2.39259246281374        0.50041693076095
C           23.18383213429744        0.00777554151276       -0.15085640421087
C           21.95507115911496        0.01364006230514       -0.15048716411961
C           20.61162397783059        0.02067215055663       -0.14069790415663
C           19.38763467379737        0.02429636310383       -0.12176834735962
C           24.52729765162289        0.00086219369718       -0.14159212126062
C           25.75127393578982       -0.00760346895699       -0.12481395556098

          :  Hamiltonian                  GFN1-xTB          :
         :: total energy            -228.032040275204 Eh    ::
         :: gradient norm              0.000917412756 Eh/a0 ::
         :: HOMO-LUMO gap              0.007522084847 eV    ::
         :: SCC energy              -231.604986752072 Eh    ::
         :: repulsion energy           3.684114686869 Eh    ::

    * Orbital Energies and Occupations

         #    Occupation            Energy/Eh            Energy/eV
      -------------------------------------------------------------
         1        2.0000           -0.7931021             -21.5814
       ...           ...                  ...                  ...
       196        2.0000           -0.4353602             -11.8468
       197        2.0000           -0.4288921             -11.6707
       198        2.0000           -0.4098837             -11.1535
       199        2.0000           -0.4098532             -11.1527
       200        2.0000           -0.4096325             -11.1467
       201        2.0000           -0.4089377             -11.1278
       202        2.0000           -0.4077273             -11.0948
       203        1.9998           -0.4054472             -11.0328
       204        1.9998           -0.4054185             -11.0320
       205        1.9998           -0.4053098             -11.0290
       206        1.9998           -0.4052816             -11.0283
       207        1.9004           -0.3995120             -10.8713
       208        1.1227           -0.3969453             -10.8014 (HOMO)
       209        0.9778           -0.3966689             -10.7939 (LUMO)
       210                         -0.3512581              -9.5582
       211                         -0.3440221              -9.3613
       212                         -0.3439955              -9.3606
       213                         -0.3404702              -9.2647
       214                         -0.3289216              -8.9504
       215                         -0.3285716              -8.9409
       216                         -0.3236326              -8.8065
       217                         -0.3236188              -8.8061
       218                         -0.3102944              -8.4435
       219                         -0.3072222              -8.3599
       ...                                ...                  ...
       438                          1.5655096              42.5997
      -------------------------------------------------------------
                  HL-Gap            0.0002764 Eh            0.0075 eV

Wiberg/Mayer (AO) data.
largest (>0.10) Wiberg bond orders for each atom

     #   Z sym  total        # sym  WBO       # sym  WBO       # sym  WBO
 ---------------------------------------------------------------------------
     1  27 Co   3.045 --    41 N    0.640     7 N    0.638    20 N    0.636
                            27 N    0.633
     2   6 C    3.930 --     3 C    1.366    40 C    1.364    42 H    0.970
     3   6 C    3.923 --     2 C    1.366     7 N    1.200     4 C    1.173
     4   6 C    3.960 --     5 C    1.650     3 C    1.173    43 H    0.975
     5   6 C    3.963 --     4 C    1.650     6 C    1.176    44 H    0.972
     6   6 C    3.919 --     8 C    1.317     7 N    1.214     5 C    1.176
     7   7 N    3.348 --     6 C    1.214     3 C    1.200     1 Co   0.638
     8   6 C    3.932 --    17 C    1.335     6 C    1.317     9 C    1.026
     9   6 C    3.986 --    16 C    1.385    10 C    1.383     8 C    1.026
    10   6 C    3.988 --    11 C    1.470     9 C    1.383    45 H    0.972
                            15 C    0.100
    11   6 C    3.988 --    10 C    1.470    12 C    1.371    46 H    0.968
                            16 C    0.101
    12   6 C    3.984 --    15 C    1.379    11 C    1.371    13 C    1.048
    13   6 C    3.864 --    14 O    1.809    12 C    1.048    47 H    0.942
    14   8 O    2.005 --    13 C    1.809
    15   6 C    3.993 --    16 C    1.464    12 C    1.379    48 H    0.971
                            10 C    0.100
    16   6 C    3.988 --    15 C    1.464     9 C    1.385    49 H    0.972
                            11 C    0.101
    17   6 C    3.915 --     8 C    1.335    20 N    1.191    18 C    1.179
    18   6 C    3.958 --    19 C    1.640    17 C    1.179    50 H    0.972
    19   6 C    3.962 --    18 C    1.640    21 C    1.189    51 H    0.973
    20   7 N    3.348 --    21 C    1.232    17 C    1.191     1 Co   0.636
    21   6 C    3.902 --    22 C    1.259    20 N    1.232    19 C    1.189
    22   6 C    3.935 --    23 C    1.261    21 C    1.259   124 C    1.191
    23   6 C    3.902 --    22 C    1.261    27 N    1.227    24 C    1.190
    24   6 C    3.961 --    25 C    1.636    23 C    1.190    52 H    0.973
    25   6 C    3.958 --    24 C    1.636    26 C    1.182    53 H    0.973
    26   6 C    3.916 --    28 C    1.325    27 N    1.197    25 C    1.182
    27   7 N    3.350 --    23 C    1.227    26 C    1.197     1 Co   0.633
    28   6 C    3.933 --    26 C    1.325    37 C    1.320    29 C    1.034
    29   6 C    3.986 --    30 C    1.382    36 C    1.380    28 C    1.034
    30   6 C    3.987 --    31 C    1.465    29 C    1.382    54 H    0.971
                            35 C    0.101
    31   6 C    3.993 --    30 C    1.465    32 C    1.379    55 H    0.971
    32   6 C    3.983 --    31 C    1.379    35 C    1.370    33 C    1.048
    33   6 C    3.864 --    34 O    1.809    32 C    1.048    56 H    0.942
    34   8 O    2.004 --    33 C    1.809
    35   6 C    3.988 --    36 C    1.471    32 C    1.370    57 H    0.968
                            30 C    0.101
    36   6 C    3.986 --    35 C    1.471    29 C    1.380    58 H    0.972
    37   6 C    3.920 --    28 C    1.320    41 N    1.212    38 C    1.175
    38   6 C    3.963 --    39 C    1.650    37 C    1.175    59 H    0.973
    39   6 C    3.958 --    38 C    1.650    40 C    1.174    60 H    0.975
    40   6 C    3.923 --     2 C    1.364    41 N    1.202    39 C    1.174
    41   7 N    3.346 --    37 C    1.212    40 C    1.202     1 Co   0.640
    42   1 H    1.000 --     2 C    0.970
    43   1 H    0.997 --     4 C    0.975
    44   1 H    1.004 --     5 C    0.972
    45   1 H    1.003 --    10 C    0.972
    46   1 H    1.005 --    11 C    0.968
    47   1 H    1.010 --    13 C    0.942
    48   1 H    1.000 --    15 C    0.971
    49   1 H    1.003 --    16 C    0.972
    50   1 H    1.003 --    18 C    0.972
    51   1 H    1.001 --    19 C    0.973
    52   1 H    1.001 --    24 C    0.973
    53   1 H    1.003 --    25 C    0.973
    54   1 H    1.004 --    30 C    0.971
    55   1 H    1.000 --    31 C    0.971
    56   1 H    1.010 --    33 C    0.942
    57   1 H    1.005 --    35 C    0.968
    58   1 H    1.004 --    36 C    0.972
    59   1 H    1.003 --    38 C    0.973
    60   1 H    0.997 --    39 C    0.975
    61  27 Co   3.050 --   101 N    0.641    67 N    0.638    80 N    0.637
                            87 N    0.633
    62   6 C    3.930 --    63 C    1.366   100 C    1.364   102 H    0.970
    63   6 C    3.923 --    62 C    1.366    67 N    1.200    64 C    1.173
    64   6 C    3.960 --    65 C    1.650    63 C    1.173   103 H    0.975
    65   6 C    3.963 --    64 C    1.650    66 C    1.176   104 H    0.972
    66   6 C    3.919 --    68 C    1.317    67 N    1.214    65 C    1.176
    67   7 N    3.348 --    66 C    1.214    63 C    1.200    61 Co   0.638
    68   6 C    3.932 --    77 C    1.335    66 C    1.317    69 C    1.026
    69   6 C    3.986 --    76 C    1.386    70 C    1.383    68 C    1.026
    70   6 C    3.988 --    71 C    1.470    69 C    1.383   105 H    0.972
                            75 C    0.100
    71   6 C    3.988 --    70 C    1.470    72 C    1.371   106 H    0.968
                            76 C    0.101
    72   6 C    3.984 --    75 C    1.379    71 C    1.371    73 C    1.048
    73   6 C    3.864 --    74 O    1.809    72 C    1.048   107 H    0.942
    74   8 O    2.005 --    73 C    1.809
    75   6 C    3.993 --    76 C    1.464    72 C    1.379   108 H    0.971
                            70 C    0.100
    76   6 C    3.988 --    75 C    1.464    69 C    1.386   109 H    0.972
                            71 C    0.101
    77   6 C    3.915 --    68 C    1.335    80 N    1.191    78 C    1.179
    78   6 C    3.958 --    79 C    1.640    77 C    1.179   110 H    0.973
    79   6 C    3.962 --    78 C    1.640    81 C    1.189   111 H    0.973
    80   7 N    3.348 --    81 C    1.232    77 C    1.191    61 Co   0.637
    81   6 C    3.902 --    82 C    1.258    80 N    1.232    79 C    1.189
    82   6 C    3.935 --    83 C    1.260    81 C    1.258   126 C    1.191
    83   6 C    3.902 --    82 C    1.260    87 N    1.227    84 C    1.190
    84   6 C    3.961 --    85 C    1.636    83 C    1.190   112 H    0.973
    85   6 C    3.958 --    84 C    1.636    86 C    1.182   113 H    0.973
    86   6 C    3.916 --    88 C    1.325    87 N    1.197    85 C    1.182
    87   7 N    3.350 --    83 C    1.227    86 C    1.197    61 Co   0.633
    88   6 C    3.933 --    86 C    1.325    97 C    1.320    89 C    1.035
    89   6 C    3.986 --    90 C    1.382    96 C    1.380    88 C    1.035
    90   6 C    3.987 --    91 C    1.465    89 C    1.382   114 H    0.971
                            95 C    0.100
    91   6 C    3.993 --    90 C    1.465    92 C    1.378   115 H    0.971
    92   6 C    3.983 --    91 C    1.378    95 C    1.370    93 C    1.048
    93   6 C    3.864 --    94 O    1.809    92 C    1.048   116 H    0.942
    94   8 O    2.004 --    93 C    1.809
    95   6 C    3.988 --    96 C    1.471    92 C    1.370   117 H    0.968
                            90 C    0.100
    96   6 C    3.986 --    95 C    1.471    89 C    1.380   118 H    0.972
    97   6 C    3.920 --    88 C    1.320   101 N    1.211    98 C    1.175
    98   6 C    3.963 --    99 C    1.649    97 C    1.175   119 H    0.973
    99   6 C    3.958 --    98 C    1.649   100 C    1.174   120 H    0.975
   100   6 C    3.923 --    62 C    1.364   101 N    1.202    99 C    1.174
   101   7 N    3.346 --    97 C    1.211   100 C    1.202    61 Co   0.641
   102   1 H    1.000 --    62 C    0.970
   103   1 H    0.997 --    64 C    0.975
   104   1 H    1.004 --    65 C    0.972
   105   1 H    1.003 --    70 C    0.972
   106   1 H    1.005 --    71 C    0.968
   107   1 H    1.010 --    73 C    0.942
   108   1 H    1.000 --    75 C    0.971
   109   1 H    1.003 --    76 C    0.972
   110   1 H    1.003 --    78 C    0.973
   111   1 H    1.001 --    79 C    0.973
   112   1 H    1.001 --    84 C    0.973
   113   1 H    1.003 --    85 C    0.973
   114   1 H    1.004 --    90 C    0.971
   115   1 H    1.000 --    91 C    0.971
   116   1 H    1.010 --    93 C    0.942
   117   1 H    1.005 --    95 C    0.968
   118   1 H    1.004 --    96 C    0.972
   119   1 H    1.003 --    98 C    0.973
   120   1 H    0.997 --    99 C    0.975
   121   6 C    3.920 --   122 C    2.361   125 C    1.339   124 C    0.189
   122   6 C    3.920 --   121 C    2.361   123 C    1.339   126 C    0.189
   123   6 C    3.931 --   124 C    2.444   122 C    1.339
   124   6 C    3.885 --   123 C    2.444    22 C    1.191   121 C    0.189
   125   6 C    3.930 --   126 C    2.444   121 C    1.339
   126   6 C    3.885 --   125 C    2.444    82 C    1.191   122 C    0.189
 ---------------------------------------------------------------------------

           -------------------------------------------------
          | TOTAL ENERGY             -228.032040275204 Eh   |
          | GRADIENT NORM               0.000917412756 Eh/α |
          | HOMO-LUMO GAP               0.007522084847 eV   |
           -------------------------------------------------

 * finished run on 2022/07/29 at 22:42:18.575
