   * xtb version 6.5.1 (b24c23e) compiled by 'conda@728c89f4b128' on 2022-07-12
          program call               : xtb Ni_p-CP_C4_2.xyz --gfn 1 --opt -T 48

   ID    Z sym.   atoms
    1   28 Ni     1, 63
    2    6 C      2-6, 8-11, 13-24, 27-32, 35-39, 42, 43, 64-68, 70-73,
                  75-86, 89-94, 97-101, 104, 105, 125-128
    3    7 N      7, 12, 33, 34, 69, 74, 95, 96
    4    8 O      25, 26, 40, 41, 87, 88, 102, 103
    5    1 H      44-62, 106-124
########################################################################
[WARNING] Please study the warnings concerning your input carefully
-1- prog_main_parseArguments: Unknown option '-T' provided
########################################################################

          :  Hamiltonian                  GFN1-xTB          :
 * total energy  :  -243.7771249 Eh     change       -0.5496616E-08 Eh
 * total energy  :  -243.9309567 Eh     change       -0.1538318E+00 Eh
 * total energy  :  -243.9902685 Eh     change       -0.5931182E-01 Eh
 * total energy  :  -244.0182463 Eh     change       -0.2797779E-01 Eh
 * total energy  :  -244.0346408 Eh     change       -0.1639453E-01 Eh
 * total energy  :  -244.0451568 Eh     change       -0.1051597E-01 Eh
 * total energy  :  -244.0554895 Eh     change       -0.1033269E-01 Eh
 * total energy  :  -244.0627754 Eh     change       -0.7285877E-02 Eh
 * total energy  :  -244.0695766 Eh     change       -0.6801276E-02 Eh
 * total energy  :  -244.0743220 Eh     change       -0.4745374E-02 Eh
 * total energy  :  -244.0844567 Eh     change       -0.1175332E-04 Eh
 * total energy  :  -244.0844669 Eh     change       -0.1022907E-04 Eh
 * total energy  :  -244.0844772 Eh     change       -0.1035539E-04 Eh
 * total energy  :  -244.0844845 Eh     change       -0.7292582E-05 Eh
 * total energy  :  -244.0844923 Eh     change       -0.7797774E-05 Eh
 * total energy  :  -244.0845019 Eh     change       -0.9603782E-05 Eh
 * total energy  :  -244.0845090 Eh     change       -0.7050999E-05 Eh
 * total energy  :  -244.0845160 Eh     change       -0.7055998E-05 Eh
 * total energy  :  -244.0845192 Eh     change       -0.3185864E-05 Eh
   *** GEOMETRY OPTIMIZATION CONVERGED AFTER 44 ITERATIONS ***

 final structure:
================
128
 xtb: 6.5.1 (b24c23e)
Ni          17.72710351578828       -0.06807065623608        0.04208524216959
C           14.33399927389819       -0.15926552049975        0.06278738105419
C           14.99218642245487       -0.31143077982920        1.26503222109406
C           14.31845244251815       -0.49053010475912        2.51491690762564
C           15.27376122851314       -0.49523049648386        3.47321478570923
C           16.53222265067231       -0.33046867476691        2.80590937441941
N           16.35002635030763       -0.23311027284369        1.44916884564817
C           17.74610408992260       -0.19950892909212        3.46714078019028
C           18.95314064185749       -0.03420604105723        2.80203116774785
C           20.21767331513022        0.05733108224466        3.46706644811514
C           21.16595631800165        0.09310669075896        2.50081734769108
N           19.12608036858783       -0.04052043424237        1.43623950776957
C           20.47978385719567        0.02097938198579        1.25013342277962
C           21.14124341491673       -0.03634233206475        0.02081213335935
C           20.46372495807954       -0.08943017225279       -1.19986522150938
C           21.13297038704165       -0.16831595470631       -2.45916016321352
C           20.17259285466840       -0.12259688984314       -3.41313276775033
C           18.91858422370941       -0.00694590148684       -2.73206832911131
C           17.69784977534905        0.12288902859518       -3.38161741246840
C           17.68709606263845        0.20647648628601       -4.86063262108370
C           17.02795750950555       -0.76460948616260       -5.61915083050770
C           17.02128433081646       -0.68605551269787       -6.99957305691355
C           17.67028262919497        0.36661105371799       -7.64756298228977
C           17.63302326119885        0.40897730317434       -9.12910462559162
O           18.28604210361008        1.45744738323117       -9.65270302382872
O           17.07697332244984       -0.40714516395720       -9.81908246345887
C           18.32874726688659        1.33939159317125       -6.89478707941589
C           18.33732633382099        1.25678834806503       -5.51336248749775
C           16.48678004955342        0.16847239866049       -2.70274192062112
C           15.21563448081415        0.33443990708550       -3.34536702220373
C           14.27308645387090        0.24331023448191       -2.37859533265870
C           14.96916705053466        0.03834630800953       -1.14521700791045
N           16.32670451869439        0.02443521379081       -1.34741993747839
N           19.10787466262205       -0.02106346703939       -1.36880522488859
C           17.75389613436675       -0.24521196336584        4.94969802252391
C           17.41470485591053       -1.42209574723904        5.62119927845047
C           17.42251670718083       -1.46247659752378        7.00341672650766
C           17.76418123096446       -0.32571127757264        7.73835607014417
C           17.75425634446452       -0.41774483823188        9.21816024927108
O           18.09640111617302        0.72617222961318        9.82980756073928
O           17.47091334289858       -1.41262826237774        9.83565101233215
C           18.10169073132687        0.85230358191302        7.07147194171028
C           18.09866304517872        0.88900456709780        5.68779392706537
H           13.25059493367398       -0.18511438361737        0.06940953738443
H           13.24992509026993       -0.58454985921151        2.62527977139435
H           15.14963374418665       -0.58834860745223        4.53980389577035
H           20.35263880997782        0.07423555701738        4.53613771983413
H           22.23683610536964        0.15304385132864        2.60914968880461
H           22.20106177441269       -0.24858472725252       -2.58084224009750
H           20.29217858025822       -0.17082675839121       -4.48304510181576
H           16.53480241063720       -1.58999513126894       -5.11842814965147
H           16.51545726823797       -1.43873785443011       -7.59431238881614
H           18.21504167536656        1.41224539282302      -10.62003779112777
H           18.83169057369263        2.15949089930401       -7.39338963707407
H           18.83866302839315        2.01937472113613       -4.92809326881429
H           15.07573675652760        0.50294287709588       -4.40068896125243
H           13.20084158210062        0.31001279530219       -2.47120916570809
H           17.15857687078925       -2.30785588527887        5.05116590369104
H           17.16472731379235       -2.37354021793307        7.53222041870486
H           18.06561724225872        0.58230476644356       10.78962520398316
H           18.36522366398008        1.73742270249664        7.63833896071416
H           18.35194339324291        1.80656071883226        5.16881823561278
Ni          31.16133514727929       -0.06285598901514       -0.04960724826736
C           34.55438049985476       -0.15158410023061       -0.08090656310613
C           33.89607698099363       -0.16443435244726       -1.29261533548155
C           34.56967079686368       -0.19872383965194       -2.55487877479968
C           33.61432993773058       -0.09244683552493       -3.50724658167127
C           32.35597374766292       -0.00502628315128       -2.82529245267600
N           32.53827140156370       -0.06480470165936       -1.46638645390855
C           31.14213769507212        0.20201251533183       -3.46687193582888
C           29.93521030003977        0.28984805122207       -2.78699366063858
C           28.67065156984347        0.45812240044836       -3.43682286801780
C           27.72245414055078        0.38196145394702       -2.47282906992755
N           29.76237498888132        0.12548771803413       -1.43110458460305
C           28.40870689303231        0.16526546869646       -1.23899155080185
C           27.74724350514914       -0.03420612155287       -0.02462567475427
C           28.42479593951406       -0.22855391930295        1.18165948276550
C           27.75579263091924       -0.45311459183285        2.42340566950745
C           28.71627404519658       -0.51737039737443        3.37621882617985
C           29.97010037367320       -0.32277656547430        2.71304925399240
C           31.19080246670265       -0.26756724448523        3.37323394861195
C           31.20162670680592       -0.35497929861561        4.85202542093259
C           31.86169659306142       -1.40648011539464        5.49349533719124
C           31.86830936486534       -1.48774358765090        6.87375792203736
C           31.21832515726059       -0.51749296152635        7.63882755404857
C           31.25544803608070       -0.64644553896903        9.11535821637288
O           30.60121477222080        0.33381337448893        9.75641001446811
O           31.81229976590328       -1.53622006187752        9.70657640385387
C           30.55900236451339        0.53507932742924        7.00326529375786
C           30.55047789085108        0.61242764507606        5.62153203835612
C           32.40176924544831       -0.14333545476626        2.70408846658906
C           33.67292525864977       -0.05182187468866        3.36144715333851
C           34.61543136507719       -0.03140120526989        2.39055887483966
C           33.91930690891338       -0.09370719134945        1.14184077367546
N           32.56178790048229       -0.13082334378808        1.34117875623926
N           29.78064807377213       -0.17944672477033        1.35730254090849
C           31.13432483002489        0.32754765937510       -4.94481472486682
C           31.47272058973027       -0.76443414245901       -5.74736716268571
C           31.46520035256797       -0.64533267433191       -7.12503093042381
C           31.12447983335743        0.56876541170051       -7.72418584226315
C           31.13431035984858        0.64760786336802       -9.20476444729458
O           30.79363520171204        1.85477549022250       -9.68065115896771
O           31.41747553350780       -0.26967683669335       -9.93268691265888
C           30.78771850352058        1.66238474720627       -6.92609115276150
C           30.79050719805954        1.53948135833493       -5.54738415063271
H           35.63777634253168       -0.17678326327003       -0.09054694942649
H           35.63814372995136       -0.27994503661122       -2.67544938904771
H           33.73838035033142       -0.06208281780388       -4.57747172092413
H           28.53564133822924        0.59877845496130       -4.49672976377454
H           26.65156806729078        0.45420346198696       -2.57336077546862
H           26.68779147196765       -0.54778408394400        2.53508363482736
H           28.59687080544142       -0.68912178938913        4.43337993489399
H           32.35560116205431       -2.16812574301291        4.90092420199628
H           32.37482639746537       -2.30357278265542        7.37771176411593
H           30.67215151798261        0.17724465313384       10.71206467459422
H           30.05532383390202        1.29170924789660        7.59313042217135
H           30.04843374566110        1.43700454869380        5.12813171790970
H           33.81286746053498       -0.00535457695248        4.42912200742299
H           35.68767232229023        0.02439527641834        2.49017207073681
H           31.72802708060642       -1.71015195753488       -5.28309992827583
H           31.72227866951689       -1.48966676889319       -7.75521525818297
H           30.82476505323015        1.82244656747872      -10.65064007202894
H           30.52500367567670        2.60711462657150       -7.38727722205671
H           30.53782115082631        2.39136194497011       -4.92621830425968
C           23.76882881126570       -0.03514332493828        0.00670026453542
C           22.54754758235924       -0.03779537107025        0.01140074721936
C           25.11967935687908       -0.03324877731102       -0.00571296802358
C           26.34094075677567       -0.03551119221337       -0.01542027486036

          :  Hamiltonian                  GFN1-xTB          :
         :: total energy            -244.084519225214 Eh    ::
         :: gradient norm              0.000605259210 Eh/a0 ::
         :: HOMO-LUMO gap              1.228752190438 eV    ::
         :: SCC energy              -247.574644820204 Eh    ::
         :: repulsion energy           3.603819269480 Eh    ::

    * Orbital Energies and Occupations

         #    Occupation            Energy/Eh            Energy/eV
      -------------------------------------------------------------
         1        2.0000           -0.8337205             -22.6867
       ...           ...                  ...                  ...
       205        2.0000           -0.4337809             -11.8038
       206        2.0000           -0.4080810             -11.1044
       207        2.0000           -0.4080766             -11.1043
       208        2.0000           -0.4076231             -11.0920
       209        2.0000           -0.4076189             -11.0919
       210        2.0000           -0.4068412             -11.0707
       211        2.0000           -0.4068385             -11.0706
       212        2.0000           -0.4062372             -11.0543
       213        2.0000           -0.4057838             -11.0419
       214        2.0000           -0.4057772             -11.0418
       215        2.0000           -0.4057075             -11.0399
       216        2.0000           -0.4057044             -11.0398
       217        2.0000           -0.3942457             -10.7280 (HOMO)
       218                         -0.3490899              -9.4992 (LUMO)
       219                         -0.3407321              -9.2718
       220                         -0.3407295              -9.2717
       221                         -0.3382509              -9.2043
       222                         -0.3382351              -9.2038
       223                         -0.3355589              -9.1310
       224                         -0.3162393              -8.6053
       225                         -0.3146445              -8.5619
       226                         -0.3102613              -8.4426
       227                         -0.3102568              -8.4425
       228                         -0.3026602              -8.2358
       ...                                ...                  ...
       446                          1.5092521              41.0688
      -------------------------------------------------------------
                  HL-Gap            0.0451558 Eh            1.2288 eV

Wiberg/Mayer (AO) data.
largest (>0.10) Wiberg bond orders for each atom

     #   Z sym  total        # sym  WBO       # sym  WBO       # sym  WBO
 ---------------------------------------------------------------------------
     1  28 Ni   3.009 --    33 N    0.664     7 N    0.664    34 N    0.661
                            12 N    0.661
     2   6 C    3.935 --     3 C    1.364    32 C    1.364    44 H    0.970
     3   6 C    3.922 --     2 C    1.364     7 N    1.213     4 C    1.174
     4   6 C    3.960 --     5 C    1.651     3 C    1.174    45 H    0.975
     5   6 C    3.963 --     4 C    1.651     6 C    1.176    46 H    0.972
     6   6 C    3.919 --     8 C    1.324     7 N    1.222     5 C    1.176
     7   7 N    3.402 --     6 C    1.222     3 C    1.213     1 Ni   0.664
     8   6 C    3.938 --     9 C    1.329     6 C    1.324    35 C    1.023
     9   6 C    3.914 --     8 C    1.329    12 N    1.206    10 C    1.183
    10   6 C    3.959 --    11 C    1.637     9 C    1.183    47 H    0.973
    11   6 C    3.961 --    10 C    1.637    13 C    1.190    48 H    0.973
    12   7 N    3.406 --    13 C    1.239     9 C    1.206     1 Ni   0.661
    13   6 C    3.904 --    14 C    1.265    12 N    1.239    11 C    1.190
    14   6 C    3.944 --    15 C    1.265    13 C    1.265   126 C    1.180
    15   6 C    3.904 --    14 C    1.265    34 N    1.237    16 C    1.191
    16   6 C    3.961 --    17 C    1.636    15 C    1.191    49 H    0.973
    17   6 C    3.959 --    16 C    1.636    18 C    1.183    50 H    0.972
    18   6 C    3.915 --    19 C    1.326    34 N    1.208    17 C    1.183
    19   6 C    3.939 --    18 C    1.326    29 C    1.322    20 C    1.030
    20   6 C    3.987 --    28 C    1.386    21 C    1.385    19 C    1.030
    21   6 C    3.987 --    22 C    1.464    20 C    1.385    51 H    0.972
                            27 C    0.103
    22   6 C    3.990 --    21 C    1.464    23 C    1.385    52 H    0.968
                            28 C    0.103
    23   6 C    3.983 --    27 C    1.389    22 C    1.385    24 C    1.009
    24   6 C    3.836 --    26 O    1.690    25 O    1.088    23 C    1.009
    25   8 O    2.096 --    24 C    1.088    53 H    0.838    26 O    0.129
    26   8 O    1.958 --    24 C    1.690    25 O    0.129
    27   6 C    3.991 --    28 C    1.461    23 C    1.389    54 H    0.970
                            21 C    0.103
    28   6 C    3.988 --    27 C    1.461    20 C    1.386    55 H    0.972
                            22 C    0.103
    29   6 C    3.920 --    19 C    1.322    33 N    1.222    30 C    1.176
    30   6 C    3.963 --    31 C    1.650    29 C    1.176    56 H    0.972
    31   6 C    3.960 --    30 C    1.650    32 C    1.174    57 H    0.975
    32   6 C    3.922 --     2 C    1.364    33 N    1.213    31 C    1.174
    33   7 N    3.402 --    29 C    1.222    32 C    1.213     1 Ni   0.664
    34   7 N    3.406 --    15 C    1.237    18 C    1.208     1 Ni   0.661
    35   6 C    3.986 --    43 C    1.389    36 C    1.388     8 C    1.023
    36   6 C    3.988 --    37 C    1.463    35 C    1.388    58 H    0.972
                            42 C    0.103
    37   6 C    3.990 --    36 C    1.463    38 C    1.386    59 H    0.968
                            43 C    0.103
    38   6 C    3.984 --    42 C    1.389    37 C    1.386    39 C    1.009
    39   6 C    3.836 --    41 O    1.690    40 O    1.088    38 C    1.009
    40   8 O    2.097 --    39 C    1.088    60 H    0.838    41 O    0.129
    41   8 O    1.959 --    39 C    1.690    40 O    0.129
    42   6 C    3.991 --    43 C    1.460    38 C    1.389    61 H    0.970
                            36 C    0.103
    43   6 C    3.988 --    42 C    1.460    35 C    1.389    62 H    0.972
                            37 C    0.103
    44   1 H    1.000 --     2 C    0.970
    45   1 H    0.997 --     4 C    0.975
    46   1 H    1.004 --     5 C    0.972
    47   1 H    1.004 --    10 C    0.973
    48   1 H    1.002 --    11 C    0.973
    49   1 H    1.002 --    16 C    0.973
    50   1 H    1.004 --    17 C    0.972
    51   1 H    1.004 --    21 C    0.972
    52   1 H    1.005 --    22 C    0.968
    53   1 H    0.873 --    25 O    0.838
    54   1 H    1.005 --    27 C    0.970
    55   1 H    1.004 --    28 C    0.972
    56   1 H    1.004 --    30 C    0.972
    57   1 H    0.997 --    31 C    0.975
    58   1 H    1.003 --    36 C    0.972
    59   1 H    1.005 --    37 C    0.968
    60   1 H    0.873 --    40 O    0.838
    61   1 H    1.005 --    42 C    0.970
    62   1 H    1.003 --    43 C    0.972
    63  28 Ni   3.010 --    95 N    0.664    69 N    0.664    96 N    0.661
                            74 N    0.661
    64   6 C    3.935 --    65 C    1.364    94 C    1.364   106 H    0.970
    65   6 C    3.922 --    64 C    1.364    69 N    1.213    66 C    1.174
    66   6 C    3.960 --    67 C    1.651    65 C    1.174   107 H    0.975
    67   6 C    3.963 --    66 C    1.651    68 C    1.176   108 H    0.972
    68   6 C    3.919 --    70 C    1.324    69 N    1.222    67 C    1.176
    69   7 N    3.402 --    68 C    1.222    65 C    1.213    63 Ni   0.664
    70   6 C    3.938 --    71 C    1.329    68 C    1.324    97 C    1.023
    71   6 C    3.914 --    70 C    1.329    74 N    1.206    72 C    1.183
    72   6 C    3.959 --    73 C    1.637    71 C    1.183   109 H    0.973
    73   6 C    3.961 --    72 C    1.637    75 C    1.190   110 H    0.973
    74   7 N    3.406 --    75 C    1.239    71 C    1.206    63 Ni   0.661
    75   6 C    3.904 --    76 C    1.265    74 N    1.239    73 C    1.190
    76   6 C    3.944 --    77 C    1.265    75 C    1.265   128 C    1.180
    77   6 C    3.904 --    76 C    1.265    96 N    1.237    78 C    1.191
    78   6 C    3.961 --    79 C    1.636    77 C    1.191   111 H    0.973
    79   6 C    3.959 --    78 C    1.636    80 C    1.183   112 H    0.972
    80   6 C    3.915 --    81 C    1.326    96 N    1.208    79 C    1.183
    81   6 C    3.939 --    80 C    1.326    91 C    1.322    82 C    1.030
    82   6 C    3.987 --    90 C    1.386    83 C    1.385    81 C    1.030
    83   6 C    3.987 --    84 C    1.464    82 C    1.385   113 H    0.972
                            89 C    0.103
    84   6 C    3.990 --    83 C    1.464    85 C    1.385   114 H    0.968
                            90 C    0.103
    85   6 C    3.983 --    89 C    1.389    84 C    1.385    86 C    1.009
    86   6 C    3.836 --    88 O    1.690    87 O    1.088    85 C    1.009
    87   8 O    2.096 --    86 C    1.088   115 H    0.838    88 O    0.129
    88   8 O    1.958 --    86 C    1.690    87 O    0.129
    89   6 C    3.991 --    90 C    1.461    85 C    1.389   116 H    0.970
                            83 C    0.103
    90   6 C    3.988 --    89 C    1.461    82 C    1.386   117 H    0.972
                            84 C    0.103
    91   6 C    3.920 --    81 C    1.322    95 N    1.222    92 C    1.176
    92   6 C    3.963 --    93 C    1.650    91 C    1.176   118 H    0.972
    93   6 C    3.960 --    92 C    1.650    94 C    1.174   119 H    0.975
    94   6 C    3.922 --    64 C    1.364    95 N    1.213    93 C    1.174
    95   7 N    3.402 --    91 C    1.222    94 C    1.213    63 Ni   0.664
    96   7 N    3.406 --    77 C    1.237    80 C    1.208    63 Ni   0.661
    97   6 C    3.986 --   105 C    1.389    98 C    1.387    70 C    1.023
    98   6 C    3.988 --    99 C    1.463    97 C    1.387   120 H    0.972
                           104 C    0.103
    99   6 C    3.990 --    98 C    1.463   100 C    1.386   121 H    0.968
                           105 C    0.103
   100   6 C    3.984 --   104 C    1.389    99 C    1.386   101 C    1.009
   101   6 C    3.836 --   103 O    1.690   102 O    1.088   100 C    1.009
   102   8 O    2.097 --   101 C    1.088   122 H    0.838   103 O    0.129
   103   8 O    1.959 --   101 C    1.690   102 O    0.129
   104   6 C    3.991 --   105 C    1.460   100 C    1.389   123 H    0.970
                            98 C    0.103
   105   6 C    3.988 --   104 C    1.460    97 C    1.389   124 H    0.972
                            99 C    0.103
   106   1 H    1.000 --    64 C    0.970
   107   1 H    0.997 --    66 C    0.975
   108   1 H    1.004 --    67 C    0.972
   109   1 H    1.004 --    72 C    0.973
   110   1 H    1.002 --    73 C    0.973
   111   1 H    1.002 --    78 C    0.973
   112   1 H    1.004 --    79 C    0.972
   113   1 H    1.004 --    83 C    0.972
   114   1 H    1.005 --    84 C    0.968
   115   1 H    0.873 --    87 O    0.838
   116   1 H    1.005 --    89 C    0.970
   117   1 H    1.004 --    90 C    0.972
   118   1 H    1.004 --    92 C    0.972
   119   1 H    0.997 --    93 C    0.975
   120   1 H    1.003 --    98 C    0.972
   121   1 H    1.005 --    99 C    0.968
   122   1 H    0.873 --   102 O    0.838
   123   1 H    1.005 --   104 C    0.970
   124   1 H    1.003 --   105 C    0.972
   125   6 C    3.938 --   126 C    2.487   127 C    1.301
   126   6 C    3.928 --   125 C    2.487    14 C    1.180   128 C    0.200
   127   6 C    3.938 --   128 C    2.487   125 C    1.301
   128   6 C    3.928 --   127 C    2.487    76 C    1.180   126 C    0.200
 ---------------------------------------------------------------------------

           -------------------------------------------------
          | TOTAL ENERGY             -244.084519225214 Eh   |
          | GRADIENT NORM               0.000605259210 Eh/α |
          | HOMO-LUMO GAP               1.228752190438 eV   |
           -------------------------------------------------

 * finished run on 2022/07/30 at 06:18:25.890
