   * xtb version 6.5.1 (b24c23e) compiled by 'conda@728c89f4b128' on 2022-07-12
          program call               : xtb Fe_PhCHO_C4_2.xyz --gfn 1 --opt -T 48

   ID    Z sym.   atoms
    1   26 Fe     1, 61
    2    6 C      2-6, 8-13, 15-19, 21-26, 28-33, 35-40, 62-66, 68-73, 75-79,
                  81-86, 88-93, 95-100, 121-124
    3    7 N      7, 20, 27, 41, 67, 80, 87, 101
    4    8 O      14, 34, 74, 94
    5    1 H      42-60, 102-120
########################################################################
[WARNING] Please study the warnings concerning your input carefully
-1- prog_main_parseArguments: Unknown option '-T' provided
########################################################################

          :  Hamiltonian                  GFN1-xTB          :
 * total energy  :  -222.2192077 Eh     change        0.1502104E-07 Eh
 * total energy  :  -222.6964169 Eh     change       -0.4772092E+00 Eh
 * total energy  :  -222.7742920 Eh     change       -0.7787513E-01 Eh
 * total energy  :  -222.8120531 Eh     change       -0.3776103E-01 Eh
 * total energy  :  -222.8242307 Eh     change       -0.1217767E-01 Eh
 * total energy  :  -222.8301696 Eh     change       -0.5938871E-02 Eh
 * total energy  :  -222.8327672 Eh     change       -0.2597621E-02 Eh
 * total energy  :  -222.8347075 Eh     change       -0.1940223E-02 Eh
 * total energy  :  -222.8357834 Eh     change       -0.1075934E-02 Eh
 * total energy  :  -222.8368022 Eh     change       -0.1018796E-02 Eh
 * total energy  :  -222.8389703 Eh     change       -0.2035617E-04 Eh
 * total energy  :  -222.8389729 Eh     change       -0.2531552E-05 Eh
 * total energy  :  -222.8389871 Eh     change       -0.1423463E-04 Eh
 * total energy  :  -222.8389985 Eh     change       -0.1140108E-04 Eh
 * total energy  :  -222.8390062 Eh     change       -0.7709620E-05 Eh
 * total energy  :  -222.8390188 Eh     change       -0.1259452E-04 Eh
 * total energy  :  -222.8390190 Eh     change       -0.1558029E-06 Eh
 * total energy  :  -222.8390248 Eh     change       -0.5801370E-05 Eh
 * total energy  :  -222.8390273 Eh     change       -0.2563080E-05 Eh
   *** GEOMETRY OPTIMIZATION CONVERGED AFTER 42 ITERATIONS ***

 final structure:
================
124
 xtb: 6.5.1 (b24c23e)
Fe          15.85940638355478        0.06646891206631       -0.11753353287039
C           12.47148593552925        0.10613793303421       -0.23837727098873
C           13.12675407053154        1.31738349957483       -0.16088321816738
C           12.44982784421090        2.57838126558468       -0.11851070382371
C           13.40075185124151        3.52202607836273        0.07384391227650
C           14.66002036240232        2.83674199608067        0.12781118799938
N           14.47899696503936        1.48851677438353       -0.01940930847335
C           15.87757144658678        3.46601362050008        0.36417052531764
C           15.88481306380791        4.93197264958849        0.58219925932851
C           16.26537738396497        5.45682852062192        1.82035581357513
C           16.26251127309299        6.82284668366874        2.02811024410786
C           15.88627530979120        7.69388452685807        1.00047262393894
C           15.89083219574343        9.14791716357822        1.24734530026185
O           16.20041299879571        9.64668478360301        2.29862291951571
C           15.51266742092604        7.16978965102674       -0.23919089745128
C           15.50940375318615        5.80145431039674       -0.44489414661541
C           17.08788448135052        2.78831313256774        0.38745411907204
C           18.35720721382039        3.43515126544531        0.54156422955987
C           19.30380471712237        2.47896607648081        0.38709566835013
N           17.26130619827660        1.44331979421646        0.16150567953983
C           18.61093771700981        1.25216694729347        0.14539644875511
C           19.26835115408544        0.03802621794700       -0.08763008490400
C           18.59131558917566       -1.17282569297672       -0.27706639336139
C           19.26346644647178       -2.41378868856070       -0.50353752186832
C           18.30481885514525       -3.36888623239481       -0.56335514066760
C           17.04925515872055       -2.70603386066331       -0.37158691325907
N           17.24125602233511       -1.35415543093833       -0.21728347409354
C           15.82484768217940       -3.35976593526299       -0.35399875444276
C           15.80940558537589       -4.83554413245028       -0.47510035790310
C           15.18521609652081       -5.44506982100235       -1.56708189409588
C           15.16940483308517       -6.82332632081826       -1.68540652443197
C           15.77388017832609       -7.61990631455177       -0.71005405313238
C           15.76600088763711       -9.09119017379713       -0.81062946988138
O           16.27348498692978       -9.81999095462376        0.00245147947811
C           16.39828784339247       -7.01002287279106        0.38294488346679
C           16.41881653706320       -5.63325078363769        0.49779253601175
C           14.61036647193172       -2.68910325956129       -0.25586840916745
C           13.33387571302774       -3.34367380096905       -0.23003656162936
C           12.39500464358123       -2.36880341618495       -0.22080406924618
C           13.09891103556307       -1.12211021684605       -0.21897500301663
N           14.45331373933115       -1.33039828125561       -0.20782992659160
H           11.38878057674071        0.11975298294698       -0.29329883037143
H           11.38259638407449        2.70302025087589       -0.20962113313801
H           13.27205497581940        4.58682437856360        0.18018487213123
H           16.54775628643704        4.78256914502338        2.62086723371541
H           16.54924903446098        7.23919498775752        2.98780885338271
H           15.58113804800274        9.75948961461209        0.37321112443213
H           15.22421951231020        7.83907231493986       -1.04317345929596
H           15.22910721019156        5.39711316862412       -1.41096710937391
H           18.49540660175826        4.48849331685231        0.72285046778749
H           20.37633546804950        2.58026136037863        0.42624255704590
H           20.33129567562443       -2.52437965843765       -0.60137310239212
H           18.42609221910280       -4.42603725752770       -0.73404568291876
H           14.72607335127666       -4.82843091463573       -2.33154059005849
H           14.68673168901431       -7.28826608569365       -2.53889078270679
H           15.24757149815560       -9.48337274372559       -1.71160999019074
H           16.86307600742053       -7.63699941125833        1.13625711836348
H           16.89350214426888       -5.16322668533412        1.35160357140553
H           13.18769320282879       -4.41145616405702       -0.21632613242461
H           11.32101203218727       -2.46486362554387       -0.20843249189505
Fe          29.27441754272114       -0.04835674907339       -0.12683647042706
C           32.66250592271024       -0.07010733430542       -0.25213156444121
C           32.00750938602464       -1.28040097202490       -0.34511781785797
C           32.68484115370958       -2.53465213561213       -0.47995631185565
C           31.73395684857780       -3.49612204309983       -0.42427878472695
C           30.47435748928752       -2.82547995179583       -0.27616874330389
N           30.65512775789993       -1.46992097231085       -0.23128925434995
C           29.25660699602484       -3.48209933929250       -0.13413468768723
C           29.24943250705034       -4.96413697131504       -0.12635122726788
C           28.86528309116728       -5.65890850114036        1.02391127818907
C           28.86831194381988       -7.04055157147675        1.03645412394096
C           29.24836281242142       -7.75747329624325       -0.10280175358649
C           29.24413793417167       -9.23178582523118       -0.06382582852491
O           28.93176426856110       -9.87411722881986        0.90552186317443
C           29.62546632789736       -7.06328793424481       -1.25472215279380
C           29.62848322047914       -5.67959142495756       -1.26490671452362
C           28.04597357221901       -2.81477947575458       -0.01680730530504
C           26.77666298686963       -3.47726577564785        0.04089773124300
C           25.82993642458487       -2.50896533017272        0.02438783816238
N           27.87240255076568       -1.45134976310054       -0.04787083493573
C           26.52271977006225       -1.26005007229877       -0.03715522913341
C           25.86529370176287       -0.02498955183574       -0.09187093977830
C           26.54217275450421        1.20058166747671       -0.10344592137008
C           25.86950309102378        2.46101010924417       -0.14640133356454
C           26.82799051291705        3.41502532866642       -0.06970539177888
C           28.08402849980344        2.73184825935427        0.02095095988907
N           27.89236624331117        1.37175189005657       -0.02104032639379
C           29.30855660170168        3.37683162989174        0.12722952590446
C           29.32368006967141        4.85478553203758        0.21827129855017
C           29.94364445591523        5.61483504961959       -0.77749247004187
C           29.95918439822541        6.99584101292103       -0.69703824998584
C           29.35859501033957        7.64411261034798        0.38475996645369
C           29.36604619169751        9.11461695302814        0.49609270525668
O           28.86205013939698        9.71899292766239        1.40747669224978
C           28.73839790157777        6.88355037834927        1.38147609127850
C           28.71816385146217        5.50454542228768        1.29782327418214
C           30.52333345952499        2.69953779277486        0.12464381033686
C           31.79989026198612        3.34441323635608        0.23917519050697
C           32.73878178347103        2.37813915096232        0.10994751280089
C           32.03488555360128        1.14327686112847       -0.06146884206316
N           30.68048378922479        1.34768185552012       -0.01967743890952
H           33.74522086845252       -0.07570792183572       -0.30839870695351
H           33.75226540009049       -2.64501877620807       -0.58598582464840
H           31.86287249420185       -4.56525034768194       -0.46911503653860
H           28.58007917952761       -5.10462913891489        1.91081413338050
H           28.57880715235954       -7.58844490329199        1.92672091027226
H           29.55699601736251       -9.71367372381454       -1.01455933159299
H           29.91671937522980       -7.61212174392367       -2.14436186468128
H           29.91144273933838       -5.14272251459244       -2.16327275901176
H           26.63852525019001       -4.54573662393112        0.06867183532660
H           24.75740694463468       -2.61505413343079        0.04754988674224
H           24.80141457298582        2.58416992817191       -0.22435357101127
H           26.70626340223545        4.48569973184449       -0.08529613498404
H           30.39973393469383        5.11442011520334       -1.62425810412470
H           30.43868739326296        7.57855101686353       -1.47684777690379
H           29.88194934835467        9.63220062717708       -0.34067751321261
H           28.27646370974462        7.39583235034967        2.21858982813026
H           28.24671752887995        4.91674755188260        2.07722052363337
H           31.94614874641534        4.39977039751031        0.40208289345151
H           33.81279531662321        2.47179862350558        0.13374410601033
C           21.89343033485547        0.01387697782457       -0.11819534545555
C           20.66977613678063        0.02936527369862       -0.10794499371636
C           23.24012437259711        0.00011387526835       -0.11940287839679
C           24.46387303970057       -0.01348767740674       -0.11245923722596

          :  Hamiltonian                  GFN1-xTB          :
         :: total energy            -222.839027337582 Eh    ::
         :: gradient norm              0.000418326469 Eh/a0 ::
         :: HOMO-LUMO gap              0.092524908464 eV    ::
         :: SCC energy              -226.273890559620 Eh    ::
         :: repulsion energy           3.546229892733 Eh    ::

    * Orbital Energies and Occupations

         #    Occupation            Energy/Eh            Energy/eV
      -------------------------------------------------------------
         1        2.0000           -0.7934986             -21.5922
       ...           ...                  ...                  ...
       191        2.0000           -0.4404871             -11.9863
       192        2.0000           -0.4402511             -11.9798
       193        2.0000           -0.4397015             -11.9649
       194        2.0000           -0.4117686             -11.2048
       195        2.0000           -0.4104230             -11.1682
       196        2.0000           -0.4104164             -11.1680
       197        1.9927           -0.4028319             -10.9616
       198        1.9909           -0.4026263             -10.9560
       199        1.9468           -0.4009267             -10.9098
       200        1.9457           -0.4009063             -10.9092
       201        1.9389           -0.4007917             -10.9061
       202        1.9388           -0.4007906             -10.9061
       203        1.7285           -0.3992655             -10.8646 (HOMO)
       204        0.3016           -0.3958653             -10.7720 (LUMO)
       205        0.2162           -0.3955021             -10.7622
       206                         -0.3525824              -9.5943
       207                         -0.3442825              -9.3684
       208                         -0.3442806              -9.3684
       209                         -0.3380525              -9.1989
       210                         -0.3291883              -8.9577
       211                         -0.3287014              -8.9444
       212                         -0.3242810              -8.8241
       213                         -0.3242643              -8.8237
       214                         -0.3155349              -8.5861
       ...                                ...                  ...
       430                          1.4975943              40.7516
      -------------------------------------------------------------
                  HL-Gap            0.0034002 Eh            0.0925 eV

Wiberg/Mayer (AO) data.
largest (>0.10) Wiberg bond orders for each atom

     #   Z sym  total        # sym  WBO       # sym  WBO       # sym  WBO
 ---------------------------------------------------------------------------
     1  26 Fe   3.154 --    41 N    0.671     7 N    0.667    20 N    0.663
                            27 N    0.660
     2   6 C    3.925 --     3 C    1.363    40 C    1.363    42 H    0.970
     3   6 C    3.923 --     2 C    1.363     7 N    1.209     4 C    1.172
     4   6 C    3.959 --     5 C    1.651     3 C    1.172    43 H    0.975
     5   6 C    3.961 --     4 C    1.651     6 C    1.174    44 H    0.972
     6   6 C    3.920 --     8 C    1.312     7 N    1.227     5 C    1.174
     7   7 N    3.381 --     6 C    1.227     3 C    1.209     1 Fe   0.667
     8   6 C    3.926 --    17 C    1.335     6 C    1.312     9 C    1.026
     9   6 C    3.986 --    16 C    1.385    10 C    1.383     8 C    1.026
    10   6 C    3.987 --    11 C    1.469     9 C    1.383    45 H    0.972
                            15 C    0.101
    11   6 C    3.988 --    10 C    1.469    12 C    1.371    46 H    0.967
                            16 C    0.101
    12   6 C    3.984 --    15 C    1.380    11 C    1.371    13 C    1.048
    13   6 C    3.864 --    14 O    1.810    12 C    1.048    47 H    0.942
    14   8 O    2.006 --    13 C    1.810
    15   6 C    3.993 --    16 C    1.464    12 C    1.380    48 H    0.971
                            10 C    0.101
    16   6 C    3.987 --    15 C    1.464     9 C    1.385    49 H    0.972
                            11 C    0.101
    17   6 C    3.916 --     8 C    1.335    20 N    1.200    18 C    1.178
    18   6 C    3.956 --    19 C    1.640    17 C    1.178    50 H    0.973
    19   6 C    3.960 --    18 C    1.640    21 C    1.187    51 H    0.973
    20   7 N    3.382 --    21 C    1.247    17 C    1.200     1 Fe   0.663
    21   6 C    3.903 --    22 C    1.251    20 N    1.247    19 C    1.187
    22   6 C    3.923 --    23 C    1.251    21 C    1.251   122 C    1.202
    23   6 C    3.904 --    22 C    1.251    27 N    1.245    24 C    1.188
    24   6 C    3.960 --    25 C    1.638    23 C    1.188    52 H    0.973
    25   6 C    3.956 --    24 C    1.638    26 C    1.179    53 H    0.973
    26   6 C    3.916 --    28 C    1.330    27 N    1.203    25 C    1.179
    27   7 N    3.380 --    23 C    1.245    26 C    1.203     1 Fe   0.660
    28   6 C    3.926 --    26 C    1.330    37 C    1.313    29 C    1.031
    29   6 C    3.986 --    30 C    1.383    36 C    1.381    28 C    1.031
    30   6 C    3.987 --    31 C    1.465    29 C    1.383    54 H    0.972
                            35 C    0.101
    31   6 C    3.993 --    30 C    1.465    32 C    1.379    55 H    0.971
                            36 C    0.100
    32   6 C    3.983 --    31 C    1.379    35 C    1.371    33 C    1.048
    33   6 C    3.864 --    34 O    1.810    32 C    1.048    56 H    0.942
    34   8 O    2.005 --    33 C    1.810
    35   6 C    3.988 --    36 C    1.470    32 C    1.371    57 H    0.968
                            30 C    0.101
    36   6 C    3.987 --    35 C    1.470    29 C    1.381    58 H    0.972
                            31 C    0.100
    37   6 C    3.920 --    28 C    1.313    41 N    1.225    38 C    1.174
    38   6 C    3.961 --    39 C    1.650    37 C    1.174    59 H    0.972
    39   6 C    3.959 --    38 C    1.650    40 C    1.173    60 H    0.975
    40   6 C    3.923 --     2 C    1.363    41 N    1.209    39 C    1.173
    41   7 N    3.382 --    37 C    1.225    40 C    1.209     1 Fe   0.671
    42   1 H    1.000 --     2 C    0.970
    43   1 H    0.997 --     4 C    0.975
    44   1 H    1.004 --     5 C    0.972
    45   1 H    1.003 --    10 C    0.972
    46   1 H    1.004 --    11 C    0.967
    47   1 H    1.010 --    13 C    0.942
    48   1 H    1.000 --    15 C    0.971
    49   1 H    1.003 --    16 C    0.972
    50   1 H    1.003 --    18 C    0.973
    51   1 H    1.002 --    19 C    0.973
    52   1 H    1.002 --    24 C    0.973
    53   1 H    1.003 --    25 C    0.973
    54   1 H    1.004 --    30 C    0.972
    55   1 H    1.000 --    31 C    0.971
    56   1 H    1.010 --    33 C    0.942
    57   1 H    1.004 --    35 C    0.968
    58   1 H    1.003 --    36 C    0.972
    59   1 H    1.004 --    38 C    0.972
    60   1 H    0.997 --    39 C    0.975
    61  26 Fe   3.153 --   101 N    0.671    67 N    0.666    80 N    0.663
                            87 N    0.660
    62   6 C    3.924 --    63 C    1.363   100 C    1.363   102 H    0.970
    63   6 C    3.923 --    62 C    1.363    67 N    1.209    64 C    1.172
    64   6 C    3.959 --    65 C    1.651    63 C    1.172   103 H    0.975
    65   6 C    3.961 --    64 C    1.651    66 C    1.174   104 H    0.972
    66   6 C    3.920 --    68 C    1.312    67 N    1.226    65 C    1.174
    67   7 N    3.381 --    66 C    1.226    63 C    1.209    61 Fe   0.666
    68   6 C    3.925 --    77 C    1.334    66 C    1.312    69 C    1.027
    69   6 C    3.986 --    76 C    1.385    70 C    1.383    68 C    1.027
    70   6 C    3.987 --    71 C    1.469    69 C    1.383   105 H    0.972
                            75 C    0.101
    71   6 C    3.988 --    70 C    1.469    72 C    1.371   106 H    0.967
                            76 C    0.101
    72   6 C    3.984 --    75 C    1.380    71 C    1.371    73 C    1.048
    73   6 C    3.864 --    74 O    1.810    72 C    1.048   107 H    0.942
    74   8 O    2.006 --    73 C    1.810
    75   6 C    3.993 --    76 C    1.464    72 C    1.380   108 H    0.971
                            70 C    0.101
    76   6 C    3.987 --    75 C    1.464    69 C    1.385   109 H    0.972
                            71 C    0.101
    77   6 C    3.916 --    68 C    1.334    80 N    1.200    78 C    1.178
    78   6 C    3.956 --    79 C    1.640    77 C    1.178   110 H    0.973
    79   6 C    3.960 --    78 C    1.640    81 C    1.187   111 H    0.973
    80   7 N    3.382 --    81 C    1.247    77 C    1.200    61 Fe   0.663
    81   6 C    3.903 --    82 C    1.251    80 N    1.247    79 C    1.187
    82   6 C    3.923 --    83 C    1.251    81 C    1.251   124 C    1.202
    83   6 C    3.904 --    82 C    1.251    87 N    1.245    84 C    1.188
    84   6 C    3.960 --    85 C    1.638    83 C    1.188   112 H    0.973
    85   6 C    3.956 --    84 C    1.638    86 C    1.179   113 H    0.973
    86   6 C    3.916 --    88 C    1.330    87 N    1.203    85 C    1.179
    87   7 N    3.380 --    83 C    1.245    86 C    1.203    61 Fe   0.660
    88   6 C    3.926 --    86 C    1.330    97 C    1.312    89 C    1.031
    89   6 C    3.986 --    90 C    1.383    96 C    1.381    88 C    1.031
    90   6 C    3.987 --    91 C    1.465    89 C    1.383   114 H    0.972
                            95 C    0.101
    91   6 C    3.993 --    90 C    1.465    92 C    1.379   115 H    0.971
                            96 C    0.100
    92   6 C    3.983 --    91 C    1.379    95 C    1.371    93 C    1.048
    93   6 C    3.864 --    94 O    1.810    92 C    1.048   116 H    0.942
    94   8 O    2.005 --    93 C    1.810
    95   6 C    3.988 --    96 C    1.470    92 C    1.371   117 H    0.968
                            90 C    0.101
    96   6 C    3.987 --    95 C    1.470    89 C    1.381   118 H    0.972
                            91 C    0.100
    97   6 C    3.920 --    88 C    1.312   101 N    1.226    98 C    1.174
    98   6 C    3.961 --    99 C    1.650    97 C    1.174   119 H    0.972
    99   6 C    3.959 --    98 C    1.650   100 C    1.173   120 H    0.975
   100   6 C    3.923 --    62 C    1.363   101 N    1.209    99 C    1.173
   101   7 N    3.382 --    97 C    1.226   100 C    1.209    61 Fe   0.671
   102   1 H    1.000 --    62 C    0.970
   103   1 H    0.997 --    64 C    0.975
   104   1 H    1.004 --    65 C    0.972
   105   1 H    1.003 --    70 C    0.972
   106   1 H    1.004 --    71 C    0.967
   107   1 H    1.010 --    73 C    0.942
   108   1 H    1.000 --    75 C    0.971
   109   1 H    1.003 --    76 C    0.972
   110   1 H    1.003 --    78 C    0.973
   111   1 H    1.002 --    79 C    0.973
   112   1 H    1.002 --    84 C    0.973
   113   1 H    1.003 --    85 C    0.973
   114   1 H    1.004 --    90 C    0.972
   115   1 H    1.000 --    91 C    0.971
   116   1 H    1.010 --    93 C    0.942
   117   1 H    1.004 --    95 C    0.968
   118   1 H    1.003 --    96 C    0.972
   119   1 H    1.004 --    98 C    0.972
   120   1 H    0.997 --    99 C    0.975
   121   6 C    3.922 --   122 C    2.450   123 C    1.324
   122   6 C    3.915 --   121 C    2.450    22 C    1.202   124 C    0.195
   123   6 C    3.922 --   124 C    2.450   121 C    1.324
   124   6 C    3.915 --   123 C    2.450    82 C    1.202   122 C    0.195
 ---------------------------------------------------------------------------

           -------------------------------------------------
          | TOTAL ENERGY             -222.839027337582 Eh   |
          | GRADIENT NORM               0.000418326469 Eh/α |
          | HOMO-LUMO GAP               0.092524908464 eV   |
           -------------------------------------------------

 * finished run on 2022/07/29 at 16:13:15.888
