   * xtb version 6.5.1 (b24c23e) compiled by 'conda@728c89f4b128' on 2022-07-12
          program call               : xtb PhNH2_C6_2.xyz --gfn 1 --opt -T 48

   ID    Z sym.   atoms
    1    6 C      1-5, 7-11, 13-17, 19-24, 26-30, 32-37, 62-66, 68-72, 74-78,
                  80-85, 87-91, 93-98, 123-128
    2    7 N      6, 12, 18, 25, 31, 38, 67, 73, 79, 86, 92, 99
    3    1 H      39-61, 100-122
########################################################################
[WARNING] Please study the warnings concerning your input carefully
-1- prog_main_parseArguments: Unknown option '-T' provided
########################################################################

          :  Hamiltonian                  GFN1-xTB          :
 * total energy  :  -210.6669858 Eh     change       -0.1742904E-08 Eh
 * total energy  :  -210.8306511 Eh     change       -0.1636653E+00 Eh
 * total energy  :  -210.8977698 Eh     change       -0.6711866E-01 Eh
 * total energy  :  -210.9152905 Eh     change       -0.1752070E-01 Eh
 * total energy  :  -210.9234285 Eh     change       -0.8138058E-02 Eh
 * total energy  :  -210.9278506 Eh     change       -0.4422103E-02 Eh
 * total energy  :  -210.9299572 Eh     change       -0.2106575E-02 Eh
 * total energy  :  -210.9314669 Eh     change       -0.1509675E-02 Eh
 * total energy  :  -210.9324122 Eh     change       -0.9453183E-03 Eh
 * total energy  :  -210.9333369 Eh     change       -0.9247356E-03 Eh
 * total energy  :  -210.9402607 Eh     change       -0.1830249E-04 Eh
 * total energy  :  -210.9402684 Eh     change       -0.7720520E-05 Eh
 * total energy  :  -210.9402744 Eh     change       -0.6010153E-05 Eh
 * total energy  :  -210.9402555 Eh     change        0.1892062E-04 Eh
 * total energy  :  -210.9402782 Eh     change       -0.2266357E-04 Eh
 * total energy  :  -210.9401966 Eh     change        0.8158626E-04 Eh
 * total energy  :  -210.9402793 Eh     change       -0.8275128E-04 Eh
 * total energy  :  -210.9402908 Eh     change       -0.1145655E-04 Eh
 * total energy  :  -210.9402957 Eh     change       -0.4896919E-05 Eh
   *** GEOMETRY OPTIMIZATION CONVERGED AFTER 51 ITERATIONS ***

 final structure:
================
128
 xtb: 6.5.1 (b24c23e)
C           10.77550722397952       -0.12792827032346        0.06608195405273
C           11.38835096330229       -0.99185547813255        0.96473260981050
C           10.74083159227541       -1.89646718363492        1.85174826394184
C           11.70610299077346       -2.54998844603680        2.56563084796653
C           12.97415917319604       -2.05827199211758        2.14473761517856
N           12.73188730044287       -1.12868319378006        1.17326855713452
C           14.23858455544070       -2.44869339493978        2.60229880624395
C           14.27448198877694       -3.45735293802303        3.68779310229073
C           14.91257512823789       -4.68548115182405        3.49717464250487
C           14.94687531586911       -5.63137585017454        4.50614428801891
C           14.35355506034879       -5.36055021286595        5.74183610226456
N           14.35389545340390       -6.31852849611832        6.74113641300789
C           13.70857380639384       -4.13691114912750        5.93882037272209
C           13.66973020034782       -3.20071951970623        4.92058345969308
C           15.45072951343288       -1.95702298439003        2.11125305074224
C           16.74954694621825       -2.32790417685150        2.64257589082901
C           17.66664518686937       -1.65450407496228        1.91708189706195
N           15.60057378402480       -1.05943786279810        1.09769086370324
C           16.92652167169489       -0.86532707337377        0.95210034413165
C           17.56020175072076       -0.02893464498211        0.00965684554963
C           16.92078712609652        0.80661957360880       -0.92640078191169
C           17.56165733340668        1.62697828356943       -1.89154419652813
C           16.59196746501181        2.28871089335110       -2.59353479275628
C           15.32802580765844        1.89860324560542       -2.07143174566202
N           15.57890088274346        0.99475396175581       -1.07237978866637
C           14.06466189452032        2.32295040956781       -2.49921527653913
C           14.02794689237941        3.34397498069594       -3.57175660679897
C           13.38297463506969        3.08347438239998       -4.78359178079335
C           13.34562217338410        4.03536741981366       -5.78680728061912
C           13.94347545962119        5.28326192529574       -5.59249786203854
N           13.94019347500917        6.22451160560300       -6.60720521772258
C           14.59580490937247        5.54990895828113       -4.38598290574502
C           14.63693186921220        4.58867112209264       -3.39177622618519
C           12.85076256839064        1.85295503022000       -1.98443254273692
C           11.54378920563697        2.33923745736874       -2.39741925046247
C           10.63387410619717        1.64583551722892       -1.68322657996067
C           11.38387973024248        0.74792985279052       -0.82365252474490
N           12.71514197771011        0.90549529860276       -1.02639842576077
H            9.69011320904779       -0.14265697240768        0.06925122249263
H            9.67241980052145       -2.02609861060135        1.92045806402315
H           11.55826165444519       -3.31368309675562        3.31189233851405
H           13.45461062929298       -0.62081013361088        0.67428039150630
H           15.36866640403642       -4.90614762230842        2.53835138333657
H           15.43574013856413       -6.58551855595384        4.34232262387912
H           14.22095785375330       -5.96037880077024        7.67348141743861
H           15.08755754396608       -7.00557384329354        6.67099260794147
H           13.24321425257682       -3.92199977121580        6.89463369823825
H           13.18419794480010       -2.24548956819808        5.08870484880554
H           16.91571212640357       -3.00006584277216        3.46883604705858
H           18.74063817988077       -1.66606981150441        2.01276868099619
H           18.62909699381554        1.69121854780394       -2.02864191059630
H           16.73670341872091        2.97712300078075       -3.41011429367580
H           14.85929311071928        0.52840452895981       -0.52990750747317
H           12.92506075781082        2.11394285789705       -4.94645524827729
H           12.85106106421441        3.81701726354397       -6.72707056059843
H           13.20414408859635        6.11579287617275       -7.28651056237099
H           14.07934985707018        7.17586475280258       -6.30628384957961
H           15.06504740450245        6.51527871798713       -4.23042725609352
H           15.12728113311932        4.81161853017311       -2.45038536814288
H           11.36970573783774        3.11626722744376       -3.12437671684915
H            9.55779738210078        1.72100029568932       -1.70568385276207
C           33.52110727627837        0.02894363147764       -0.14309051622896
C           32.90815841740318        0.70733614650934       -1.18884022661392
C           33.55520101421633        1.36240381867494       -2.27355170824604
C           32.58970799952834        1.90992302964741       -3.07137868882835
C           31.32202078249458        1.61530146972198       -2.49427437506648
N           31.56466150346564        0.88188365075690       -1.36742627573243
C           30.05760792941025        1.97367688773452       -2.97728247099721
C           30.02175248669969        2.79936353764543       -4.20779035413930
C           29.38392148647914        2.33228557369042       -5.35961925592361
C           29.34994177822815        3.09755407323788       -6.51163903818978
C           29.94309100610157        4.36249195485833       -6.53104813947307
N           29.94300929712677        5.11561207258221       -7.69258989552970
C           30.58767358104316        4.83478307642214       -5.38494455607565
C           30.62644951851431        4.05816029041077       -4.24033364632569
C           28.84547871820245        1.61018449409827       -2.38512004956812
C           27.54693127455504        2.04428296158493       -2.86692810054657
C           26.62958153189720        1.49294365628625       -2.04512065668591
N           28.69529146801765        0.82895673046970       -1.27943783172161
C           27.36932550478167        0.73307687285053       -1.05659876519849
C           26.73558061799535        0.00754871995831       -0.02645123694904
C           27.37520392081752       -0.71216460115151        1.00125721031486
C           26.73439249080283       -1.46198007730968        2.02222753601683
C           27.70421192154018       -1.99405852459520        2.82678924110962
C           28.96818234553222       -1.57741422730076        2.32565758723057
N           28.71714393552159       -0.81250296942872        1.21664998479071
C           30.23162883526065       -1.89870663991017        2.83509615097331
C           30.26848401225411       -2.70885217751989        4.07469350901775
C           30.90956288788368       -3.95015755093316        4.09715864787946
C           30.94722828756186       -4.70877034658188        5.25345739383599
C           30.35364854546072       -4.23185298006512        6.42504125338393
N           30.35732758199437       -5.00396184132678        7.57372064607801
C           29.70512625213350       -2.99433063095560        6.40973513379901
C           29.66361481613058       -2.24660848515668        5.24640496966571
C           31.44556689935454       -1.50804575054766        2.25791235369825
C           32.75264189778602       -1.80188638182905        2.82399693801154
C           33.66266866793415       -1.26785753696242        1.98407374528336
C           32.91267488458735       -0.63499084108545        0.91420143097456
N           31.58129565758816       -0.79294321122326        1.11595575190062
H           34.60647096122462        0.02601509918975       -0.15980022364103
H           34.62343954029510        1.39729129839098       -2.41735147556958
H           32.73707884665421        2.46143259361630       -3.98577418194371
H           30.84228675920940        0.51378940733351       -0.75757671657417
H           28.92776697835907        1.34843270106300       -5.35467221827883
H           28.86143102943573        2.71931059177514       -7.40299428470058
H           30.07567544841621        6.10524300983580       -7.55758947425711
H           29.20949439179915        4.88981267554412       -8.34540974329020
H           31.05285636870768        5.81450156354150       -5.39469297942852
H           31.11195088839963        4.44060898093329       -3.34898969352231
H           27.38125138049073        2.69526256380331       -3.71007770704735
H           25.55567342617161        1.58469541257328       -2.07763873347978
H           25.66690975430529       -1.57932873677644        2.11737113015374
H           27.55956623296884       -2.63006085560820        3.68482048405287
H           29.43663911109456       -0.39272029119008        0.63724619520905
H           31.36417424197170       -4.33214569900897        3.18962062226153
H           31.43876851654159       -5.67558659503753        5.25514109338413
H           31.09143013468541       -5.69232120992684        7.62167813445896
H           30.22197916346396       -4.49262987147560        8.43115757407430
H           29.23916067510333       -2.62032449732300        7.31489384732298
H           29.17623969025469       -1.27768413833330        5.24884010405612
H           32.92667278812208       -2.33200950935867        3.74661966558537
H           34.73884541076821       -1.27520603596749        2.06080222753388
C           22.76224626744768       -0.01167745570795       -0.00739782689110
C           21.53355002473955       -0.01179511508515       -0.01070540169430
C           20.18961889404223       -0.01297711642683       -0.00850459328917
C           18.96533524344564       -0.01693793823144       -0.00275166553788
C           24.10618449375705       -0.00838661443198       -0.00805893557983
C           25.33047450243271       -0.00254588591470       -0.01205325815132

          :  Hamiltonian                  GFN1-xTB          :
         :: total energy            -210.940295700570 Eh    ::
         :: gradient norm              0.000512207677 Eh/a0 ::
         :: HOMO-LUMO gap              0.973389067394 eV    ::
         :: SCC energy              -214.470247543484 Eh    ::
         :: repulsion energy           3.634956924394 Eh    ::

    * Orbital Energies and Occupations

         #    Occupation            Energy/Eh            Energy/eV
      -------------------------------------------------------------
         1        2.0000           -0.7954688             -21.6458
       ...           ...                  ...                  ...
       181        2.0000           -0.4083613             -11.1121
       182        2.0000           -0.4074898             -11.0884
       183        2.0000           -0.4070348             -11.0760
       184        2.0000           -0.4067155             -11.0673
       185        2.0000           -0.4050183             -11.0211
       186        2.0000           -0.3985611             -10.8454
       187        2.0000           -0.3978957             -10.8273
       188        2.0000           -0.3961006             -10.7784
       189        2.0000           -0.3959545             -10.7745
       190        2.0000           -0.3903935             -10.6231
       191        2.0000           -0.3897445             -10.6055
       192        2.0000           -0.3768963             -10.2559
       193        2.0000           -0.3684146             -10.0251 (HOMO)
       194                         -0.3326432              -9.0517 (LUMO)
       195                         -0.3221903              -8.7672
       196                         -0.3216918              -8.7537
       197                         -0.3211109              -8.7379
       198                         -0.2924614              -7.9583
       199                         -0.2849800              -7.7547
       200                         -0.2766511              -7.5281
       201                         -0.2566558              -6.9840
       202                         -0.2566402              -6.9835
       203                         -0.2563500              -6.9756
       204                         -0.2563220              -6.9749
       ...                                ...                  ...
       420                          1.5868725              43.1810
      -------------------------------------------------------------
                  HL-Gap            0.0357714 Eh            0.9734 eV

Wiberg/Mayer (AO) data.
largest (>0.10) Wiberg bond orders for each atom

     #   Z sym  total        # sym  WBO       # sym  WBO       # sym  WBO
 ---------------------------------------------------------------------------
     1   6 C    3.923 --    37 C    1.365     2 C    1.345    39 H    0.971
     2   6 C    3.904 --     1 C    1.345     3 C    1.232     6 N    1.169
     3   6 C    3.953 --     4 C    1.592     2 C    1.232    40 H    0.977
     4   6 C    3.959 --     3 C    1.592     5 C    1.237    41 H    0.974
     5   6 C    3.894 --     7 C    1.300     4 C    1.237     6 N    1.177
     6   7 N    3.469 --     5 C    1.177     2 C    1.169    42 H    0.873
     7   6 C    3.939 --    15 C    1.335     5 C    1.300     8 C    1.033
     8   6 C    3.988 --    14 C    1.382     9 C    1.380     7 C    1.033
     9   6 C    3.988 --    10 C    1.469     8 C    1.380    43 H    0.973
    10   6 C    3.990 --     9 C    1.469    11 C    1.354    44 H    0.972
    11   6 C    3.952 --    13 C    1.354    10 C    1.354    12 N    1.115
    12   7 N    3.134 --    11 C    1.115    45 H    0.934    46 H    0.933
    13   6 C    3.990 --    14 C    1.468    11 C    1.354    47 H    0.972
    14   6 C    3.987 --    13 C    1.468     8 C    1.382    48 H    0.973
    15   6 C    3.914 --     7 C    1.335    18 N    1.285    16 C    1.127
    16   6 C    3.966 --    17 C    1.707    15 C    1.127    49 H    0.974
    17   6 C    3.963 --    16 C    1.707    19 C    1.130    50 H    0.974
    18   7 N    3.021 --    19 C    1.345    15 C    1.285
    19   6 C    3.909 --    18 N    1.345    20 C    1.251    17 C    1.130
    20   6 C    3.935 --    19 C    1.251    21 C    1.250   126 C    1.193
    21   6 C    3.886 --    22 C    1.251    20 C    1.250    25 N    1.190
    22   6 C    3.959 --    23 C    1.580    21 C    1.251    51 H    0.975
    23   6 C    3.955 --    22 C    1.580    24 C    1.243    52 H    0.974
    24   6 C    3.897 --    26 C    1.307    23 C    1.243    25 N    1.164
    25   7 N    3.473 --    21 C    1.190    24 C    1.164    53 H    0.873
    26   6 C    3.925 --    34 C    1.318    24 C    1.307    27 C    1.036
    27   6 C    3.988 --    33 C    1.380    28 C    1.379    26 C    1.036
    28   6 C    3.987 --    29 C    1.469    27 C    1.379    54 H    0.973
    29   6 C    3.989 --    28 C    1.469    30 C    1.353    55 H    0.972
    30   6 C    3.951 --    32 C    1.354    29 C    1.353    31 N    1.116
    31   7 N    3.134 --    30 C    1.116    56 H    0.933    57 H    0.933
    32   6 C    3.990 --    33 C    1.469    30 C    1.354    58 H    0.972
    33   6 C    3.986 --    32 C    1.469    27 C    1.380    59 H    0.973
    34   6 C    3.927 --    38 N    1.318    26 C    1.318    35 C    1.120
    35   6 C    3.967 --    36 C    1.719    34 C    1.120    60 H    0.974
    36   6 C    3.966 --    35 C    1.719    37 C    1.119    61 H    0.976
    37   6 C    3.930 --     1 C    1.365    38 N    1.299    36 C    1.119
    38   7 N    3.010 --    34 C    1.318    37 C    1.299
    39   1 H    1.002 --     1 C    0.971
    40   1 H    0.998 --     3 C    0.977
    41   1 H    1.005 --     4 C    0.974
    42   1 H    0.986 --     6 N    0.873
    43   1 H    1.005 --     9 C    0.973
    44   1 H    0.999 --    10 C    0.972
    45   1 H    0.961 --    12 N    0.934
    46   1 H    0.961 --    12 N    0.933
    47   1 H    0.999 --    13 C    0.972
    48   1 H    1.005 --    14 C    0.973
    49   1 H    1.006 --    16 C    0.974
    50   1 H    1.003 --    17 C    0.974
    51   1 H    1.002 --    22 C    0.975
    52   1 H    1.005 --    23 C    0.974
    53   1 H    0.988 --    25 N    0.873
    54   1 H    1.005 --    28 C    0.973
    55   1 H    0.999 --    29 C    0.972
    56   1 H    0.961 --    31 N    0.933
    57   1 H    0.961 --    31 N    0.933
    58   1 H    0.999 --    32 C    0.972
    59   1 H    1.005 --    33 C    0.973
    60   1 H    1.006 --    35 C    0.974
    61   1 H    0.999 --    36 C    0.976
    62   6 C    3.923 --    98 C    1.365    63 C    1.345   100 H    0.971
    63   6 C    3.904 --    62 C    1.345    64 C    1.232    67 N    1.169
    64   6 C    3.953 --    65 C    1.592    63 C    1.232   101 H    0.977
    65   6 C    3.959 --    64 C    1.592    66 C    1.237   102 H    0.974
    66   6 C    3.894 --    68 C    1.300    65 C    1.237    67 N    1.177
    67   7 N    3.469 --    66 C    1.177    63 C    1.169   103 H    0.873
    68   6 C    3.939 --    76 C    1.335    66 C    1.300    69 C    1.033
    69   6 C    3.988 --    75 C    1.382    70 C    1.380    68 C    1.033
    70   6 C    3.988 --    71 C    1.469    69 C    1.380   104 H    0.973
    71   6 C    3.990 --    70 C    1.469    72 C    1.354   105 H    0.972
    72   6 C    3.952 --    74 C    1.354    71 C    1.354    73 N    1.115
    73   7 N    3.134 --    72 C    1.115   106 H    0.934   107 H    0.933
    74   6 C    3.990 --    75 C    1.468    72 C    1.354   108 H    0.972
    75   6 C    3.987 --    74 C    1.468    69 C    1.382   109 H    0.973
    76   6 C    3.914 --    68 C    1.335    79 N    1.285    77 C    1.127
    77   6 C    3.966 --    78 C    1.707    76 C    1.127   110 H    0.974
    78   6 C    3.963 --    77 C    1.707    80 C    1.130   111 H    0.974
    79   7 N    3.021 --    80 C    1.346    76 C    1.285
    80   6 C    3.909 --    79 N    1.346    81 C    1.251    78 C    1.130
    81   6 C    3.935 --    80 C    1.251    82 C    1.250   128 C    1.193
    82   6 C    3.886 --    83 C    1.251    81 C    1.250    86 N    1.190
    83   6 C    3.959 --    84 C    1.580    82 C    1.251   112 H    0.975
    84   6 C    3.955 --    83 C    1.580    85 C    1.243   113 H    0.974
    85   6 C    3.897 --    87 C    1.307    84 C    1.243    86 N    1.164
    86   7 N    3.473 --    82 C    1.190    85 C    1.164   114 H    0.873
    87   6 C    3.925 --    95 C    1.318    85 C    1.307    88 C    1.036
    88   6 C    3.988 --    94 C    1.380    89 C    1.379    87 C    1.036
    89   6 C    3.987 --    90 C    1.469    88 C    1.379   115 H    0.973
    90   6 C    3.989 --    89 C    1.469    91 C    1.353   116 H    0.972
    91   6 C    3.951 --    93 C    1.354    90 C    1.353    92 N    1.116
    92   7 N    3.134 --    91 C    1.116   117 H    0.933   118 H    0.933
    93   6 C    3.990 --    94 C    1.469    91 C    1.354   119 H    0.972
    94   6 C    3.986 --    93 C    1.469    88 C    1.380   120 H    0.973
    95   6 C    3.928 --    99 N    1.318    87 C    1.318    96 C    1.120
    96   6 C    3.967 --    97 C    1.719    95 C    1.120   121 H    0.974
    97   6 C    3.966 --    96 C    1.719    98 C    1.119   122 H    0.976
    98   6 C    3.930 --    62 C    1.365    99 N    1.299    97 C    1.119
    99   7 N    3.010 --    95 C    1.318    98 C    1.299
   100   1 H    1.002 --    62 C    0.971
   101   1 H    0.998 --    64 C    0.977
   102   1 H    1.005 --    65 C    0.974
   103   1 H    0.986 --    67 N    0.873
   104   1 H    1.005 --    70 C    0.973
   105   1 H    0.999 --    71 C    0.972
   106   1 H    0.961 --    73 N    0.934
   107   1 H    0.961 --    73 N    0.933
   108   1 H    0.999 --    74 C    0.972
   109   1 H    1.005 --    75 C    0.973
   110   1 H    1.006 --    77 C    0.974
   111   1 H    1.003 --    78 C    0.974
   112   1 H    1.002 --    83 C    0.975
   113   1 H    1.005 --    84 C    0.974
   114   1 H    0.988 --    86 N    0.873
   115   1 H    1.005 --    89 C    0.973
   116   1 H    0.999 --    90 C    0.972
   117   1 H    0.961 --    92 N    0.933
   118   1 H    0.961 --    92 N    0.933
   119   1 H    0.999 --    93 C    0.972
   120   1 H    1.005 --    94 C    0.973
   121   1 H    1.006 --    96 C    0.974
   122   1 H    0.999 --    97 C    0.976
   123   6 C    3.925 --   124 C    2.365   127 C    1.337   126 C    0.190
   124   6 C    3.925 --   123 C    2.365   125 C    1.337   128 C    0.190
   125   6 C    3.931 --   126 C    2.445   124 C    1.337
   126   6 C    3.890 --   125 C    2.445    20 C    1.193   123 C    0.190
   127   6 C    3.931 --   128 C    2.445   123 C    1.337
   128   6 C    3.890 --   127 C    2.445    81 C    1.193   124 C    0.190
 ---------------------------------------------------------------------------

           -------------------------------------------------
          | TOTAL ENERGY             -210.940295700570 Eh   |
          | GRADIENT NORM               0.000512207677 Eh/α |
          | HOMO-LUMO GAP               0.973389067394 eV   |
           -------------------------------------------------

 * finished run on 2022/07/29 at 18:46:27.309
