   * xtb version 6.5.1 (b24c23e) compiled by 'conda@728c89f4b128' on 2022-07-12
          program call               : xtb Fe_H_C6_4.xyz --gfn 1 --opt -T 48

   ID    Z sym.   atoms
    1   26 Fe     1, 37, 91, 126
    2    6 C      2-6, 8-11, 13-18, 20-24, 38-42, 44-47, 49-54, 56-60, 73-90,
                  92-96, 98-101, 103-108, 110-114, 127-131, 133-136, 138-143,
                  145-149
    3    7 N      7, 12, 19, 25, 43, 48, 55, 61, 97, 102, 109, 115, 132, 137,
                  144, 150
    4    1 H      26-36, 62-72, 116-125, 151-160

          :  Hamiltonian                  GFN1-xTB          :
 * total energy  :  -291.3908911 Eh     change       -0.3019466E-08 Eh
 * total energy  :  -291.7881606 Eh     change       -0.3972695E+00 Eh
 * total energy  :  -291.9129266 Eh     change       -0.1247660E+00 Eh
 * total energy  :  -291.9691367 Eh     change       -0.5621011E-01 Eh
 * total energy  :  -291.9911747 Eh     change       -0.2203800E-01 Eh
 * total energy  :  -292.0077566 Eh     change       -0.1658181E-01 Eh
 * total energy  :  -292.0258953 Eh     change       -0.1813874E-01 Eh
 * total energy  :  -292.0492114 Eh     change       -0.2331614E-01 Eh
 * total energy  :  -292.0770554 Eh     change       -0.2784400E-01 Eh
 * total energy  :  -292.1106613 Eh     change       -0.3360583E-01 Eh
 * total energy  :  -292.4287701 Eh     change       -0.1361124E-04 Eh
 * total energy  :  -292.4287958 Eh     change       -0.2570299E-04 Eh
 * total energy  :  -292.4288151 Eh     change       -0.1938628E-04 Eh
 * total energy  :  -292.4288410 Eh     change       -0.2585329E-04 Eh
 * total energy  :  -292.4288597 Eh     change       -0.1868503E-04 Eh
 * total energy  :  -292.4288734 Eh     change       -0.1375522E-04 Eh
 * total energy  :  -292.4288885 Eh     change       -0.1503254E-04 Eh
 * total energy  :  -292.4288949 Eh     change       -0.6393401E-05 Eh
 * total energy  :  -292.4288962 Eh     change       -0.1361921E-05 Eh
   *** GEOMETRY OPTIMIZATION CONVERGED AFTER 84 ITERATIONS ***

 final structure:
================
160
 xtb: 6.5.1 (b24c23e)
Fe          20.40490300175344       -0.02319283031408       -0.02201936103097
C           16.99266384910127       -0.03523746645667       -0.03704923561247
C           17.64734336026412       -0.89480512346887       -0.89532082284615
C           16.97606620619782       -1.79083744524876       -1.79115271153640
C           17.93997739423603       -2.46584840923766       -2.46029193806893
C           19.19715137745249       -1.98015177216993       -1.97149255100997
N           19.00567673305229       -1.02002739442607       -1.01598898981599
C           20.42120601739830       -2.43690755829474       -2.41957585387140
C           21.63678563379193       -1.97927799023087       -1.96003936947571
C           22.89815688502250       -2.46326310976261       -2.43534604756598
C           23.85422677856837       -1.78248068161976       -1.75937376508872
N           21.82225595074076       -1.01193868835688       -1.00148943056329
C           23.17251393840572       -0.88649581190095       -0.87490915326171
C           23.83670994574421       -0.00864312148857       -0.00923483316853
C           23.15876613445539        0.86298015258697        0.85194640850755
C           23.82631034804298        1.76391828051800        1.74214284914683
C           22.85952428503348        2.43553933429820        2.41201618363726
C           21.60584333734696        1.94127057473270        1.92700332036835
N           21.80657872841684        0.97651240711381        0.96895640393493
C           20.38304683843484        2.38842856172726        2.37763220235383
C           19.16625684289716        1.92296650740152        1.91886347115227
C           17.90141714365974        2.39923599670597        2.39705488316347
C           16.94823699889414        1.71866084101914        1.71825454326371
C           17.63369520887590        0.82833893884548        0.82748211850573
N           18.98999564827923        0.96264098734761        0.96062511572439
H           15.90854219496741       -0.03892273708455       -0.04195691806873
H           15.90446602626649       -1.87565442533537       -1.87956245852585
H           17.83266532297175       -3.22585237316358       -3.21807989113824
H           20.42584900203890       -3.20630551879367       -3.18355078958647
H           23.01575309539935       -3.22536412775053       -3.18927264926674
H           24.92631482429661       -1.86548026003216       -1.83898026016468
H           24.89705373290483        1.85614480476879        1.82942157084582
H           22.96505665296089        3.19787136223480        3.16749254320106
H           20.37550653795751        3.15685033257706        3.14256724564901
H           17.78203948177978        3.15747559924867        3.15480547425193
H           15.87532522918233        1.79607868968556        1.79702295802545
Fe          68.50567128106900        0.00434433517649       -0.00788132772053
C           71.91692300587684        0.03151753517310       -0.05532547146946
C           71.25866472630005        1.24402266290298       -0.07903735457367
C           71.92573646390713        2.51251495608209       -0.12327570084262
C           70.95995313753687        3.46076586739104       -0.09851960132340
C           69.70546696782100        2.76917483474776       -0.04113083613009
N           69.90052442459583        1.41490078870762       -0.03784492441566
C           68.48153259603612        3.40579946595657        0.02052417296630
C           67.26858782360176        2.75347724847449        0.06570144652834
C           66.00640574180731        3.42765822948535        0.12448604170070
C           65.05248881668744        2.46612073362666        0.11874154788541
N           67.08616784411257        1.39173932814350        0.03529218138154
C           65.73609305138901        1.20965070319907        0.05816429055681
C           65.07500662567749       -0.02280213231161        0.00008976798584
C           65.75540159501075       -1.24505184622304       -0.04840033288842
C           65.09146829921939       -2.51284604808822       -0.08902698101503
C           66.06017171563524       -3.45941460557247       -0.07581495891422
C           67.31179151317477       -2.76473073165722       -0.03185709892321
N           67.10818229759484       -1.40573229101385       -0.02266782052257
C           68.53547222241787       -3.39712543135117        0.00768991788752
C           69.75015364415285       -2.74055108012852        0.03009043116624
C           71.01674317266726       -3.41164869530530        0.05708752605591
C           71.96754429497169       -2.44834821299462        0.03383294047307
C           71.27919115301063       -1.19109420852136       -0.00436139908973
N           69.92335650076014       -1.38356052481829        0.00185573630134
H           73.00085751726428        0.04010869278166       -0.07339280390241
H           72.99627066243366        2.63748070024886       -0.16446707390426
H           71.06440378657376        4.53416472434001       -0.11569645328982
H           68.47419930676784        4.48998105564549        0.03114009855692
H           65.88667518435641        4.49881210279794        0.16122037217929
H           63.98052710994550        2.57813419630200        0.15004932464303
H           64.02136694651620       -2.64197627491364       -0.11816824483119
H           65.95711201736391       -4.53278684579685       -0.09333966498251
H           68.54525107332451       -4.48131508925409        0.01473145141429
H           71.13884878842168       -4.48292108187279        0.08616772587418
H           73.04071884047409       -2.55610596182109        0.04038884662901
C           29.03380800022784        0.00572224218030        0.00038615322904
C           27.80344355838441        0.00434022149275        0.00014789576706
C           26.46266357727399        0.00163773516570       -0.00194897185834
C           25.23704158130189       -0.00295151626680       -0.00429664061522
C           30.37433222467062        0.00600856313565        0.00103951927463
C           31.60027061777200        0.00480483085441        0.00111433533891
C           45.07099985396832       -0.02385113649565       -0.03013726762312
C           43.84008298966958       -0.01927391234565       -0.02798621101787
C           42.50062263463201       -0.01503956896638       -0.02496626528233
C           41.27427185431851       -0.01126495671420       -0.02061393422670
C           46.41047608751246       -0.02983780374768       -0.03238023443472
C           47.63679922162638       -0.03508047625455       -0.03415244086027
C           61.10672109163179       -0.04692252909801       -0.01860619813071
C           59.87691398141160       -0.05140867586316       -0.02435323660135
C           58.53543874173005       -0.05312367305114       -0.02888627142741
C           57.31002144959435       -0.05475946892186       -0.03125152947835
C           62.44845042304664       -0.04077143130666       -0.01178084169855
C           63.67351318143773       -0.03322987530847       -0.00539550370261
Fe          36.43803030477194       -0.00798438069768       -0.00351682463940
C           32.99951621836104        0.00105449452918        0.00044206431012
C           33.67516451670185        0.90929821630208        0.82622782959675
C           33.00505212331055        1.84523847948039        1.67638242834756
C           33.97086087001335        2.54984123699225        2.31427869613239
C           35.22395021631118        2.03894045536325        1.84815927019867
N           35.02687766602477        1.03196155204133        0.93609763349203
C           36.44748968966913        2.51520387943076        2.27174092743112
C           37.66709502738927        2.04202185370438        1.83595712087458
C           38.92431328517661        2.55579114461776        2.28826486276129
C           39.88461888104638        1.84835458896294        1.64549417475722
N           37.85694342242655        1.03123619446539        0.92572193056241
C           39.20711203559534        0.90765347497474        0.80615826426254
C           39.87608687992027       -0.00998401516022       -0.01535121850280
C           39.20034725517415       -0.92837947726080       -0.83046921289488
C           39.87103616856123       -1.87286809978913       -1.67103104322625
C           38.90556012711115       -2.58341999964016       -2.30249593447357
C           37.65207962990970       -2.06687309471542       -1.84308551265522
N           37.84927722420314       -1.05191618265174       -0.93906951669171
C           36.42901149253836       -2.53938464505382       -2.26971890256780
C           35.20900151156886       -2.05590634872514       -1.84419810150198
C           33.95220876239105       -2.56150119859924       -2.30603488740715
C           32.99160283042279       -1.84768327690665       -1.67055406862647
C           33.66855925854168       -0.91237139479446       -0.82511394579661
N           35.01933970132007       -1.04361032987075       -0.93644747740486
H           31.93417623222400        1.93717168122613        1.76128666542233
H           33.86409609102017        3.34458459300600        3.03530026742241
H           36.45006436774709        3.32017058713032        2.99844892647429
H           39.03721264952355        3.35394025917422        3.00458681519065
H           40.95619150331780        1.94075803953549        1.72075105376011
H           40.94195208845204       -1.96587087082178       -1.75440123489244
H           39.01265640083692       -3.38507874833648       -3.01577980374137
H           36.42568235886822       -3.34787673601095       -2.99249575428042
H           33.83961853510169       -3.35894693025501       -3.02317785905410
H           31.92009033200786       -1.93342225786012       -1.75380728602915
Fe          52.47224777220820       -0.04662631997351       -0.03144641882447
C           49.03503472863056       -0.03906284645752       -0.03314675680979
C           49.70920783785422        0.89062163943342        0.77039675668887
C           49.03743617766940        1.84581406335152        1.59800970244947
C           50.00165428512210        2.58625383824928        2.19614233876808
C           51.25568599808190        2.07797681789247        1.72884498263473
N           51.05989436429915        1.03161242759654        0.86085111394444
C           52.47699189283031        2.60232879689980        2.09524585972041
C           53.69691459564947        2.12980699686935        1.65661817840520
C           54.95227153139579        2.69685297785432        2.04531842270470
C           55.91395624684787        1.95515611667544        1.44436967094351
N           53.88824185084718        1.05800401852728        0.82071512799483
C           55.23935762925132        0.93988794088044        0.69457018169858
C           55.90964021828639       -0.05264107314334       -0.03183441848824
C           55.23584290727545       -1.04294760057833       -0.75781622949522
C           55.90680348893794       -2.06082094110672       -1.50729542436677
C           54.94239885541314       -2.80042528279094       -2.10648313382426
C           53.68903097056661       -2.22918037200564       -1.71740510309453
N           53.88426467758765       -1.15684166529871       -0.88309656123031
C           52.46733128508998       -2.69820901461808       -2.15488588536850
C           51.24794285985038       -2.16853913710910       -1.78968992625550
C           49.99209564576692       -2.67184401763998       -2.25756537786001
C           49.03060332475349       -1.92573766314385       -1.66207851563557
C           49.70581125738653       -0.97248131113683       -0.83506094197182
N           51.05595981091096       -1.11983416457947       -0.92368158919028
H           47.96661383079196        1.92613360876841        1.69475860362870
H           49.89336521805545        3.40516805254516        2.88937093565093
H           52.47923141380087        3.44726112438127        2.77504916657440
H           55.06329801225337        3.54973766179060        2.69583029596303
H           56.98494239561119        2.06803468399588        1.49609255615067
H           56.97743843557135       -2.17677673392405       -1.55976342539597
H           55.05034065875770       -3.65439250270765       -2.75610254019275
H           52.46647470768901       -3.54406757680327       -2.83354302237208
H           49.88082169402437       -3.49147479457247       -2.94947727121513
H           47.95951385812199       -2.00117968558411       -1.75992108912343

          :  Hamiltonian                  GFN1-xTB          :
         :: total energy            -292.428896219606 Eh    ::
         :: gradient norm              0.000249765182 Eh/a0 ::
         :: HOMO-LUMO gap              0.045575692161 eV    ::
         :: SCC energy              -297.410579074164 Eh    ::
         :: repulsion energy           5.120663636849 Eh    ::

    * Orbital Energies and Occupations

         #    Occupation            Energy/Eh            Energy/eV
      -------------------------------------------------------------
         1        2.0000           -0.7747246             -21.0813
       ...           ...                  ...                  ...
       261        1.9917           -0.3923541             -10.6765
       262        1.9916           -0.3923445             -10.6762
       263        1.9913           -0.3923163             -10.6755
       264        1.9809           -0.3915615             -10.6549
       265        1.9700           -0.3911266             -10.6431
       266        1.9686           -0.3910814             -10.6419
       267        1.9515           -0.3906605             -10.6304
       268        1.9476           -0.3905856             -10.6284
       269        1.9450           -0.3905391             -10.6271
       270        1.9396           -0.3904467             -10.6246
       271        1.9321           -0.3903324             -10.6215
       272        1.9257           -0.3902431             -10.6191
       273        1.1180           -0.3873758             -10.5410 (HOMO)
       274        0.3572           -0.3857010             -10.4955 (LUMO)
       275        0.3541           -0.3856908             -10.4952
       276        0.3231           -0.3855864             -10.4923
       277        0.3203           -0.3855765             -10.4921
       278                         -0.3500073              -9.5242
       279                         -0.3422656              -9.3135
       280                         -0.3342832              -9.0963
       281                         -0.3327551              -9.0547
       282                         -0.3324249              -9.0457
       283                         -0.3305911              -8.9958
       284                         -0.3289673              -8.9517
       ...                                ...                  ...
       576                          1.5709059              42.7465
      -------------------------------------------------------------
                  HL-Gap            0.0016749 Eh            0.0456 eV

Wiberg/Mayer (AO) data.
largest (>0.10) Wiberg bond orders for each atom

     #   Z sym  total        # sym  WBO       # sym  WBO       # sym  WBO
 ---------------------------------------------------------------------------
     1  26 Fe   3.102 --    25 N    0.669     7 N    0.669    12 N    0.662
                            19 N    0.662
     2   6 C    3.923 --     3 C    1.364    24 C    1.364    26 H    0.971
     3   6 C    3.924 --     2 C    1.364     7 N    1.213     4 C    1.169
     4   6 C    3.958 --     5 C    1.655     3 C    1.169    27 H    0.975
     5   6 C    3.961 --     4 C    1.655     6 C    1.170    28 H    0.975
     6   6 C    3.920 --     8 C    1.354     7 N    1.219     5 C    1.170
     7   7 N    3.385 --     6 C    1.219     3 C    1.213     1 Fe   0.669
     8   6 C    3.929 --     9 C    1.378     6 C    1.354    29 H    0.970
     9   6 C    3.917 --     8 C    1.378    12 N    1.193    10 C    1.173
    10   6 C    3.955 --    11 C    1.645     9 C    1.173    30 H    0.975
    11   6 C    3.959 --    10 C    1.645    13 C    1.183    31 H    0.973
    12   7 N    3.384 --    13 C    1.251     9 C    1.193     1 Fe   0.662
    13   6 C    3.903 --    12 N    1.251    14 C    1.251    11 C    1.183
    14   6 C    3.925 --    15 C    1.251    13 C    1.251    76 C    1.204
    15   6 C    3.903 --    14 C    1.251    19 N    1.251    16 C    1.183
    16   6 C    3.959 --    17 C    1.645    15 C    1.183    32 H    0.973
    17   6 C    3.955 --    16 C    1.645    18 C    1.173    33 H    0.975
    18   6 C    3.917 --    20 C    1.378    19 N    1.193    17 C    1.173
    19   7 N    3.384 --    15 C    1.251    18 C    1.193     1 Fe   0.662
    20   6 C    3.929 --    18 C    1.378    21 C    1.354    34 H    0.970
    21   6 C    3.920 --    20 C    1.354    25 N    1.219    22 C    1.170
    22   6 C    3.961 --    23 C    1.655    21 C    1.170    35 H    0.975
    23   6 C    3.958 --    22 C    1.655    24 C    1.169    36 H    0.975
    24   6 C    3.924 --     2 C    1.364    25 N    1.213    23 C    1.169
    25   7 N    3.385 --    21 C    1.219    24 C    1.213     1 Fe   0.669
    26   1 H    1.000 --     2 C    0.971
    27   1 H    0.998 --     4 C    0.975
    28   1 H    0.998 --     5 C    0.975
    29   1 H    1.000 --     8 C    0.970
    30   1 H    0.997 --    10 C    0.975
    31   1 H    1.002 --    11 C    0.973
    32   1 H    1.002 --    16 C    0.973
    33   1 H    0.997 --    17 C    0.975
    34   1 H    1.000 --    20 C    0.970
    35   1 H    0.998 --    22 C    0.975
    36   1 H    0.998 --    23 C    0.975
    37  26 Fe   3.109 --    61 N    0.671    43 N    0.671    48 N    0.664
                            55 N    0.664
    38   6 C    3.925 --    39 C    1.364    60 C    1.364    62 H    0.971
    39   6 C    3.924 --    38 C    1.364    43 N    1.213    40 C    1.169
    40   6 C    3.958 --    41 C    1.655    39 C    1.169    63 H    0.975
    41   6 C    3.960 --    40 C    1.655    42 C    1.170    64 H    0.975
    42   6 C    3.920 --    44 C    1.356    43 N    1.218    41 C    1.170
    43   7 N    3.387 --    42 C    1.218    39 C    1.213    37 Fe   0.671
    44   6 C    3.931 --    45 C    1.377    42 C    1.356    65 H    0.970
    45   6 C    3.917 --    44 C    1.377    48 N    1.194    46 C    1.173
    46   6 C    3.955 --    47 C    1.645    45 C    1.173    66 H    0.975
    47   6 C    3.959 --    46 C    1.645    49 C    1.182    67 H    0.973
    48   7 N    3.386 --    49 C    1.248    45 C    1.194    37 Fe   0.664
    49   6 C    3.903 --    50 C    1.254    48 N    1.248    47 C    1.182
    50   6 C    3.928 --    51 C    1.254    49 C    1.254    90 C    1.199
    51   6 C    3.903 --    50 C    1.254    55 N    1.248    52 C    1.182
    52   6 C    3.959 --    53 C    1.645    51 C    1.182    68 H    0.973
    53   6 C    3.955 --    52 C    1.645    54 C    1.173    69 H    0.975
    54   6 C    3.917 --    56 C    1.376    55 N    1.194    53 C    1.173
    55   7 N    3.386 --    51 C    1.248    54 C    1.194    37 Fe   0.664
    56   6 C    3.931 --    54 C    1.376    57 C    1.356    70 H    0.970
    57   6 C    3.920 --    56 C    1.356    61 N    1.217    58 C    1.170
    58   6 C    3.960 --    59 C    1.655    57 C    1.170    71 H    0.975
    59   6 C    3.958 --    58 C    1.655    60 C    1.169    72 H    0.975
    60   6 C    3.924 --    38 C    1.364    61 N    1.213    59 C    1.169
    61   7 N    3.387 --    57 C    1.217    60 C    1.213    37 Fe   0.671
    62   1 H    1.000 --    38 C    0.971
    63   1 H    0.998 --    40 C    0.975
    64   1 H    0.998 --    41 C    0.975
    65   1 H    1.000 --    44 C    0.970
    66   1 H    0.997 --    46 C    0.975
    67   1 H    1.002 --    47 C    0.973
    68   1 H    1.002 --    52 C    0.973
    69   1 H    0.997 --    53 C    0.975
    70   1 H    1.000 --    56 C    0.970
    71   1 H    0.998 --    58 C    0.975
    72   1 H    0.998 --    59 C    0.975
    73   6 C    3.916 --    74 C    2.338    77 C    1.355    76 C    0.187
    74   6 C    3.913 --    73 C    2.338    75 C    1.354    78 C    0.186
    75   6 C    3.925 --    76 C    2.422    74 C    1.354
    76   6 C    3.876 --    75 C    2.422    14 C    1.204    73 C    0.187
    77   6 C    3.920 --    78 C    2.418    73 C    1.355
    78   6 C    3.878 --    77 C    2.418    92 C    1.210    74 C    0.186
    79   6 C    3.912 --    80 C    2.329    83 C    1.360    82 C    0.185
    80   6 C    3.912 --    79 C    2.329    81 C    1.361    84 C    0.185
    81   6 C    3.919 --    82 C    2.411    80 C    1.361
    82   6 C    3.875 --    81 C    2.411   104 C    1.214    79 C    0.185
    83   6 C    3.919 --    84 C    2.411    79 C    1.360
    84   6 C    3.875 --    83 C    2.411   127 C    1.213    80 C    0.185
    85   6 C    3.913 --    86 C    2.345    89 C    1.348    88 C    0.186
    86   6 C    3.916 --    85 C    2.345    87 C    1.350    90 C    0.187
    87   6 C    3.921 --    88 C    2.425    86 C    1.350
    88   6 C    3.879 --    87 C    2.425   139 C    1.204    85 C    0.186
    89   6 C    3.927 --    90 C    2.429    85 C    1.348
    90   6 C    3.877 --    89 C    2.429    50 C    1.199    86 C    0.187
    91  26 Fe   3.050 --   115 N    0.650    97 N    0.650   109 N    0.649
                           102 N    0.649
    92   6 C    3.908 --    93 C    1.247   114 C    1.247    78 C    1.210
    93   6 C    3.904 --    97 N    1.253    92 C    1.247    94 C    1.186
    94   6 C    3.959 --    95 C    1.640    93 C    1.186   116 H    0.973
    95   6 C    3.957 --    94 C    1.640    96 C    1.177   117 H    0.975
    96   6 C    3.915 --    98 C    1.363    97 N    1.200    95 C    1.177
    97   7 N    3.372 --    93 C    1.253    96 C    1.200    91 Fe   0.650
    98   6 C    3.921 --    99 C    1.368    96 C    1.363   118 H    0.970
    99   6 C    3.915 --    98 C    1.368   102 N    1.198   100 C    1.176
   100   6 C    3.957 --   101 C    1.642    99 C    1.176   119 H    0.975
   101   6 C    3.959 --   100 C    1.642   103 C    1.185   120 H    0.973
   102   7 N    3.371 --   103 C    1.256    99 C    1.198    91 Fe   0.649
   103   6 C    3.904 --   102 N    1.256   104 C    1.245   101 C    1.185
   104   6 C    3.907 --   103 C    1.245   105 C    1.244    82 C    1.214
   105   6 C    3.904 --   109 N    1.256   104 C    1.244   106 C    1.185
   106   6 C    3.959 --   107 C    1.642   105 C    1.185   121 H    0.973
   107   6 C    3.957 --   106 C    1.642   108 C    1.176   122 H    0.975
   108   6 C    3.915 --   110 C    1.368   109 N    1.198   107 C    1.176
   109   7 N    3.371 --   105 C    1.256   108 C    1.198    91 Fe   0.649
   110   6 C    3.921 --   108 C    1.368   111 C    1.364   123 H    0.970
   111   6 C    3.915 --   110 C    1.364   115 N    1.200   112 C    1.177
   112   6 C    3.957 --   113 C    1.640   111 C    1.177   124 H    0.975
   113   6 C    3.959 --   112 C    1.640   114 C    1.186   125 H    0.973
   114   6 C    3.904 --   115 N    1.254    92 C    1.247   113 C    1.186
   115   7 N    3.373 --   114 C    1.254   111 C    1.200    91 Fe   0.650
   116   1 H    1.001 --    94 C    0.973
   117   1 H    0.997 --    95 C    0.975
   118   1 H    1.001 --    98 C    0.970
   119   1 H    0.997 --   100 C    0.975
   120   1 H    1.001 --   101 C    0.973
   121   1 H    1.001 --   106 C    0.973
   122   1 H    0.997 --   107 C    0.975
   123   1 H    1.001 --   110 C    0.970
   124   1 H    0.997 --   112 C    0.975
   125   1 H    1.001 --   113 C    0.973
   126  26 Fe   3.055 --   137 N    0.651   144 N    0.651   132 N    0.650
                           150 N    0.650
   127   6 C    3.908 --   149 C    1.245   128 C    1.245    84 C    1.213
   128   6 C    3.904 --   132 N    1.256   127 C    1.245   129 C    1.185
   129   6 C    3.959 --   130 C    1.642   128 C    1.185   151 H    0.973
   130   6 C    3.957 --   129 C    1.642   131 C    1.176   152 H    0.975
   131   6 C    3.915 --   133 C    1.369   132 N    1.197   130 C    1.176
   132   7 N    3.372 --   128 C    1.256   131 C    1.197   126 Fe   0.650
   133   6 C    3.921 --   131 C    1.369   134 C    1.362   153 H    0.970
   134   6 C    3.915 --   133 C    1.362   137 N    1.201   135 C    1.177
   135   6 C    3.957 --   136 C    1.641   134 C    1.177   154 H    0.975
   136   6 C    3.959 --   135 C    1.641   138 C    1.185   155 H    0.973
   137   7 N    3.374 --   138 C    1.251   134 C    1.201   126 Fe   0.651
   138   6 C    3.904 --   137 N    1.251   139 C    1.250   136 C    1.185
   139   6 C    3.910 --   140 C    1.250   138 C    1.250    88 C    1.204
   140   6 C    3.904 --   144 N    1.251   139 C    1.250   141 C    1.185
   141   6 C    3.959 --   142 C    1.641   140 C    1.185   156 H    0.973
   142   6 C    3.957 --   141 C    1.641   143 C    1.177   157 H    0.975
   143   6 C    3.915 --   145 C    1.362   144 N    1.201   142 C    1.177
   144   7 N    3.374 --   140 C    1.251   143 C    1.201   126 Fe   0.651
   145   6 C    3.921 --   146 C    1.369   143 C    1.362   158 H    0.970
   146   6 C    3.915 --   145 C    1.369   150 N    1.197   147 C    1.176
   147   6 C    3.957 --   148 C    1.642   146 C    1.176   159 H    0.975
   148   6 C    3.959 --   147 C    1.642   149 C    1.185   160 H    0.973
   149   6 C    3.904 --   150 N    1.256   127 C    1.245   148 C    1.185
   150   7 N    3.372 --   149 C    1.256   146 C    1.197   126 Fe   0.650
   151   1 H    1.001 --   129 C    0.973
   152   1 H    0.997 --   130 C    0.975
   153   1 H    1.001 --   133 C    0.970
   154   1 H    0.997 --   135 C    0.975
   155   1 H    1.001 --   136 C    0.973
   156   1 H    1.001 --   141 C    0.973
   157   1 H    0.997 --   142 C    0.975
   158   1 H    1.001 --   145 C    0.970
   159   1 H    0.997 --   147 C    0.975
   160   1 H    1.001 --   148 C    0.973
 ---------------------------------------------------------------------------

           -------------------------------------------------
          | TOTAL ENERGY             -292.428896219606 Eh   |
          | GRADIENT NORM               0.000249765182 Eh/α |
          | HOMO-LUMO GAP               0.045575692161 eV   |
           -------------------------------------------------

 * finished run on 2022/07/29 at 16:13:03.931
