   * xtb version 6.5.1 (b24c23e) compiled by 'conda@728c89f4b128' on 2022-07-12
          program call               : xtb Zn_PhOH_C2_2.xyz --gfn 1 --opt -T 48

   ID    Z sym.   atoms
    1   30 Zn     1, 59
    2    6 C      2-6, 8-12, 14-18, 20-25, 27-31, 33-38, 60-64, 66-70, 72-76,
                  78-83, 85-89, 91-96, 117, 118
    3    7 N      7, 19, 26, 39, 65, 77, 84, 97
    4    8 O      13, 32, 71, 90
    5    1 H      40-58, 98-116
########################################################################
[WARNING] Please study the warnings concerning your input carefully
-1- prog_main_parseArguments: Unknown option '-T' provided
########################################################################

          :  Hamiltonian                  GFN1-xTB          :
 * total energy  :  -205.5343698 Eh     change       -0.2704837E-08 Eh
 * total energy  :  -205.7585448 Eh     change       -0.2241750E+00 Eh
 * total energy  :  -205.8345872 Eh     change       -0.7604245E-01 Eh
 * total energy  :  -205.8613162 Eh     change       -0.2672899E-01 Eh
 * total energy  :  -205.8711800 Eh     change       -0.9863789E-02 Eh
 * total energy  :  -205.8768773 Eh     change       -0.5697298E-02 Eh
 * total energy  :  -205.8805736 Eh     change       -0.3696334E-02 Eh
 * total energy  :  -205.8831701 Eh     change       -0.2596504E-02 Eh
 * total energy  :  -205.8849724 Eh     change       -0.1802295E-02 Eh
 * total energy  :  -205.8861849 Eh     change       -0.1212425E-02 Eh
 * total energy  :  -205.8899472 Eh     change       -0.1904832E-04 Eh
 * total energy  :  -205.8899605 Eh     change       -0.1339169E-04 Eh
 * total energy  :  -205.8899707 Eh     change       -0.1012058E-04 Eh
 * total energy  :  -205.8899799 Eh     change       -0.9199536E-05 Eh
 * total energy  :  -205.8899906 Eh     change       -0.1078487E-04 Eh
 * total energy  :  -205.8900014 Eh     change       -0.1077541E-04 Eh
 * total energy  :  -205.8900115 Eh     change       -0.1010184E-04 Eh
 * total energy  :  -205.8900204 Eh     change       -0.8835727E-05 Eh
 * total energy  :  -205.8900236 Eh     change       -0.3211568E-05 Eh
   *** GEOMETRY OPTIMIZATION CONVERGED AFTER 44 ITERATIONS ***

 final structure:
================
118
 xtb: 6.5.1 (b24c23e)
Zn          16.82038893565015       -0.06231116460672        0.01715881717541
C           13.40303270740360       -0.10417535922006       -0.04179776192385
C           14.03735493547670       -1.33718380971538        0.04915878259352
C           13.36785509560868       -2.60272982615018        0.15953501018137
C           14.33046773830549       -3.55446046720282        0.24827427996465
C           15.60081517727402       -2.88157231253275        0.18343111519224
N           15.38754999609571       -1.53911403510775        0.06912909120175
C           16.85384661552339       -3.50105747406563        0.25733385120955
C           16.86759977992860       -4.98235234419653        0.36393531978264
C           16.33815844422206       -5.77013038332069       -0.65854918586881
C           16.34126354783458       -7.15328906465197       -0.56231827401582
C           16.87174669145320       -7.76545200534982        0.57059249902761
O           16.88878445083875       -9.11726074035014        0.70857739815610
C           17.40302569768756       -6.99070763577975        1.59984783806513
C           17.40177782816121       -5.61113540316184        1.49107946764784
C           18.09100100565303       -2.84737900049655        0.23965487840999
C           19.36751813822682       -3.50343072317284        0.26838506677619
C           20.31458456560118       -2.53301550879554        0.21723698025092
N           18.28948057433868       -1.49386000562540        0.16039110959615
C           19.63380559854217       -1.27511706796687        0.14847156326119
C           20.27181594233954       -0.01911295865283        0.06304461388987
C           19.60520232719195        1.22106683248475       -0.03373975334428
C           20.25723512847185        2.49031343533525       -0.15364164973097
C           19.28837327868225        3.43700084900810       -0.23204993468588
C           18.02704613882179        2.75586939216368       -0.15307178834484
N           18.25626862432606        1.40963829827679       -0.04185681736605
C           16.77528432232725        3.37938431149440       -0.21173738551875
C           16.76038831790971        4.86161181855629       -0.29963064504560
C           17.30451030344831        5.63891579423473        0.72590899212735
C           17.29011085285845        7.02057046633756        0.65332081448116
C           16.73226652920961        7.64803963126855       -0.45891418713293
O           16.73751641886782        9.00626655454122       -0.50043186268986
C           16.18848914795539        6.88695391233612       -1.49071163395717
C           16.20175202269970        5.50300326846525       -1.40537709828723
C           15.53641973809663        2.72808981309482       -0.19250701249686
C           14.25086670837470        3.37461110912724       -0.20914851655549
C           13.31047065001983        2.39775937385137       -0.16757380914973
C           14.00902147462805        1.14422307506692       -0.11443609132451
N           15.35416917367556        1.37775598828869       -0.12777892203057
H           12.31745477363433       -0.11673541680786       -0.04295969517650
H           12.29707765976931       -2.73378455188044        0.17479498554111
H           14.19668500907584       -4.61843144864046        0.36172535842823
H           15.93444039823238       -5.29486204462732       -1.54575757079393
H           15.93362100998280       -7.76062774590879       -1.36347209024368
H           16.49470643310857       -9.55278245780127       -0.05903875643978
H           17.80917148333367       -7.48043391664334        2.47629822833434
H           17.80317764141963       -5.00807458872798        2.29789122374111
H           19.51992150050908       -4.56992178543528        0.30801588781384
H           21.38381073144402       -2.65694939125790        0.21904374829695
H           21.32329581584576        2.63623259117186       -0.18222737254044
H           19.41667687308012        4.50101824655862       -0.34851240452741
H           17.72770452602828        5.15094739107976        1.59687067737352
H           17.70581936915111        7.62510209444316        1.44997735102799
H           16.32613932221756        9.33425360993386       -1.31121578219201
H           15.75889380643373        7.37968951187790       -2.35647104846002
H           15.78945176397216        4.91187991735081       -2.21567407758264
H           14.09245133785932        4.44092588148779       -0.23520308097550
H           12.23691849526549        2.50489655018482       -0.16396112763995
Zn          27.76738204014699        0.06414703953288        0.00830022231007
C           31.18473855334003        0.09687455765519       -0.05669829199405
C           30.55048886757345        1.33021821008734       -0.14354154090328
C           31.22006642298464        2.59845602721168       -0.21605765826368
C           30.25751456155092        3.55314750493906       -0.26453756791433
C           28.98712349886177        2.87801341920289       -0.23188673050864
N           29.20030672452244        1.53302666155052       -0.15243818569020
C           27.73412770268525        3.50176397810906       -0.24738515621553
C           27.72030802339386        4.98303151745469       -0.35433884787572
C           28.24951770752916        5.61606934520446       -1.47931316431376
C           28.24593399925336        6.99871939887120       -1.58260499399449
C           27.71519239293971        7.76697526667759       -0.54929111916781
O           27.69753540440195        9.12458066501892       -0.60683528840567
C           27.18427011291350        7.14781145317797        0.58058164129458
C           27.18600134550414        5.76691571750657        0.67095364637117
C           26.49693540445777        2.85237664668226       -0.17101261111622
C           25.22045236889755        3.50583523367682       -0.23671855473197
C           24.27332425055369        2.53818788524767       -0.14807711747123
N           26.29837084812226        1.50150451067250       -0.05525656365037
C           24.95403356745159        1.28337820900056       -0.03587318639504
C           24.31594739686374        0.02813954548560        0.05961784096801
C           24.98249304691846       -1.21312324028564        0.14190001914389
C           24.33040355093842       -2.48640190143384        0.20552776857556
C           25.29921751010799       -3.43459618018698        0.26373949037091
C           26.56057019543368       -2.74923098263294        0.24421156423588
N           26.33141878264162       -1.40095834084815        0.16115215655903
C           27.81229196580399       -3.37477087709625        0.27558529809325
C           27.82722872088933       -4.85428222434824        0.40121618125303
C           27.28352955515556       -5.47653893560086        1.52779268928313
C           27.29832526889927       -6.85431798795429        1.65414333011649
C           27.85611423586383       -7.63472375387524        0.64329698151138
O           27.85135570825800       -8.98485093621704        0.79713799654734
C           28.39934371285420       -7.02940970549160       -0.48721240201731
C           28.38571067930139       -5.64753601666822       -0.60126861341025
C           29.05118829593316       -2.72752923718743        0.20107927270769
C           30.33670272114923       -3.36983391041655        0.27728677346516
C           31.27715605473957       -2.39720200980940        0.17806280407315
C           30.57867746622284       -1.14897341134660        0.05076196228116
N           29.23351602042253       -1.38190291017080        0.07127914275428
H           32.27031688140881        0.10905002023506       -0.05987213769261
H           32.29085436371630        2.73025606990324       -0.22003601381399
H           30.39136912709208        4.62237856164815       -0.30494130144099
H           28.65336970544100        5.01852101501388       -2.28915604295506
H           28.65333964062264        7.48491379997695       -2.46266958090333
H           28.09124610587222        9.44554890121520       -1.42913778812788
H           26.77796370478740        7.75812849266162        1.37768932769317
H           26.78483202990087        5.28576446463949        1.55599907593274
H           25.06810433489836        4.56698479597260       -0.35054238031696
H           23.20410395071358        2.66115905024097       -0.16410515619729
H           23.26433787665980       -2.63486289242062        0.19811526764266
H           25.17088406826693       -4.50431024756365        0.30112729662035
H           26.86038987680366       -4.86878636839872        2.31985733979943
H           26.88304276433076       -7.33842208901264        2.52942954213264
H           28.26281084580694       -9.42565137058026        0.04177254419510
H           28.82883434180475       -7.64113141034018       -1.27347843935561
H           28.79762908333807       -5.17864058540419       -1.48809513555212
H           30.49505492446051       -4.42885360424396        0.40457917523294
H           32.35070194740104       -2.50279332728113        0.19689129957241
C           21.68436971472501       -0.00285369751956        0.06252801182261
C           22.90339345233329        0.01203510971773        0.06144629431203

          :  Hamiltonian                  GFN1-xTB          :
         :: total energy            -205.890023573069 Eh    ::
         :: gradient norm              0.000444018011 Eh/a0 ::
         :: HOMO-LUMO gap              1.059984390744 eV    ::
         :: SCC energy              -208.977963575381 Eh    ::
         :: repulsion energy           3.194623250623 Eh    ::

    * Orbital Energies and Occupations

         #    Occupation            Energy/Eh            Energy/eV
      -------------------------------------------------------------
         1        2.0000           -0.8020682             -21.8254
       ...           ...                  ...                  ...
       173        2.0000           -0.4180001             -11.3744
       174        2.0000           -0.4173462             -11.3566
       175        2.0000           -0.4173322             -11.3562
       176        2.0000           -0.4169967             -11.3471
       177        2.0000           -0.4165032             -11.3336
       178        2.0000           -0.4164279             -11.3316
       179        2.0000           -0.4147024             -11.2846
       180        2.0000           -0.4143647             -11.2754
       181        2.0000           -0.4142922             -11.2735
       182        2.0000           -0.3892966             -10.5933
       183        2.0000           -0.3892817             -10.5929
       184        2.0000           -0.3858616             -10.4998
       185        2.0000           -0.3711819             -10.1004 (HOMO)
       186                         -0.3322282              -9.0404 (LUMO)
       187                         -0.3215644              -8.7502
       188                         -0.3215552              -8.7500
       189                         -0.3149805              -8.5711
       190                         -0.2901237              -7.8947
       191                         -0.2807657              -7.6400
       192                         -0.2637027              -7.1757
       193                         -0.2637008              -7.1757
       194                         -0.2636850              -7.1752
       195                         -0.2636815              -7.1751
       196                         -0.2500902              -6.8053
       ...                                ...                  ...
       396                          1.3314004              36.2292
      -------------------------------------------------------------
                  HL-Gap            0.0389537 Eh            1.0600 eV

Wiberg/Mayer (AO) data.
largest (>0.10) Wiberg bond orders for each atom

     #   Z sym  total        # sym  WBO       # sym  WBO       # sym  WBO
 ---------------------------------------------------------------------------
     1  30 Zn   1.999 --     7 N    0.459    39 N    0.458    19 N    0.458
                            26 N    0.458
     2   6 C    3.926 --     3 C    1.357    38 C    1.357    40 H    0.971
     3   6 C    3.923 --     2 C    1.357     7 N    1.233     4 C    1.172
     4   6 C    3.960 --     5 C    1.657     3 C    1.172    41 H    0.976
     5   6 C    3.963 --     4 C    1.657     6 C    1.173    42 H    0.973
     6   6 C    3.918 --     8 C    1.315     7 N    1.244     5 C    1.173
     7   7 N    3.292 --     6 C    1.244     3 C    1.233     1 Zn   0.459
     8   6 C    3.933 --    16 C    1.323     6 C    1.315     9 C    1.027
     9   6 C    3.989 --    10 C    1.394    15 C    1.385     8 C    1.027
    10   6 C    3.988 --    11 C    1.451     9 C    1.394    43 H    0.973
                            14 C    0.105
    11   6 C    3.988 --    10 C    1.451    12 C    1.373    44 H    0.970
                            15 C    0.103
    12   6 C    3.901 --    11 C    1.373    14 C    1.365    13 O    1.038
    13   8 O    2.041 --    12 C    1.038    45 H    0.866
    14   6 C    3.990 --    15 C    1.465    12 C    1.365    46 H    0.971
                            10 C    0.105
    15   6 C    3.988 --    14 C    1.465     9 C    1.385    47 H    0.973
                            11 C    0.103
    16   6 C    3.913 --     8 C    1.323    19 N    1.225    17 C    1.181
    17   6 C    3.960 --    18 C    1.643    16 C    1.181    48 H    0.973
    18   6 C    3.962 --    17 C    1.643    20 C    1.189    49 H    0.963
    19   7 N    3.297 --    20 C    1.260    16 C    1.225     1 Zn   0.458
    20   6 C    3.906 --    19 N    1.260    21 C    1.257    18 C    1.189
    21   6 C    3.938 --    22 C    1.257    20 C    1.257   117 C    1.182
    22   6 C    3.906 --    26 N    1.260    21 C    1.257    23 C    1.189
    23   6 C    3.962 --    24 C    1.643    22 C    1.189    50 H    0.963
    24   6 C    3.960 --    23 C    1.643    25 C    1.181    51 H    0.973
    25   6 C    3.913 --    27 C    1.322    26 N    1.226    24 C    1.181
    26   7 N    3.297 --    22 C    1.260    25 C    1.226     1 Zn   0.458
    27   6 C    3.933 --    25 C    1.322    35 C    1.315    28 C    1.028
    28   6 C    3.989 --    34 C    1.395    29 C    1.384    27 C    1.028
    29   6 C    3.988 --    30 C    1.466    28 C    1.384    52 H    0.973
                            33 C    0.103
    30   6 C    3.990 --    29 C    1.466    31 C    1.365    53 H    0.971
                            34 C    0.105
    31   6 C    3.901 --    33 C    1.373    30 C    1.365    32 O    1.038
    32   8 O    2.041 --    31 C    1.038    54 H    0.866
    33   6 C    3.988 --    34 C    1.451    31 C    1.373    55 H    0.970
                            29 C    0.103
    34   6 C    3.987 --    33 C    1.451    28 C    1.395    56 H    0.973
                            30 C    0.105
    35   6 C    3.918 --    27 C    1.315    39 N    1.244    36 C    1.173
    36   6 C    3.963 --    37 C    1.657    35 C    1.173    57 H    0.973
    37   6 C    3.960 --    36 C    1.657    38 C    1.172    58 H    0.976
    38   6 C    3.923 --     2 C    1.357    39 N    1.234    37 C    1.172
    39   7 N    3.292 --    35 C    1.244    38 C    1.234     1 Zn   0.458
    40   1 H    1.002 --     2 C    0.971
    41   1 H    0.998 --     4 C    0.976
    42   1 H    1.005 --     5 C    0.973
    43   1 H    1.005 --    10 C    0.973
    44   1 H    0.999 --    11 C    0.970
    45   1 H    0.888 --    13 O    0.866
    46   1 H    0.999 --    14 C    0.971
    47   1 H    1.005 --    15 C    0.973
    48   1 H    1.005 --    17 C    0.973
    49   1 H    1.009 --    18 C    0.963
    50   1 H    1.009 --    23 C    0.963
    51   1 H    1.005 --    24 C    0.973
    52   1 H    1.005 --    29 C    0.973
    53   1 H    0.999 --    30 C    0.971
    54   1 H    0.888 --    32 O    0.866
    55   1 H    0.999 --    33 C    0.970
    56   1 H    1.005 --    34 C    0.973
    57   1 H    1.005 --    36 C    0.973
    58   1 H    0.998 --    37 C    0.976
    59  30 Zn   1.999 --    65 N    0.459    97 N    0.458    77 N    0.458
                            84 N    0.458
    60   6 C    3.926 --    61 C    1.357    96 C    1.357    98 H    0.971
    61   6 C    3.923 --    60 C    1.357    65 N    1.233    62 C    1.172
    62   6 C    3.960 --    63 C    1.657    61 C    1.172    99 H    0.976
    63   6 C    3.963 --    62 C    1.657    64 C    1.173   100 H    0.973
    64   6 C    3.918 --    66 C    1.315    65 N    1.244    63 C    1.173
    65   7 N    3.292 --    64 C    1.244    61 C    1.233    59 Zn   0.459
    66   6 C    3.933 --    74 C    1.323    64 C    1.315    67 C    1.027
    67   6 C    3.989 --    68 C    1.394    73 C    1.385    66 C    1.027
    68   6 C    3.988 --    69 C    1.451    67 C    1.394   101 H    0.973
                            72 C    0.105
    69   6 C    3.988 --    68 C    1.451    70 C    1.373   102 H    0.970
                            73 C    0.103
    70   6 C    3.901 --    69 C    1.373    72 C    1.365    71 O    1.038
    71   8 O    2.041 --    70 C    1.038   103 H    0.866
    72   6 C    3.990 --    73 C    1.465    70 C    1.365   104 H    0.971
                            68 C    0.105
    73   6 C    3.988 --    72 C    1.465    67 C    1.385   105 H    0.973
                            69 C    0.103
    74   6 C    3.913 --    66 C    1.323    77 N    1.225    75 C    1.181
    75   6 C    3.960 --    76 C    1.643    74 C    1.181   106 H    0.973
    76   6 C    3.962 --    75 C    1.643    78 C    1.189   107 H    0.963
    77   7 N    3.297 --    78 C    1.260    74 C    1.225    59 Zn   0.458
    78   6 C    3.906 --    77 N    1.260    79 C    1.257    76 C    1.189
    79   6 C    3.938 --    80 C    1.257    78 C    1.257   118 C    1.182
    80   6 C    3.906 --    84 N    1.260    79 C    1.257    81 C    1.189
    81   6 C    3.962 --    82 C    1.643    80 C    1.189   108 H    0.963
    82   6 C    3.960 --    81 C    1.643    83 C    1.181   109 H    0.973
    83   6 C    3.913 --    85 C    1.322    84 N    1.226    82 C    1.181
    84   7 N    3.297 --    80 C    1.260    83 C    1.226    59 Zn   0.458
    85   6 C    3.933 --    83 C    1.322    93 C    1.315    86 C    1.028
    86   6 C    3.989 --    92 C    1.395    87 C    1.384    85 C    1.028
    87   6 C    3.988 --    88 C    1.466    86 C    1.384   110 H    0.973
                            91 C    0.103
    88   6 C    3.990 --    87 C    1.466    89 C    1.365   111 H    0.971
                            92 C    0.105
    89   6 C    3.901 --    91 C    1.373    88 C    1.365    90 O    1.038
    90   8 O    2.041 --    89 C    1.038   112 H    0.866
    91   6 C    3.988 --    92 C    1.451    89 C    1.373   113 H    0.970
                            87 C    0.103
    92   6 C    3.987 --    91 C    1.451    86 C    1.395   114 H    0.973
                            88 C    0.105
    93   6 C    3.918 --    85 C    1.315    97 N    1.244    94 C    1.173
    94   6 C    3.963 --    95 C    1.657    93 C    1.173   115 H    0.973
    95   6 C    3.960 --    94 C    1.657    96 C    1.172   116 H    0.976
    96   6 C    3.923 --    60 C    1.357    97 N    1.234    95 C    1.172
    97   7 N    3.292 --    93 C    1.244    96 C    1.234    59 Zn   0.458
    98   1 H    1.002 --    60 C    0.971
    99   1 H    0.998 --    62 C    0.976
   100   1 H    1.005 --    63 C    0.973
   101   1 H    1.005 --    68 C    0.973
   102   1 H    0.999 --    69 C    0.970
   103   1 H    0.888 --    71 O    0.866
   104   1 H    0.999 --    72 C    0.971
   105   1 H    1.005 --    73 C    0.973
   106   1 H    1.005 --    75 C    0.973
   107   1 H    1.009 --    76 C    0.963
   108   1 H    1.009 --    81 C    0.963
   109   1 H    1.005 --    82 C    0.973
   110   1 H    1.005 --    87 C    0.973
   111   1 H    0.999 --    88 C    0.971
   112   1 H    0.888 --    90 O    0.866
   113   1 H    0.999 --    91 C    0.970
   114   1 H    1.005 --    92 C    0.973
   115   1 H    1.005 --    94 C    0.973
   116   1 H    0.998 --    95 C    0.976
   117   6 C    3.934 --   118 C    2.576    21 C    1.182
   118   6 C    3.934 --   117 C    2.576    79 C    1.182
 ---------------------------------------------------------------------------

           -------------------------------------------------
          | TOTAL ENERGY             -205.890023573069 Eh   |
          | GRADIENT NORM               0.000444018011 Eh/α |
          | HOMO-LUMO GAP               1.059984390744 eV   |
           -------------------------------------------------

 * finished run on 2022/07/30 at 11:29:25.540
