   * xtb version 6.5.1 (b24c23e) compiled by 'conda@728c89f4b128' on 2022-07-12
          program call               : xtb Ni_PhNO2_C2_3.xyz --gfn 1 --opt -T 48

   ID    Z sym.   atoms
    1   28 Ni     1, 61, 125
    2    6 C      2-6, 8-12, 16-20, 22-27, 29-33, 37-42, 62-66, 68-72, 76-80,
                  82-87, 89-93, 97-102, 121-124, 126-130, 132-136, 140-144,
                  146-151, 153-157, 161-166
    3    7 N      7, 13, 21, 28, 34, 43, 67, 73, 81, 88, 94, 103, 131, 137,
                  145, 152, 158, 167
    4    8 O      14, 15, 35, 36, 74, 75, 95, 96, 138, 139, 159, 160
    5    1 H      44-60, 104-120, 168-183
########################################################################
[WARNING] Please study the warnings concerning your input carefully
-1- prog_main_parseArguments: Unknown option '-T' provided
########################################################################

          :  Hamiltonian                  GFN1-xTB          :
 * total energy  :  -363.1756325 Eh     change       -0.2140666E-08 Eh
 * total energy  :  -363.5351734 Eh     change       -0.3595409E+00 Eh
 * total energy  :  -363.7241132 Eh     change       -0.1889398E+00 Eh
 * total energy  :  -363.7856844 Eh     change       -0.6157126E-01 Eh
 * total energy  :  -363.8118381 Eh     change       -0.2615367E-01 Eh
 * total energy  :  -363.8282670 Eh     change       -0.1642890E-01 Eh
 * total energy  :  -363.8388504 Eh     change       -0.1058338E-01 Eh
 * total energy  :  -363.8457890 Eh     change       -0.6938592E-02 Eh
 * total energy  :  -363.8520109 Eh     change       -0.6221977E-02 Eh
 * total energy  :  -363.8558308 Eh     change       -0.3819829E-02 Eh
 * total energy  :  -363.8685310 Eh     change       -0.1248861E-04 Eh
 * total energy  :  -363.8685377 Eh     change       -0.6631901E-05 Eh
 * total energy  :  -363.8685455 Eh     change       -0.7873004E-05 Eh
 * total energy  :  -363.8685522 Eh     change       -0.6628262E-05 Eh
 * total energy  :  -363.8685560 Eh     change       -0.3832344E-05 Eh
 * total energy  :  -363.8685610 Eh     change       -0.5023405E-05 Eh
 * total energy  :  -363.8685667 Eh     change       -0.5716748E-05 Eh
 * total energy  :  -363.8685726 Eh     change       -0.5845511E-05 Eh
 * total energy  :  -363.8685763 Eh     change       -0.3695128E-05 Eh
   *** GEOMETRY OPTIMIZATION CONVERGED AFTER 53 ITERATIONS ***

 final structure:
================
183
 xtb: 6.5.1 (b24c23e)
Ni          34.90405339644614       -0.01968982931959       -0.07634021463189
C           31.51248838990480       -0.02185637210115       -0.18745119163896
C           32.16250258130796       -1.23757125511499       -0.22367249221272
C           31.48346627630051       -2.49661248525944       -0.26937603700437
C           32.43844079368469       -3.44830212865915       -0.38386632215977
C           33.70004512118594       -2.76707429407045       -0.42469999677929
N           33.52240704692871       -1.41402851146664       -0.28497377914915
C           34.91884950908494       -3.40154597601966       -0.62986678088519
C           34.92598939560576       -4.86219852263478       -0.87310582767888
C           35.60309147967283       -5.72048004577852       -0.00168947400062
C           35.60934868742918       -7.08561423706943       -0.22393307318095
C           34.93716212910025       -7.59616349320592       -1.33061527760876
N           34.94210624028022       -9.02935668993025       -1.56995683940125
O           34.35080718225961       -9.43413810975226       -2.53764460460524
O           35.53755285868134       -9.72290102687212       -0.78657770158972
C           34.25999277574078       -6.75856776281292       -2.21208283978367
C           34.25533271053734       -5.39555580621435       -1.97792377026314
C           36.13035595831555       -2.72161601981229       -0.62905601067217
C           37.39057280857284       -3.33938634607143       -0.91245224077687
C           38.33843376108525       -2.38584674512636       -0.74887761204659
N           36.30256789575056       -1.38901591929410       -0.33396482977901
C           37.65599378960702       -1.18873636139453       -0.37231152118961
C           38.31571598027593       -0.00606419253996       -0.03251667908314
C           37.63832596039845        1.16743964266254        0.30419108742108
C           38.30140981274148        2.36254466669528        0.71969792910603
C           37.34059262793672        3.30184236159318        0.88993212184811
C           36.09279650125851        2.67986749673776        0.56345564662954
N           36.28421783880631        1.35573159779340        0.24195018303071
C           34.87706346674543        3.35127223603878        0.53791188203873
C           34.86080095627495        4.80445537154753        0.82197994310150
C           34.13846989115109        5.29902995995238        1.91217588280578
C           34.11971850977479        6.65445431321297        2.18613993994279
C           34.82526135613443        7.52365729673272        1.35914004126094
N           34.80767956117856        8.94879167397171        1.64152885246323
O           34.16583594385108        9.32066777183295        2.59002405516724
O           35.43527889422895        9.66937827927051        0.90924384780182
C           35.54720264604629        7.05210697310195        0.26658834132725
C           35.56372199623848        5.69418263579524        0.00428339532753
C           33.67352555137002        2.71786972815602        0.25358405228322
C           32.41569817640195        3.39895226403293        0.14742345361594
C           31.47385028027835        2.45081691611466       -0.06403876804695
C           32.15710027061022        1.19350187275736       -0.09341640131234
N           33.50916606515269        1.36906214267124        0.06723790407184
H           30.42959994415822       -0.02214007645584       -0.22708969999962
H           30.41320270600595       -2.61576676064024       -0.21640965874808
H           32.31318740119945       -4.51764940841728       -0.43293131626308
H           36.11292644251238       -5.31113890823811        0.86262917611574
H           36.12578970432569       -7.75972704733183        0.44880309266692
H           33.74799231081970       -7.18098351092358       -3.06831306897061
H           33.74175181056513       -4.73134013619342       -2.66315475147113
H           37.52270063639788       -4.36739255325760       -1.20769227920721
H           39.40593320060174       -2.47083269413774       -0.87193471669649
H           39.36556211540145        2.45461134881760        0.86515559920415
H           37.45655028066156        4.32340528861858        1.21297248330594
H           33.60248977692886        4.61023040369244        2.55465734022399
H           33.56801525183202        7.04680162635536        3.03194656321272
H           36.08380717047608        7.75040338222935       -0.36440342900862
H           36.11178922968055        5.31546599499901       -0.85054428669772
H           32.28473701883107        4.46633004111063        0.21956291829784
H           30.40967966708638        2.57087642870249       -0.18890180702728
Ni          56.61143648745010        0.06893299659644       -0.02282645469883
C           59.99645110319826        0.10914061232425       -0.14167985818235
C           59.34869764411059        1.23850749023376        0.31493621132001
C           60.02304965741363        2.41090303278265        0.78349015467002
C           59.06783103111026        3.34006951985923        1.02049867165777
C           57.81100993120411        2.73988467772111        0.67757952787581
N           57.99023388604751        1.43428247047537        0.29667308359827
C           56.59894601116546        3.41934058825250        0.65223827999004
C           56.58590223473966        4.86704614326523        0.95849833729858
C           55.82542704698630        5.35190536786470        2.02722197556691
C           55.81418343529473        6.70191721507564        2.32675489105935
C           56.56525918943424        7.57635397630515        1.54655716085134
N           56.55763247248588        8.99565594795242        1.85743769296058
O           57.22477444513607        9.72095758420218        1.16567598878336
O           55.88564265653398        9.35813872948608        2.78842123855732
C           57.32400345016600        7.11521418050639        0.47472776192583
C           57.33285832786531        5.76244593072959        0.18693074480167
C           55.39637314568478        2.79373286190153        0.34403339122466
C           54.14769867258630        3.47984047663942        0.20638009924087
C           53.19949537891289        2.53017691556370        0.01920589899013
N           55.21891154435244        1.43880760450647        0.18866639790811
C           53.86835591209262        1.26875723325166        0.04363551924548
C           53.20384820548999        0.03892489537382        0.04227516021818
C           53.88930504511026       -1.17934560723600        0.02828114527984
C           53.24451348891253       -2.45159633075234        0.09629523763807
C           54.20355209466972       -3.38770557126697       -0.10393882894569
C           55.43348467909696       -2.68210110630015       -0.30041026379110
N           55.23685522542225       -1.32770706120572       -0.16071139627373
C           56.63204902743925       -3.28929793115367       -0.65670299459794
C           56.63638427273480       -4.74236846028515       -0.93624709427894
C           57.44728269495388       -5.60469372324613       -0.19196123016327
C           57.45620496902973       -6.96256561458483       -0.45451528667088
C           56.65093429877228       -7.46223759240898       -1.47388162615031
N           56.66075446366345       -8.88708496290149       -1.75796449620061
O           57.38621875621963       -9.58228371246152       -1.09454889753343
O           55.94336506002938       -9.28398341572631       -2.63974658770188
C           55.83687395379985       -6.62103058210674       -2.22692383183377
C           55.83121310586250       -5.26558486284560       -1.95284078513787
C           57.82464012157550       -2.58404555853569       -0.76776446577247
C           59.06868421819912       -3.16004303099924       -1.18950438962084
C           60.01375257656710       -2.20239209800672       -1.04208338516609
C           59.34549595146521       -1.03907110365859       -0.54311177321436
N           57.99736263804288       -1.26806906926065       -0.42203166884388
H           61.07918721203102        0.12308906616892       -0.18244170346653
H           61.09081836472424        2.49284800605564        0.90860699315496
H           59.19061299800826        4.34357247625126        1.39414611968018
H           55.25478240081646        4.65887256701189        2.63442022553884
H           55.23437496081623        7.08597117227405        3.15744725390384
H           57.89533031123368        7.81753772958425       -0.12030917802194
H           57.90947171069895        5.39284035427948       -0.65294183672844
H           54.02316316636207        4.54983273570034        0.23944677692912
H           52.13968377935955        2.66000416859792       -0.12492949541414
H           52.19260439799753       -2.59711040388444        0.27910883932628
H           54.09767120677051       -4.46018292628445       -0.11233018434553
H           58.06061962140198       -5.20503883020416        0.60715070146383
H           58.07700517714010       -7.63946317048054        0.12006569946307
H           55.22221840998138       -7.03452893409758       -3.01744814830858
H           55.21182418020762       -4.59816172980300       -2.54064928167043
H           59.19010660818837       -4.16754010162893       -1.55274893579317
H           61.07118238093540       -2.26006288414265       -1.24459158862371
C           39.72546038236646        0.00104863983186       -0.02133892592452
C           40.94114362255053        0.00366618504696       -0.01515697591484
C           50.57809504079282        0.02050206598683        0.06091667387324
C           51.79467831012416        0.02707384317334        0.05556947748511
Ni          45.75847103594577        0.00921298036013        0.01396360453723
C           42.35016997479761        0.00635368772860       -0.00660137900597
C           43.02365587947748       -1.19288572415189        0.23848090294197
C           42.36526757707909       -2.42305206355040        0.54377678487625
C           43.32213911561091       -3.38258746923427        0.56585170509635
C           44.56236631664501       -2.73534589805762        0.26256311263992
N           44.37377178728833       -1.38060584539781        0.11768716897415
C           45.76419897401584       -3.40138887105152        0.05403925214640
C           45.77014485347586       -4.88068938105067        0.08096006856882
C           46.57533251249838       -5.56448189295836        0.99721236253731
C           46.57850048114470       -6.94689282802181        1.03532459491273
C           45.77404046821657       -7.65208581426814        0.14503889668310
N           45.77294588424683       -9.10505799328856        0.18152693193645
O           45.05596998365040       -9.68059156686068       -0.59541657397705
O           46.48885163252470       -9.64186034104862        0.98692540356327
C           44.96958903441596       -6.99100517549622       -0.77846628310779
C           44.96917498233518       -5.60822145426153       -0.80462835278635
C           46.96184155211643       -2.73406433498415       -0.17530016787918
C           48.20048852013034       -3.38253348382600       -0.48041835917411
C           49.15387676460492       -2.41909854168737       -0.48601948179087
N           47.14771018654488       -1.37647544977975       -0.05645427667177
C           48.49685318439011       -1.18682906187817       -0.18905982681694
C           49.16943359266770        0.01437383171175        0.05576012272850
C           48.48679552168495        1.21335760420925        0.28394630318849
C           49.13240874323490        2.44979837293208        0.58828091781509
C           48.17807669893670        3.41129460925129        0.54385475959053
C           46.94985499370868        2.75670091446221        0.21129497178189
N           47.14123558690869        1.39835467633662        0.11376525390113
C           45.75816996932509        3.41962966171133       -0.05909832094068
C           45.77164950805803        4.89769845140423       -0.12310762433017
C           46.60068393111570        5.54954187131728       -1.04159653481833
C           46.61528750808139        6.93004467551855       -1.11925623244201
C           45.79828356206772        7.66598930239252       -0.26604252642626
N           45.80918709572526        9.11724018511851       -0.34438548473407
O           46.54441799504718        9.62517696257365       -1.15117841385182
O           45.08247487415655        9.72035785911764        0.40192256772121
C           44.97077522358514        7.03720106025032        0.65965420794439
C           44.95898726383378        5.65562834574352        0.72526869224110
C           44.56060641543606        2.74993152617393       -0.27821675310626
C           43.32336612131325        3.39126091307077       -0.60554773815889
C           42.36675876976467        2.43152622397539       -0.57780397329166
C           43.02328232538445        1.20624714787522       -0.24970208806019
N           44.37150167101495        1.39693643306451       -0.11644669639499
H           41.30636860960843       -2.52531688937342        0.71771365678256
H           43.20742100104202       -4.43401184669868        0.77277137412283
H           47.18710450419059       -5.00326101688313        1.69388420254785
H           47.19275623573787       -7.48566404912167        1.74676979098433
H           44.35665235179584       -7.56377935925353       -1.46399954667393
H           44.35657012173908       -5.08153129859349       -1.52701326288890
H           48.31587060585413       -4.43689891117278       -0.67139597975880
H           50.20980344120950       -2.52107429249941       -0.67495232299138
H           50.18191330382624        2.55600282662375        0.80771313285480
H           48.28595983511650        4.46794404418773        0.72653551816393
H           47.22271834431955        4.96398617474412       -1.70854273323351
H           47.24811990176975        7.44376530843702       -1.83293513437464
H           44.34902633195878        7.63379184229821        1.31634293472131
H           44.32851076728950        5.15450781454284        1.45045316223126
H           43.21019451543361        4.43935322783386       -0.82952308255192
H           41.30951756170250        2.52996374515992       -0.76386840379527

          :  Hamiltonian                  GFN1-xTB          :
         :: total energy            -363.868576267864 Eh    ::
         :: gradient norm              0.000752016084 Eh/a0 ::
         :: HOMO-LUMO gap              1.065336607655 eV    ::
         :: SCC energy              -368.741223189382 Eh    ::
         :: repulsion energy           5.045698127878 Eh    ::

    * Orbital Energies and Occupations

         #    Occupation            Energy/Eh            Energy/eV
      -------------------------------------------------------------
         1        2.0000           -0.9261942             -25.2030
       ...           ...                  ...                  ...
       309        2.0000           -0.4257031             -11.5840
       310        2.0000           -0.4254981             -11.5784
       311        2.0000           -0.4253483             -11.5743
       312        2.0000           -0.4252975             -11.5729
       313        2.0000           -0.4252295             -11.5711
       314        2.0000           -0.4245588             -11.5528
       315        2.0000           -0.4243735             -11.5478
       316        2.0000           -0.4235246             -11.5247
       317        2.0000           -0.4233864             -11.5209
       318        2.0000           -0.4232511             -11.5172
       319        2.0000           -0.4231222             -11.5137
       320        2.0000           -0.4198988             -11.4260
       321        2.0000           -0.4108140             -11.1788 (HOMO)
       322                         -0.3716636             -10.1135 (LUMO)
       323                         -0.3645335              -9.9195
       324                         -0.3628300              -9.8731
       325                         -0.3624177              -9.8619
       326                         -0.3605725              -9.8117
       327                         -0.3560103              -9.6875
       328                         -0.3558856              -9.6841
       329                         -0.3541599              -9.6372
       330                         -0.3527937              -9.6000
       331                         -0.3526523              -9.5962
       332                         -0.3523726              -9.5885
       ...                                ...                  ...
       647                          1.3171528              35.8416
      -------------------------------------------------------------
                  HL-Gap            0.0391504 Eh            1.0653 eV

Wiberg/Mayer (AO) data.
largest (>0.10) Wiberg bond orders for each atom

     #   Z sym  total        # sym  WBO       # sym  WBO       # sym  WBO
 ---------------------------------------------------------------------------
     1  28 Ni   3.008 --    43 N    0.663     7 N    0.663    21 N    0.659
                            28 N    0.659
     2   6 C    3.936 --    42 C    1.365     3 C    1.364    44 H    0.969
     3   6 C    3.920 --     2 C    1.364     7 N    1.212     4 C    1.173
     4   6 C    3.960 --     5 C    1.652     3 C    1.173    45 H    0.974
     5   6 C    3.963 --     4 C    1.652     6 C    1.174    46 H    0.972
     6   6 C    3.920 --     8 C    1.321     7 N    1.223     5 C    1.174
     7   7 N    3.402 --     6 C    1.223     3 C    1.212     1 Ni   0.663
     8   6 C    3.937 --    18 C    1.324     6 C    1.321     9 C    1.032
     9   6 C    3.985 --    10 C    1.384    17 C    1.384     8 C    1.032
    10   6 C    3.987 --    11 C    1.463     9 C    1.384    47 H    0.971
                            16 C    0.102
    11   6 C    3.987 --    10 C    1.463    12 C    1.388    48 H    0.964
                            17 C    0.102
    12   6 C    3.942 --    11 C    1.388    16 C    1.388    13 N    0.920
    13   7 N    3.866 --    15 O    1.456    14 O    1.455    12 C    0.920
    14   8 O    1.830 --    13 N    1.455    15 O    0.252
    15   8 O    1.831 --    13 N    1.456    14 O    0.252
    16   6 C    3.987 --    17 C    1.463    12 C    1.388    49 H    0.964
                            10 C    0.102
    17   6 C    3.987 --    16 C    1.463     9 C    1.384    50 H    0.971
                            11 C    0.102
    18   6 C    3.915 --     8 C    1.324    21 N    1.210    19 C    1.182
    19   6 C    3.959 --    20 C    1.637    18 C    1.182    51 H    0.973
    20   6 C    3.962 --    19 C    1.637    22 C    1.189    52 H    0.971
    21   7 N    3.405 --    22 C    1.235    18 C    1.210     1 Ni   0.659
    22   6 C    3.908 --    23 C    1.271    21 N    1.235    20 C    1.189
    23   6 C    3.945 --    22 C    1.271    24 C    1.271   121 C    1.166
    24   6 C    3.908 --    23 C    1.271    28 N    1.236    25 C    1.189
    25   6 C    3.961 --    26 C    1.637    24 C    1.189    53 H    0.972
    26   6 C    3.959 --    25 C    1.637    27 C    1.182    54 H    0.972
    27   6 C    3.915 --    29 C    1.325    28 N    1.210    26 C    1.182
    28   7 N    3.405 --    24 C    1.236    27 C    1.210     1 Ni   0.659
    29   6 C    3.937 --    27 C    1.325    39 C    1.320    30 C    1.032
    30   6 C    3.985 --    38 C    1.385    31 C    1.384    29 C    1.032
    31   6 C    3.987 --    32 C    1.463    30 C    1.384    55 H    0.971
                            37 C    0.102
    32   6 C    3.987 --    31 C    1.463    33 C    1.388    56 H    0.964
                            38 C    0.102
    33   6 C    3.942 --    37 C    1.388    32 C    1.388    34 N    0.920
    34   7 N    3.866 --    36 O    1.456    35 O    1.455    33 C    0.920
    35   8 O    1.830 --    34 N    1.455    36 O    0.252
    36   8 O    1.831 --    34 N    1.456    35 O    0.252
    37   6 C    3.987 --    38 C    1.463    33 C    1.388    57 H    0.964
                            31 C    0.102
    38   6 C    3.987 --    37 C    1.463    30 C    1.385    58 H    0.971
                            32 C    0.102
    39   6 C    3.920 --    29 C    1.320    43 N    1.224    40 C    1.174
    40   6 C    3.963 --    41 C    1.652    39 C    1.174    59 H    0.972
    41   6 C    3.960 --    40 C    1.652    42 C    1.173    60 H    0.974
    42   6 C    3.920 --     2 C    1.365    43 N    1.211    41 C    1.173
    43   7 N    3.402 --    39 C    1.224    42 C    1.211     1 Ni   0.663
    44   1 H    0.999 --     2 C    0.969
    45   1 H    0.996 --     4 C    0.974
    46   1 H    1.003 --     5 C    0.972
    47   1 H    1.003 --    10 C    0.971
    48   1 H    1.006 --    11 C    0.964
    49   1 H    1.006 --    16 C    0.964
    50   1 H    1.003 --    17 C    0.971
    51   1 H    1.003 --    19 C    0.973
    52   1 H    1.003 --    20 C    0.971
    53   1 H    1.003 --    25 C    0.972
    54   1 H    1.003 --    26 C    0.972
    55   1 H    1.003 --    31 C    0.971
    56   1 H    1.006 --    32 C    0.964
    57   1 H    1.006 --    37 C    0.964
    58   1 H    1.003 --    38 C    0.971
    59   1 H    1.003 --    40 C    0.972
    60   1 H    0.996 --    41 C    0.974
    61  28 Ni   3.021 --    67 N    0.664   103 N    0.664    88 N    0.661
                            81 N    0.661
    62   6 C    3.935 --   102 C    1.365    63 C    1.364   104 H    0.969
    63   6 C    3.920 --    62 C    1.364    67 N    1.212    64 C    1.173
    64   6 C    3.960 --    65 C    1.651    63 C    1.173   105 H    0.974
    65   6 C    3.963 --    64 C    1.651    66 C    1.174   106 H    0.972
    66   6 C    3.920 --    68 C    1.321    67 N    1.222    65 C    1.174
    67   7 N    3.401 --    66 C    1.222    63 C    1.212    61 Ni   0.664
    68   6 C    3.936 --    78 C    1.321    66 C    1.321    69 C    1.035
    69   6 C    3.985 --    77 C    1.383    70 C    1.383    68 C    1.035
    70   6 C    3.987 --    71 C    1.464    69 C    1.383   107 H    0.971
                            76 C    0.102
    71   6 C    3.987 --    70 C    1.464    72 C    1.387   108 H    0.964
                            77 C    0.102
    72   6 C    3.941 --    76 C    1.388    71 C    1.387    73 N    0.920
    73   7 N    3.866 --    74 O    1.455    75 O    1.455    72 C    0.920
    74   8 O    1.830 --    73 N    1.455    75 O    0.252
    75   8 O    1.830 --    73 N    1.455    74 O    0.252
    76   6 C    3.987 --    77 C    1.463    72 C    1.388   109 H    0.964
                            70 C    0.102
    77   6 C    3.986 --    76 C    1.463    69 C    1.383   110 H    0.971
                            71 C    0.102
    78   6 C    3.915 --    68 C    1.321    81 N    1.210    79 C    1.184
    79   6 C    3.958 --    80 C    1.635    78 C    1.184   111 H    0.973
    80   6 C    3.961 --    79 C    1.635    82 C    1.191   112 H    0.969
    81   7 N    3.404 --    82 C    1.234    78 C    1.210    61 Ni   0.661
    82   6 C    3.906 --    83 C    1.268    81 N    1.234    80 C    1.191
    83   6 C    3.945 --    82 C    1.268    84 C    1.267   124 C    1.173
    84   6 C    3.907 --    83 C    1.267    88 N    1.235    85 C    1.192
    85   6 C    3.961 --    86 C    1.634    84 C    1.192   113 H    0.969
    86   6 C    3.958 --    85 C    1.634    87 C    1.184   114 H    0.973
    87   6 C    3.915 --    89 C    1.322    88 N    1.209    86 C    1.184
    88   7 N    3.404 --    84 C    1.235    87 C    1.209    61 Ni   0.661
    89   6 C    3.936 --    87 C    1.322    99 C    1.320    90 C    1.035
    90   6 C    3.985 --    91 C    1.383    98 C    1.383    89 C    1.035
    91   6 C    3.986 --    92 C    1.463    90 C    1.383   115 H    0.971
                            97 C    0.102
    92   6 C    3.987 --    91 C    1.463    93 C    1.388   116 H    0.964
                            98 C    0.102
    93   6 C    3.941 --    92 C    1.388    97 C    1.388    94 N    0.920
    94   7 N    3.866 --    95 O    1.455    96 O    1.455    93 C    0.920
    95   8 O    1.830 --    94 N    1.455    96 O    0.252
    96   8 O    1.830 --    94 N    1.455    95 O    0.252
    97   6 C    3.987 --    98 C    1.464    93 C    1.388   117 H    0.964
                            91 C    0.102
    98   6 C    3.987 --    97 C    1.464    90 C    1.383   118 H    0.971
                            92 C    0.102
    99   6 C    3.920 --    89 C    1.320   103 N    1.223   100 C    1.174
   100   6 C    3.963 --   101 C    1.651    99 C    1.174   119 H    0.972
   101   6 C    3.960 --   100 C    1.651   102 C    1.173   120 H    0.974
   102   6 C    3.920 --    62 C    1.365   103 N    1.211   101 C    1.173
   103   7 N    3.401 --    99 C    1.223   102 C    1.211    61 Ni   0.664
   104   1 H    0.999 --    62 C    0.969
   105   1 H    0.996 --    64 C    0.974
   106   1 H    1.003 --    65 C    0.972
   107   1 H    1.003 --    70 C    0.971
   108   1 H    1.006 --    71 C    0.964
   109   1 H    1.006 --    76 C    0.964
   110   1 H    1.003 --    77 C    0.971
   111   1 H    1.003 --    79 C    0.973
   112   1 H    1.005 --    80 C    0.969
   113   1 H    1.005 --    85 C    0.969
   114   1 H    1.003 --    86 C    0.973
   115   1 H    1.003 --    91 C    0.971
   116   1 H    1.006 --    92 C    0.964
   117   1 H    1.006 --    97 C    0.964
   118   1 H    1.004 --    98 C    0.971
   119   1 H    1.003 --   100 C    0.972
   120   1 H    0.996 --   101 C    0.974
   121   6 C    3.934 --   122 C    2.589    23 C    1.166
   122   6 C    3.937 --   121 C    2.589   126 C    1.168
   123   6 C    3.938 --   124 C    2.585   147 C    1.174
   124   6 C    3.935 --   123 C    2.585    83 C    1.173
   125  28 Ni   3.013 --   152 N    0.661   145 N    0.661   131 N    0.660
                           167 N    0.659
   126   6 C    3.936 --   127 C    1.269   166 C    1.268   122 C    1.168
   127   6 C    3.908 --   126 C    1.269   131 N    1.235   128 C    1.191
   128   6 C    3.960 --   129 C    1.635   127 C    1.191   168 H    0.971
   129   6 C    3.960 --   128 C    1.635   130 C    1.184   169 H    0.973
   130   6 C    3.914 --   132 C    1.321   131 N    1.208   129 C    1.184
   131   7 N    3.398 --   127 C    1.235   130 C    1.208   125 Ni   0.660
   132   6 C    3.933 --   130 C    1.321   142 C    1.320   133 C    1.036
   133   6 C    3.985 --   141 C    1.383   134 C    1.383   132 C    1.036
   134   6 C    3.986 --   135 C    1.463   133 C    1.383   170 H    0.971
                           140 C    0.102
   135   6 C    3.987 --   134 C    1.463   136 C    1.388   171 H    0.964
                           141 C    0.102
   136   6 C    3.942 --   140 C    1.388   135 C    1.388   137 N    0.919
   137   7 N    3.866 --   138 O    1.456   139 O    1.455   136 C    0.919
   138   8 O    1.832 --   137 N    1.456   139 O    0.253
   139   8 O    1.831 --   137 N    1.455   138 O    0.253
   140   6 C    3.987 --   141 C    1.463   136 C    1.388   172 H    0.964
                           134 C    0.102
   141   6 C    3.986 --   140 C    1.463   133 C    1.383   173 H    0.971
                           135 C    0.102
   142   6 C    3.914 --   132 C    1.320   145 N    1.208   143 C    1.185
   143   6 C    3.959 --   144 C    1.633   142 C    1.185   174 H    0.973
   144   6 C    3.960 --   143 C    1.633   146 C    1.193   175 H    0.969
   145   7 N    3.398 --   146 C    1.234   142 C    1.208   125 Ni   0.661
   146   6 C    3.907 --   147 C    1.266   145 N    1.234   144 C    1.193
   147   6 C    3.937 --   146 C    1.266   148 C    1.266   123 C    1.174
   148   6 C    3.906 --   147 C    1.266   152 N    1.234   149 C    1.193
   149   6 C    3.960 --   150 C    1.632   148 C    1.193   176 H    0.969
   150   6 C    3.959 --   149 C    1.632   151 C    1.185   177 H    0.973
   151   6 C    3.914 --   153 C    1.319   152 N    1.208   150 C    1.185
   152   7 N    3.399 --   148 C    1.234   151 C    1.208   125 Ni   0.661
   153   6 C    3.933 --   163 C    1.323   151 C    1.319   154 C    1.036
   154   6 C    3.985 --   162 C    1.384   155 C    1.382   153 C    1.036
   155   6 C    3.986 --   156 C    1.464   154 C    1.382   178 H    0.971
                           161 C    0.102
   156   6 C    3.987 --   155 C    1.464   157 C    1.388   179 H    0.964
                           162 C    0.102
   157   6 C    3.942 --   161 C    1.389   156 C    1.388   158 N    0.919
   158   7 N    3.866 --   160 O    1.456   159 O    1.455   157 C    0.919
   159   8 O    1.831 --   158 N    1.455   160 O    0.253
   160   8 O    1.832 --   158 N    1.456   159 O    0.253
   161   6 C    3.987 --   162 C    1.463   157 C    1.389   180 H    0.964
                           155 C    0.102
   162   6 C    3.986 --   161 C    1.463   154 C    1.384   181 H    0.971
                           156 C    0.102
   163   6 C    3.914 --   153 C    1.323   167 N    1.207   164 C    1.184
   164   6 C    3.960 --   165 C    1.635   163 C    1.184   182 H    0.973
   165   6 C    3.960 --   164 C    1.635   166 C    1.191   183 H    0.972
   166   6 C    3.908 --   126 C    1.268   167 N    1.236   165 C    1.191
   167   7 N    3.398 --   166 C    1.236   163 C    1.207   125 Ni   0.659
   168   1 H    1.003 --   128 C    0.971
   169   1 H    1.003 --   129 C    0.973
   170   1 H    1.004 --   134 C    0.971
   171   1 H    1.006 --   135 C    0.964
   172   1 H    1.006 --   140 C    0.964
   173   1 H    1.004 --   141 C    0.971
   174   1 H    1.003 --   143 C    0.973
   175   1 H    1.005 --   144 C    0.969
   176   1 H    1.005 --   149 C    0.969
   177   1 H    1.003 --   150 C    0.973
   178   1 H    1.004 --   155 C    0.971
   179   1 H    1.006 --   156 C    0.964
   180   1 H    1.006 --   161 C    0.964
   181   1 H    1.004 --   162 C    0.971
   182   1 H    1.003 --   164 C    0.973
   183   1 H    1.003 --   165 C    0.972
 ---------------------------------------------------------------------------

           -------------------------------------------------
          | TOTAL ENERGY             -363.868576267864 Eh   |
          | GRADIENT NORM               0.000752016084 Eh/α |
          | HOMO-LUMO GAP               1.065336607655 eV   |
           -------------------------------------------------

 * finished run on 2022/07/30 at 04:47:56.030
