   * xtb version 6.5.1 (b24c23e) compiled by 'conda@728c89f4b128' on 2022-07-12
          program call               : xtb Ph3OH_C2_3.xyz --gfn 1 --opt -T 48

   ID    Z sym.   atoms
    1    6 C      1-5, 7-10, 12, 14, 16-19, 21-26, 28-31, 33, 35, 37-41,
                  64-68, 70-73, 75, 77, 79-82, 84-89, 91-94, 96, 98, 100-104,
                  127-135, 137-140, 142, 144, 146-149, 151-156, 158-161, 163,
                  165, 167-171
    2    7 N      6, 20, 27, 42, 69, 83, 90, 105, 136, 150, 157, 172
    3    8 O      11, 13, 15, 32, 34, 36, 74, 76, 78, 95, 97, 99, 141, 143,
                  145, 162, 164, 166
    4    1 H      43-63, 106-126, 173-192

          :  Hamiltonian                  GFN1-xTB          :
 * total energy  :  -366.9584482 Eh     change       -0.2497984E-08 Eh
 * total energy  :  -367.0923129 Eh     change       -0.1338648E+00 Eh
 * total energy  :  -367.1769991 Eh     change       -0.8468612E-01 Eh
 * total energy  :  -367.2117232 Eh     change       -0.3472415E-01 Eh
 * total energy  :  -367.2504683 Eh     change       -0.3874509E-01 Eh
 * total energy  :  -367.2926139 Eh     change       -0.4214562E-01 Eh
 * total energy  :  -367.3319844 Eh     change       -0.3937047E-01 Eh
 * total energy  :  -367.3628692 Eh     change       -0.3088480E-01 Eh
 * total energy  :  -367.3909455 Eh     change       -0.2807634E-01 Eh
 * total energy  :  -367.4158397 Eh     change       -0.2489413E-01 Eh
 * total energy  :  -367.6239569 Eh     change       -0.2881611E-04 Eh
 * total energy  :  -367.6239831 Eh     change       -0.2622543E-04 Eh
 * total energy  :  -367.6240067 Eh     change       -0.2362875E-04 Eh
 * total energy  :  -367.6240279 Eh     change       -0.2115591E-04 Eh
 * total energy  :  -367.6240471 Eh     change       -0.1921911E-04 Eh
 * total energy  :  -367.6240650 Eh     change       -0.1787979E-04 Eh
 * total energy  :  -367.6240826 Eh     change       -0.1756947E-04 Eh
 * total energy  :  -367.6241007 Eh     change       -0.1811286E-04 Eh
 * total energy  :  -367.6241039 Eh     change       -0.3269895E-05 Eh
   *** GEOMETRY OPTIMIZATION CONVERGED AFTER 122 ITERATIONS ***

 final structure:
================
192
 xtb: 6.5.1 (b24c23e)
C           30.68904330157336       -0.26175634525944        0.10876393040805
C           31.28633338650920       -1.08613048176479       -0.83599526712335
C           30.62221174475487       -1.91310433737859       -1.78513876352338
C           31.57504328579979       -2.55129821525795       -2.52784487154002
C           32.85304219737727       -2.14900312391522       -2.04441535216712
N           32.62724983061131       -1.25665132180205       -1.03440793954539
C           34.11204947650180       -2.56103515358254       -2.49460088458340
C           34.14082282438176       -3.54705016216984       -3.60305248124452
C           34.77324591819193       -3.21440063884017       -4.80459567819625
C           34.79883426039303       -4.13008969813650       -5.84866118326777
O           35.39387763626578       -3.87156036782375       -7.05578474251776
C           34.20160932030404       -5.37935829671025       -5.70090917387075
O           34.21508159541539       -6.30179205506028       -6.71402748856200
C           33.57272060362337       -5.71414219638584       -4.50058878612490
O           32.99805186771837       -6.93412567855301       -4.36511273442132
C           33.54018663869212       -4.79756699917142       -3.45592728091912
C           35.33137904573564       -2.11115725737932       -1.97957221651255
C           36.62368251520213       -2.62757091791555       -2.39249294190461
C           37.55025000158197       -1.95207060057531       -1.68118897934019
N           35.49465208805410       -1.15623719289501       -1.02377094259616
C           36.82408935827955       -1.02791804236047       -0.83257462262820
C           37.46891430571314       -0.10904848440640        0.01828371022692
C           36.84300417696403        0.82167057720607        0.86767426486222
C           37.49363974957469        1.78464343688652        1.68367838850659
C           36.53379242410816        2.47849197210478        2.36675842317987
C           35.26559073114126        1.94714303274483        2.00253165677869
N           35.50390857610206        0.95863112185144        1.08438022846072
C           34.00842620764733        2.34290699572838        2.47265911509186
C           33.98115635892370        3.42517826918420        3.48664172777226
C           34.64255921657200        3.26994815708817        4.70549477324849
C           34.61678386168437        4.29092597759582        5.64832704422494
O           35.25230848632502        4.14807529502119        6.83720470933996
C           33.93299694126601        5.47599559442785        5.37218994607727
O           33.92943477457697        6.46710994876450        6.31841285660962
C           33.27325991339790        5.63133647341790        4.15568820182923
O           32.62723552918404        6.82294145330342        3.95459094548090
C           33.29214772467714        4.61056301965576        3.21384301545760
C           32.79146251526996        1.79298967051587        2.05498295308293
C           31.49727446429219        2.14722690596200        2.61696363105383
C           30.57950511254589        1.41163917025728        1.95752196471537
C           31.31190691868679        0.60473125451180        0.99773686692074
N           32.64152799607202        0.85039798471106        1.09436405830508
H           29.60467442594967       -0.29631928827706        0.14122228209425
H           29.55126688286785       -1.99241344764761       -1.88327856123593
H           31.41230591045498       -3.23737302912301       -3.34306311344363
H           33.35971874817393       -0.78882776774344       -0.51106829314293
H           35.22765417367171       -2.23879986103256       -4.93150060384154
H           35.78203948766929       -2.98679996180542       -7.06447705168878
H           34.68822616521857       -5.91224230067912       -7.46646826491150
H           33.12839116160213       -7.42654028605962       -5.19232882850415
H           33.06640816024240       -5.07652613442312       -2.52361562520036
H           36.77997986243285       -3.41271349214611       -3.11452216959311
H           38.62334991580850       -2.05252670879752       -1.71197219986196
H           38.56101505376621        1.92556152228982        1.73402951749687
H           36.68871588842135        3.29004853389355        3.05867541247534
H           34.77766052479252        0.41015944530791        0.63556617859041
H           35.16055058010333        2.34875122117246        4.93914709163140
H           35.11367558046668        4.95764468482289        7.35597053235644
H           33.41002568972782        7.20962389299944        5.97095160748934
H           32.19235209610785        6.83651858089453        3.09190546089678
H           32.79036298158233        4.74504121178459        2.26280017956710
H           31.33865160715067        2.85068236067145        3.41859688834418
H           29.50903358262559        1.39035484409416        2.08994718916566
C           59.16963180326343       -0.03277803061477        0.22836812538436
C           58.56521678752210        0.84472184955593        1.11922476389877
C           59.22263381598470        1.72905285367177        2.02009967488081
C           58.26457869181042        2.41625946060751        2.71060312774002
C           56.99001130702596        1.96323635723186        2.26458158786514
N           57.22283361004200        1.02633987924602        1.29753290947120
C           55.72854653925046        2.37982821325858        2.70377083975652
C           55.69643215231274        3.39220645047633        3.78839001301173
C           55.07640687532095        4.62541608874631        3.56854086303145
C           55.04715791576361        5.57407425872537        4.58289672871767
O           54.46447099564465        6.80591560750434        4.43859833599063
C           55.62707166685700        5.29833940336281        5.81858589784925
O           55.60808096160503        6.21495037948643        6.83701935824712
C           56.24374426306227        4.06599166430423        6.04036630269306
O           56.80140821155918        3.80549556022092        7.24803591902813
C           56.28118655641130        3.11753283225908        5.02495029295671
C           54.51178056717573        1.90646557673143        2.20481050582829
C           53.21607624222877        2.27840931435943        2.74362134064222
C           52.29438623055859        1.61397494051652        2.01584612779080
N           54.35518168334585        1.02246069472428        1.18188654166821
C           53.02707818802587        0.83518603128197        1.03672528349506
C           52.38942884191658        0.01112890699400        0.08917164721224
C           53.02022010802180       -0.80829000150253       -0.86441016441402
C           52.37375671565189       -1.57455532903127       -1.87043704386256
C           53.33744816553469       -2.20841334083263       -2.60423474041416
C           54.60436585399815       -1.85805830861504       -2.06042821782055
N           54.36076799194365       -1.00336909950400       -1.01769637810615
C           55.86530108645568       -2.27541835111334       -2.50017736914347
C           55.89785267922542       -3.21477881535812       -3.64782186355440
C           55.26911063161300       -4.45744076703728       -3.56294660517306
C           55.29691071642446       -5.32889813398888       -4.64551893458755
O           54.69394361890826       -6.54025428124713       -4.57065873573870
C           55.94890071364240       -4.95604133037261       -5.82208996167712
O           55.95434838754391       -5.83262279484813       -6.87515981240450
C           56.57583250838953       -3.71548323867623       -5.90710067878204
O           57.19137894191525       -3.41802249778738       -7.09479933702177
C           56.55608308447082       -2.84540356807656       -4.82447334713305
C           57.08078204315002       -1.86719107006549       -1.94009299035952
C           58.38105171881946       -2.37740463643623       -2.34622684643130
C           59.29463918925832       -1.75370943178222       -1.57507970720964
C           58.55379851952343       -0.86598055790073       -0.69654242640088
N           57.22362392438544       -0.96936572542809       -0.93651767926822
H           60.25434030629983       -0.05723411081856        0.25935948291949
H           60.29290942033374        1.82333346257452        2.11216234158482
H           58.42118368334837        3.17555712068184        3.45947056557979
H           56.49403230738348        0.53812036450860        0.78787974449118
H           54.63443509639248        4.85159114985122        2.60529656922912
H           54.08442658055690        6.90480890026549        3.55580559734280
H           55.14117914917348        7.00425582218172        6.51956914680793
H           56.66859854524025        4.58030132503906        7.81876440818354
H           56.74586617463831        2.15861806740835        5.21485759464029
H           53.05485978354599        2.94059099911867        3.57889944470079
H           51.22146390605681        1.62289446765413        2.12286760474140
H           51.30682258371974       -1.61857045104742       -2.01713183480336
H           53.18644236545512       -2.85431339136749       -3.45355633922086
H           55.08520871059572       -0.57220731797016       -0.45297497927146
H           54.77492681153539       -4.76482175494308       -2.65037569623339
H           54.82364679302128       -6.99904709353571       -5.41705225472243
H           56.44628603442143       -5.42131092264967       -7.60358847805174
H           57.60292837209975       -2.54462028684238       -7.05918767844659
H           57.03214659168631       -1.87509833626360       -4.90355255635745
H           58.54627107401544       -3.12436987760852       -3.10607367268769
H           60.36754233433335       -1.86683057089942       -1.57348560059128
C           38.87914266870914       -0.10052756843815        0.01733927767213
C           40.09574523321598       -0.08597321009325        0.02131045555280
C           49.76264396034561       -0.01083353567030        0.06052709232326
C           50.97895042718790        0.00306934066423        0.07820168691647
C           41.50532386262002       -0.07592874331559        0.02040650912250
C           42.13892830626119       -1.30811710935095       -0.22545068091019
C           41.49958704426904       -2.56107157636769       -0.41162862016691
C           42.46936643801386       -3.50196772010556       -0.62635397098239
C           43.73103748063740       -2.84870058908477       -0.58503603947990
N           43.48079344813355       -1.52657926254690       -0.33000567820762
C           44.99417738464732       -3.43024108665117       -0.75131142794333
C           45.02073119787622       -4.88180756979459       -1.05750318708597
C           45.66415131630605       -5.76893590171777       -0.19348048162790
C           45.69417882124968       -7.13497739660854       -0.45976751414786
O           46.30891222207749       -8.00848803943764        0.37911148959226
C           45.07872378465495       -7.63016256608605       -1.61418673601874
O           45.09430246665418       -8.95680017000780       -1.90439732239457
C           44.44016361150816       -6.73528033508661       -2.47674968732550
O           43.86215356391797       -7.28428170015299       -3.59269994867909
C           44.40061750711765       -5.37423201276937       -2.20758913137250
C           46.21300081254912       -2.75709516536496       -0.64326552543428
C           47.50374500480637       -3.37565077590227       -0.88665954492109
C           48.43243786691079       -2.42292739797735       -0.66302881950180
N           46.37848582198017       -1.44890861196244       -0.30523133596476
C           47.70861210123121       -1.22220974717497       -0.29550836299999
C           48.35283575713901       -0.01900061022619        0.05053916237889
C           47.71935909262620        1.19111461414111        0.38772337149812
C           48.35985264889905        2.40664194198492        0.74319330007124
C           47.39068552072452        3.34982903987188        0.94871753883170
C           46.12836353842873        2.73970873601084        0.71383884207360
N           46.37736087298153        1.43226105885388        0.39183586715057
C           44.86631291154772        3.34026384571612        0.79766398628172
C           44.84189180526463        4.79119612147650        1.11071700477678
C           45.46585352985370        5.70310896708813        0.25861108447326
C           45.43681986350683        7.06198990517049        0.54923819928227
O           46.03320111893503        7.95699846398968       -0.27622833770434
C           44.78896043151386        7.51328931726362        1.70014550827892
O           44.77954329145680        8.85817076160052        1.96283833592814
C           44.16969553998830        6.60278131707594        2.55274446994613
O           43.55818253284036        7.12014493721544        3.66424623993414
C           44.19104252767948        5.24464846321448        2.26139398622631
C           43.64691867412291        2.68696596719518        0.60691885531391
C           42.35810312401980        3.35475692468557        0.63009419643314
C           41.42871595325376        2.39926655338501        0.42060626490107
C           42.15036954188113        1.15289668695654        0.25914334782760
N           43.47969508887385        1.35822831277448        0.36275124328494
H           40.43408264553445       -2.71852048246175       -0.37169974710337
H           42.32477036270128       -4.55793882849080       -0.78633880705249
H           44.19847447419977       -0.81813873516995       -0.21909865174836
H           46.13235520218483       -5.39753466447117        0.71108187249029
H           46.70523888160534       -7.54979620116076        1.13152556961997
H           44.62186398284157       -9.08999362924668       -2.74192271404459
H           43.45238904914462       -6.60145632005788       -4.13928941882099
H           43.91220103119044       -4.69991099497528       -2.90129865628293
H           47.65759698027844       -4.39574234766039       -1.19911370767666
H           49.50529071014253       -2.50143133523881       -0.73584869931145
H           49.42650869782911        2.53638363267878        0.82811688138712
H           47.53573383082399        4.37649421803344        1.24255272049291
H           45.65980687815216        0.74586048249870        0.18395739589457
H           45.95638955686000        5.36671111538312       -0.64570428911054
H           45.89921464175787        8.84623781190559        0.09125430601724
H           44.28947718850926        8.99734746573397        2.78888113795854
H           43.15016550967877        6.41949296767124        4.18983513044072
H           43.71907637930416        4.54054938532022        2.93646016214382
H           42.20573257576854        4.41277092843209        0.76971159872573
H           40.35772213026891        2.50727327197831        0.35857539556039

          :  Hamiltonian                  GFN1-xTB          :
         :: total energy            -367.624103935706 Eh    ::
         :: gradient norm              0.000506528481 Eh/a0 ::
         :: HOMO-LUMO gap              0.849676058470 eV    ::
         :: SCC energy              -372.538445952869 Eh    ::
         :: repulsion energy           5.080978486463 Eh    ::

    * Orbital Energies and Occupations

         #    Occupation            Energy/Eh            Energy/eV
      -------------------------------------------------------------
         1        2.0000           -0.8138974             -22.1473
       ...           ...                  ...                  ...
       303        2.0000           -0.4149477             -11.2913
       304        2.0000           -0.4135688             -11.2538
       305        2.0000           -0.4130546             -11.2398
       306        2.0000           -0.4123038             -11.2194
       307        2.0000           -0.4119984             -11.2110
       308        2.0000           -0.4108289             -11.1792
       309        2.0000           -0.4070106             -11.0753
       310        2.0000           -0.3998428             -10.8803
       311        2.0000           -0.3993951             -10.8681
       312        2.0000           -0.3982436             -10.8368
       313        2.0000           -0.3904698             -10.6252
       314        2.0000           -0.3837747             -10.4430
       315        2.0000           -0.3754400             -10.2162 (HOMO)
       316        0.0000           -0.3442149              -9.3666 (LUMO)
       317                         -0.3336832              -9.0800
       318                         -0.3317641              -9.0278
       319                         -0.3315118              -9.0209
       320                         -0.3304406              -8.9917
       321                         -0.3244056              -8.8275
       322                         -0.3011601              -8.1950
       323                         -0.2941058              -8.0030
       324                         -0.2901413              -7.8951
       325                         -0.2563715              -6.9762
       326                         -0.2561856              -6.9712
       ...                                ...                  ...
       644                          1.3392713              36.4434
      -------------------------------------------------------------
                  HL-Gap            0.0312250 Eh            0.8497 eV

Wiberg/Mayer (AO) data.
largest (>0.10) Wiberg bond orders for each atom

     #   Z sym  total        # sym  WBO       # sym  WBO       # sym  WBO
 ---------------------------------------------------------------------------
     1   6 C    3.925 --    41 C    1.365     2 C    1.347    43 H    0.971
     2   6 C    3.902 --     1 C    1.347     3 C    1.229     6 N    1.170
     3   6 C    3.952 --     4 C    1.596     2 C    1.229    44 H    0.977
     4   6 C    3.959 --     3 C    1.596     5 C    1.234    45 H    0.974
     5   6 C    3.896 --     7 C    1.305     4 C    1.234     6 N    1.176
     6   7 N    3.469 --     5 C    1.176     2 C    1.170    46 H    0.873
     7   6 C    3.938 --    17 C    1.331     5 C    1.305     8 C    1.031
     8   6 C    3.989 --    16 C    1.398     9 C    1.385     7 C    1.031
     9   6 C    3.972 --    10 C    1.385     8 C    1.385    47 H    0.969
    10   6 C    3.905 --     9 C    1.385    12 C    1.340    11 O    1.013
    11   8 O    2.024 --    10 C    1.013    48 H    0.861
    12   6 C    3.903 --    10 C    1.340    14 C    1.324    13 O    1.021
    13   8 O    2.021 --    12 C    1.021    49 H    0.846
    14   6 C    3.918 --    16 C    1.380    12 C    1.324    15 O    1.053
    15   8 O    2.048 --    14 C    1.053    50 H    0.847
    16   6 C    3.976 --     8 C    1.398    14 C    1.380    51 H    0.970
    17   6 C    3.915 --     7 C    1.331    20 N    1.290    18 C    1.127
    18   6 C    3.966 --    19 C    1.707    17 C    1.127    52 H    0.974
    19   6 C    3.964 --    18 C    1.707    21 C    1.130    53 H    0.972
    20   7 N    3.021 --    21 C    1.340    17 C    1.290
    21   6 C    3.915 --    20 N    1.340    22 C    1.261    19 C    1.130
    22   6 C    3.937 --    21 C    1.261    23 C    1.257   127 C    1.174
    23   6 C    3.891 --    22 C    1.257    24 C    1.248    27 N    1.187
    24   6 C    3.959 --    25 C    1.583    23 C    1.248    54 H    0.972
    25   6 C    3.955 --    24 C    1.583    26 C    1.241    55 H    0.974
    26   6 C    3.898 --    28 C    1.309    25 C    1.241    27 N    1.166
    27   7 N    3.474 --    23 C    1.187    26 C    1.166    56 H    0.873
    28   6 C    3.925 --    38 C    1.320    26 C    1.309    29 C    1.032
    29   6 C    3.989 --    30 C    1.397    37 C    1.385    28 C    1.032
    30   6 C    3.975 --    29 C    1.397    31 C    1.381    57 H    0.970
    31   6 C    3.918 --    30 C    1.381    33 C    1.324    32 O    1.052
    32   8 O    2.048 --    31 C    1.052    58 H    0.848
    33   6 C    3.903 --    35 C    1.340    31 C    1.324    34 O    1.021
    34   8 O    2.020 --    33 C    1.021    59 H    0.846
    35   6 C    3.905 --    37 C    1.385    33 C    1.340    36 O    1.013
    36   8 O    2.025 --    35 C    1.013    60 H    0.861
    37   6 C    3.973 --    35 C    1.385    29 C    1.385    61 H    0.969
    38   6 C    3.929 --    28 C    1.320    42 N    1.317    39 C    1.119
    39   6 C    3.967 --    40 C    1.721    38 C    1.119    62 H    0.974
    40   6 C    3.966 --    39 C    1.721    41 C    1.118    63 H    0.976
    41   6 C    3.929 --     1 C    1.365    42 N    1.300    40 C    1.118
    42   7 N    3.012 --    38 C    1.317    41 C    1.300
    43   1 H    1.002 --     1 C    0.971
    44   1 H    0.998 --     3 C    0.977
    45   1 H    1.005 --     4 C    0.974
    46   1 H    0.986 --     6 N    0.873
    47   1 H    1.001 --     9 C    0.969
    48   1 H    0.881 --    11 O    0.861
    49   1 H    0.876 --    13 O    0.846
    50   1 H    0.877 --    15 O    0.847
    51   1 H    1.000 --    16 C    0.970
    52   1 H    1.006 --    18 C    0.974
    53   1 H    1.006 --    19 C    0.972
    54   1 H    1.005 --    24 C    0.972
    55   1 H    1.006 --    25 C    0.974
    56   1 H    0.987 --    27 N    0.873
    57   1 H    1.000 --    30 C    0.970
    58   1 H    0.878 --    32 O    0.848
    59   1 H    0.876 --    34 O    0.846
    60   1 H    0.881 --    36 O    0.861
    61   1 H    1.001 --    37 C    0.969
    62   1 H    1.006 --    39 C    0.974
    63   1 H    0.998 --    40 C    0.976
    64   6 C    3.925 --   104 C    1.365    65 C    1.347   106 H    0.971
    65   6 C    3.902 --    64 C    1.347    66 C    1.229    69 N    1.170
    66   6 C    3.954 --    67 C    1.596    65 C    1.229   107 H    0.977
    67   6 C    3.959 --    66 C    1.596    68 C    1.234   108 H    0.974
    68   6 C    3.896 --    70 C    1.305    67 C    1.234    69 N    1.176
    69   7 N    3.469 --    68 C    1.176    65 C    1.170   109 H    0.873
    70   6 C    3.938 --    80 C    1.332    68 C    1.305    71 C    1.030
    71   6 C    3.989 --    79 C    1.398    72 C    1.386    70 C    1.030
    72   6 C    3.973 --    71 C    1.386    73 C    1.385   110 H    0.969
    73   6 C    3.905 --    72 C    1.385    75 C    1.340    74 O    1.013
    74   8 O    2.025 --    73 C    1.013   111 H    0.861
    75   6 C    3.903 --    73 C    1.340    77 C    1.324    76 O    1.021
    76   8 O    2.021 --    75 C    1.021   112 H    0.846
    77   6 C    3.918 --    79 C    1.380    75 C    1.324    78 O    1.052
    78   8 O    2.048 --    77 C    1.052   113 H    0.848
    79   6 C    3.976 --    71 C    1.398    77 C    1.380   114 H    0.970
    80   6 C    3.916 --    70 C    1.332    83 N    1.289    81 C    1.126
    81   6 C    3.966 --    82 C    1.707    80 C    1.126   115 H    0.974
    82   6 C    3.964 --    81 C    1.707    84 C    1.129   116 H    0.972
    83   7 N    3.021 --    84 C    1.340    80 C    1.289
    84   6 C    3.915 --    83 N    1.340    85 C    1.261    82 C    1.129
    85   6 C    3.936 --    84 C    1.261    86 C    1.258   130 C    1.173
    86   6 C    3.891 --    85 C    1.258    87 C    1.247    90 N    1.187
    87   6 C    3.959 --    88 C    1.584    86 C    1.247   117 H    0.972
    88   6 C    3.956 --    87 C    1.584    89 C    1.241   118 H    0.974
    89   6 C    3.898 --    91 C    1.309    88 C    1.241    90 N    1.166
    90   7 N    3.474 --    86 C    1.187    89 C    1.166   119 H    0.873
    91   6 C    3.925 --   101 C    1.320    89 C    1.309    92 C    1.031
    92   6 C    3.989 --    93 C    1.397   100 C    1.385    91 C    1.031
    93   6 C    3.975 --    92 C    1.397    94 C    1.380   120 H    0.970
    94   6 C    3.918 --    93 C    1.380    96 C    1.324    95 O    1.053
    95   8 O    2.049 --    94 C    1.053   121 H    0.847
    96   6 C    3.903 --    98 C    1.340    94 C    1.324    97 O    1.021
    97   8 O    2.021 --    96 C    1.021   122 H    0.846
    98   6 C    3.905 --   100 C    1.385    96 C    1.340    99 O    1.013
    99   8 O    2.024 --    98 C    1.013   123 H    0.861
   100   6 C    3.972 --    98 C    1.385    92 C    1.385   124 H    0.969
   101   6 C    3.928 --    91 C    1.320   105 N    1.317   102 C    1.119
   102   6 C    3.967 --   103 C    1.721   101 C    1.119   125 H    0.974
   103   6 C    3.966 --   102 C    1.721   104 C    1.118   126 H    0.976
   104   6 C    3.929 --    64 C    1.365   105 N    1.300   103 C    1.118
   105   7 N    3.012 --   101 C    1.317   104 C    1.300
   106   1 H    1.002 --    64 C    0.971
   107   1 H    0.998 --    66 C    0.977
   108   1 H    1.005 --    67 C    0.974
   109   1 H    0.986 --    69 N    0.873
   110   1 H    1.001 --    72 C    0.969
   111   1 H    0.881 --    74 O    0.861
   112   1 H    0.876 --    76 O    0.846
   113   1 H    0.878 --    78 O    0.848
   114   1 H    1.000 --    79 C    0.970
   115   1 H    1.006 --    81 C    0.974
   116   1 H    1.005 --    82 C    0.972
   117   1 H    1.004 --    87 C    0.972
   118   1 H    1.005 --    88 C    0.974
   119   1 H    0.987 --    90 N    0.873
   120   1 H    1.000 --    93 C    0.970
   121   1 H    0.877 --    95 O    0.847
   122   1 H    0.876 --    97 O    0.846
   123   1 H    0.881 --    99 O    0.861
   124   1 H    1.001 --   100 C    0.969
   125   1 H    1.006 --   102 C    0.974
   126   1 H    0.998 --   103 C    0.976
   127   6 C    3.928 --   128 C    2.575    22 C    1.174
   128   6 C    3.931 --   127 C    2.575   131 C    1.176
   129   6 C    3.931 --   130 C    2.577   152 C    1.175
   130   6 C    3.928 --   129 C    2.577    85 C    1.173
   131   6 C    3.925 --   171 C    1.260   132 C    1.254   128 C    1.176
   132   6 C    3.892 --   131 C    1.254   133 C    1.253   136 N    1.187
   133   6 C    3.956 --   134 C    1.576   132 C    1.253   173 H    0.972
   134   6 C    3.956 --   133 C    1.576   135 C    1.247   174 H    0.974
   135   6 C    3.894 --   137 C    1.299   134 C    1.247   136 N    1.167
   136   7 N    3.470 --   132 C    1.187   135 C    1.167   175 H    0.874
   137   6 C    3.927 --   147 C    1.335   135 C    1.299   138 C    1.030
   138   6 C    3.988 --   139 C    1.391   146 C    1.384   137 C    1.030
   139   6 C    3.974 --   138 C    1.391   140 C    1.381   176 H    0.969
   140   6 C    3.915 --   139 C    1.381   142 C    1.320   141 O    1.045
   141   8 O    2.053 --   140 C    1.045   177 H    0.866
   142   6 C    3.915 --   144 C    1.328   140 C    1.320   143 O    1.052
   143   8 O    2.048 --   142 C    1.052   178 H    0.850
   144   6 C    3.904 --   146 C    1.390   142 C    1.328   145 O    1.012
   145   8 O    2.026 --   144 C    1.012   179 H    0.861
   146   6 C    3.973 --   144 C    1.390   138 C    1.384   180 H    0.969
   147   6 C    3.917 --   137 C    1.335   150 N    1.287   148 C    1.126
   148   6 C    3.967 --   149 C    1.708   147 C    1.126   181 H    0.974
   149   6 C    3.964 --   148 C    1.708   151 C    1.130   182 H    0.972
   150   7 N    3.009 --   151 C    1.340   147 C    1.287
   151   6 C    3.916 --   150 N    1.340   152 C    1.262   149 C    1.130
   152   6 C    3.925 --   151 C    1.262   153 C    1.255   129 C    1.175
   153   6 C    3.892 --   152 C    1.255   154 C    1.252   157 N    1.187
   154   6 C    3.956 --   155 C    1.578   153 C    1.252   183 H    0.973
   155   6 C    3.956 --   154 C    1.578   156 C    1.245   184 H    0.974
   156   6 C    3.894 --   158 C    1.300   155 C    1.245   157 N    1.167
   157   7 N    3.470 --   153 C    1.187   156 C    1.167   185 H    0.874
   158   6 C    3.927 --   168 C    1.335   156 C    1.300   159 C    1.029
   159   6 C    3.989 --   160 C    1.397   167 C    1.386   158 C    1.029
   160   6 C    3.976 --   159 C    1.397   161 C    1.381   186 H    0.970
   161   6 C    3.917 --   160 C    1.381   163 C    1.324   162 O    1.052
   162   8 O    2.047 --   161 C    1.052   187 H    0.848
   163   6 C    3.903 --   165 C    1.340   161 C    1.324   164 O    1.021
   164   8 O    2.020 --   163 C    1.021   188 H    0.846
   165   6 C    3.905 --   167 C    1.385   163 C    1.340   166 O    1.014
   166   8 O    2.025 --   165 C    1.014   189 H    0.860
   167   6 C    3.973 --   159 C    1.386   165 C    1.385   190 H    0.969
   168   6 C    3.918 --   158 C    1.335   172 N    1.287   169 C    1.127
   169   6 C    3.966 --   170 C    1.706   168 C    1.127   191 H    0.974
   170   6 C    3.964 --   169 C    1.706   171 C    1.130   192 H    0.971
   171   6 C    3.916 --   172 N    1.341   131 C    1.260   170 C    1.130
   172   7 N    3.008 --   171 C    1.341   168 C    1.287
   173   1 H    1.004 --   133 C    0.972
   174   1 H    1.006 --   134 C    0.974
   175   1 H    0.987 --   136 N    0.874
   176   1 H    1.001 --   139 C    0.969
   177   1 H    0.886 --   141 O    0.866
   178   1 H    0.881 --   143 O    0.850
   179   1 H    0.882 --   145 O    0.861
   180   1 H    1.001 --   146 C    0.969
   181   1 H    1.006 --   148 C    0.974
   182   1 H    1.005 --   149 C    0.972
   183   1 H    1.004 --   154 C    0.973
   184   1 H    1.005 --   155 C    0.974
   185   1 H    0.987 --   157 N    0.874
   186   1 H    1.000 --   160 C    0.970
   187   1 H    0.878 --   162 O    0.848
   188   1 H    0.876 --   164 O    0.846
   189   1 H    0.881 --   166 O    0.860
   190   1 H    1.001 --   167 C    0.969
   191   1 H    1.006 --   169 C    0.974
   192   1 H    1.005 --   170 C    0.971
 ---------------------------------------------------------------------------

           -------------------------------------------------
          | TOTAL ENERGY             -367.624103935706 Eh   |
          | GRADIENT NORM               0.000506528481 Eh/α |
          | HOMO-LUMO GAP               0.849676058470 eV   |
           -------------------------------------------------

 * finished run on 2022/07/29 at 10:12:57.994
