   * xtb version 6.5.1 (b24c23e) compiled by 'conda@728c89f4b128' on 2022-07-12
          program call               : xtb BSA_C8_3.xyz --gfn 1 --opt -T 48

   ID    Z sym.   atoms
    1    6 C      1-5, 7-11, 16-20, 22-27, 29-33, 38-43, 66-70, 72-76, 81-85,
                  87-92, 94-98, 103-108, 131-151, 153-157, 162-166, 168-173,
                  175-179, 184-189
    2    7 N      6, 21, 28, 44, 71, 86, 93, 109, 152, 167, 174, 190
    3   16 S      12, 34, 77, 99, 158, 180
    4    8 O      13-15, 35-37, 78-80, 100-102, 159-161, 181-183
    5    1 H      45-65, 110-130, 191-210

          :  Hamiltonian                  GFN1-xTB          :
 * total energy  :  -412.2926620 Eh     change       -0.8350469E-08 Eh
 * total energy  :  -413.3733458 Eh     change       -0.1080684E+01 Eh
 * total energy  :  -413.6244574 Eh     change       -0.2511116E+00 Eh
 * total energy  :  -413.7559879 Eh     change       -0.1315305E+00 Eh
 * total energy  :  -413.8430771 Eh     change       -0.8708917E-01 Eh
 * total energy  :  -413.9236515 Eh     change       -0.8057440E-01 Eh
 * total energy  :  -413.9887034 Eh     change       -0.6505190E-01 Eh
 * total energy  :  -414.0271417 Eh     change       -0.3843831E-01 Eh
 * total energy  :  -414.0564557 Eh     change       -0.2931401E-01 Eh
 * total energy  :  -414.0787867 Eh     change       -0.2233099E-01 Eh
 * total energy  :  -414.1831154 Eh     change        0.3976191E-04 Eh
 * total energy  :  -414.1831683 Eh     change       -0.5284032E-04 Eh
 * total energy  :  -414.1831632 Eh     change        0.5090599E-05 Eh
 * total energy  :  -414.1831733 Eh     change       -0.1015866E-04 Eh
 * total energy  :  -414.1831711 Eh     change        0.2265185E-05 Eh
 * total energy  :  -414.1831771 Eh     change       -0.5993984E-05 Eh
 * total energy  :  -414.1831736 Eh     change        0.3441036E-05 Eh
 * total energy  :  -414.1831816 Eh     change       -0.7949112E-05 Eh
 * total energy  :  -414.1831836 Eh     change       -0.2036765E-05 Eh
   *** GEOMETRY OPTIMIZATION CONVERGED AFTER 103 ITERATIONS ***

 final structure:
================
210
 xtb: 6.5.1 (b24c23e)
C           24.39164540723775       -0.04148103946277        0.13711625157189
C           24.98438749879066       -1.25179286144380       -0.19772249574695
C           24.31814589192660       -2.48132418067131       -0.46326923753287
C           25.26620390479044       -3.41751888272550       -0.76465435517584
C           26.54252713428974       -2.78762721899635       -0.70055092227121
N           26.32215866032246       -1.48724965034013       -0.34705797081050
C           27.79670018230468       -3.36847897552955       -0.91954744276672
C           27.80423060176478       -4.79673104840235       -1.31896492174595
C           27.18347974856120       -5.19805057899450       -2.50473961482528
C           27.18665014437475       -6.52991631858751       -2.88493649762556
C           27.81182284730421       -7.45421212576715       -2.06381762572543
S           27.82319912196365       -9.14110843524008       -2.54113289247109
O           27.63360530604450       -9.27718578239737       -3.95587376078443
O           26.44734704705544       -9.60360388804010       -1.81100570832294
O           28.91849769436795       -9.83098699694783       -1.92735660797945
C           28.43728268334582       -7.08711625069590       -0.88333863169113
C           28.43135277114986       -5.75188994067205       -0.51493531319184
C           29.02279824925368       -2.71064399048198       -0.79206361106766
C           30.30813376216071       -3.32677850967041       -1.07059434081781
C           31.24287302248841       -2.38393945495848       -0.83257442936584
N           29.19703416153448       -1.41435657354434       -0.41633592489343
C           30.52699863646803       -1.19087156569052       -0.42333397904292
C           31.18177081310527        0.01193401522978       -0.09106557206092
C           30.56342813533856        1.22713577760695        0.25862407020901
C           31.22508897637129        2.43751148926150        0.59665045340604
C           30.27105016674786        3.38067865640115        0.86000547437120
C           28.99577564756436        2.77466640197521        0.68506714706670
N           29.22441159055386        1.47267798348938        0.32798329259107
C           27.74139542011358        3.36419289468685        0.87518277335639
C           27.73062859841601        4.80051418594142        1.24252964320559
C           28.26465492248693        5.75391187409608        0.37162507947450
C           28.25356953533716        7.09762081766703        0.70705786136090
C           27.71060729294510        7.47457454443682        1.92476662415131
S           27.69111953074468        9.17454417675594        2.35211351729401
O           27.71295111887538        9.99562473663633        1.17755846647432
O           29.15455847286257        9.25632551439922        3.05286396515189
O           26.69960576391868        9.43789037382385        3.35279633809753
C           27.17325963749757        6.55332184803744        2.80899318940536
C           27.18379837702630        5.21281248303818        2.46041474925141
C           26.51479487684846        2.70425316732911        0.74723129933350
C           25.21824088713498        3.34494330006823        0.90866916718476
C           24.29178168590832        2.38725338298809        0.70610638260727
C           25.02048503991213        1.16630891312909        0.40828306080035
N           26.35621424259046        1.39663927535691        0.43527414780277
H           23.30743680234029       -0.04821587587737        0.18440577616549
H           23.24961888533682       -2.61920207867799       -0.42062146905874
H           25.10267270945181       -4.45629755776819       -1.00148602872489
H           27.05495635900596       -0.79875805684969       -0.21226149454420
H           26.71215479427453       -4.45727149763548       -3.14013961182024
H           26.71858754136361       -6.84976843939662       -3.80744988304664
H           26.19670484786097      -10.48787692584163       -2.10484814930317
H           28.92103869610919       -7.83539753757268       -0.26821960826984
H           28.90441593633355       -5.44541782796000        0.41062437487652
H           30.45353382828647       -4.33817925918805       -1.41366870590774
H           32.31415507529614       -2.45916338122258       -0.92785000503879
H           32.29539899744788        2.56015128093497        0.63472942706514
H           30.43314185257695        4.40303949472885        1.16012627466681
H           28.49296878114763        0.79170697007690        0.15215123283116
H           28.67315009661244        5.43950992812912       -0.58174111138656
H           28.65302554103684        7.84597520138820        0.03416235676632
H           29.33044190794719       10.15567143093225        3.35507430780431
H           26.75258860069761        6.88355259188781        3.75046024813429
H           26.77856513981910        4.47468583753590        3.14259549474563
H           25.06306486388536        4.38794099977547        1.13290119687569
H           23.21682984079441        2.46974887273810        0.73820684517537
C           68.32630842381160       -0.00115469546536        0.12826128467583
C           67.72418129101824        1.19594617457799        0.49255975675238
C           68.38153905976407        2.38623977731296        0.91349251847228
C           67.42554406989127        3.32980824433758        1.16239010435590
C           66.15299406979224        2.74827775694407        0.89366769684719
N           66.38357000182411        1.46054039109237        0.50252023862735
C           64.89348009176707        3.34382909723441        1.02501638939760
C           64.87359543397938        4.76658303356719        1.44304896707412
C           65.47858578779943        5.74232075339601        0.64660678941649
C           65.46323191242591        7.07303540630476        1.03062144524719
C           64.84187545831186        7.41441535874396        2.22090467180975
S           64.81537710682520        9.09738013531158        2.71137633096821
O           64.98857570935729        9.96566460821200        1.58351057913377
O           66.19686695362601        9.11750602555349        3.56659473934563
O           63.72296483650433        9.34419259570181        3.60466164019521
C           64.23180713943391        6.47044669905096        3.03099158323276
C           64.24979132968531        5.14323165767673        2.63517691344668
C           63.67229137787896        2.70525495728866        0.79448832390805
C           62.38105231470779        3.36288711110004        0.89141066890725
C           61.45353702593495        2.42677530034946        0.60390622538188
N           63.50841349694750        1.40374159127252        0.43222267003130
C           62.17952200796926        1.20395289668481        0.31899337923564
C           61.53378107387523       -0.00157582129720       -0.02200840116932
C           62.16146556530542       -1.21277435495345       -0.36828440592471
C           61.50963367179165       -2.42707868455083       -0.71122585104736
C           62.47118044263564       -3.35553692689688       -0.99857973654124
C           63.74128918953463       -2.73317135232257       -0.84435445425666
N           63.50228338820384       -1.44201871956967       -0.45616417071562
C           65.00074658931149       -3.31831720403836       -1.01323018493346
C           65.02336087793334       -4.72999369384979       -1.46578759419279
C           64.47755722296812       -5.08096971201909       -2.70334046519158
C           64.50223902466119       -6.39658570874584       -3.13550572375857
C           65.07045364987475       -7.35609944575543       -2.31320782609603
S           65.10914368759342       -9.02172097047023       -2.85836034542273
O           65.07352526323639       -9.08977256872966       -4.28955540568408
O           63.65909700475002       -9.48669663974090       -2.29251472466689
O           66.11940769433694       -9.76365454845856       -2.16324869336791
C           65.61910300021229       -7.03951347258702       -1.08110161895187
C           65.59484315693469       -5.71959045094470       -0.66182018002181
C           66.22281692486203       -2.67606569867413       -0.78811109078765
C           67.52410522255899       -3.28921626667961       -1.00801640364621
C           68.44377379788207       -2.35953294903932       -0.68181058158630
C           67.70604667965496       -1.17551522481275       -0.27657101539622
N           66.37173259291615       -1.40058866950168       -0.35994843044514
H           69.41105843779795       -0.00872773366014        0.16072948091093
H           69.44991085338954        2.49187717557162        1.01355359619567
H           67.58140120255571        4.33789515199249        1.51077362738143
H           65.65565759503453        0.79751523681186        0.25809953021357
H           65.94702528028090        5.45645329541799       -0.28799163842780
H           65.91890918747247        7.83849565532159        0.41511365588562
H           66.44464548511377       10.02647873085654        3.77508929557047
H           63.75049586215376        6.77337435150400        3.95233276499436
H           63.78882050651379        4.38745221703275        3.26022145317032
H           62.22704023912194        4.40192483673964        1.13315799953205
H           60.38096991553331        2.53058982060479        0.57031411310366
H           60.44049418970394       -2.56385794530429       -0.72943378676285
H           62.31782936110623       -4.38408713857007       -1.28168324536783
H           64.22825061311312       -0.76178762913990       -0.25639035314657
H           64.04944669008239       -4.31316752679422       -3.33723813797819
H           64.09426384020279       -6.67732924516575       -4.09837874244522
H           63.50353651488880      -10.41718924851054       -2.49516984618114
H           66.05925828614791       -7.81420356363422       -0.46589159430326
H           66.00906798185910       -5.45230368649953        0.30325429106339
H           67.68671181974283       -4.28998403648701       -1.37436891910923
H           69.51939021616512       -2.43382743906082       -0.71163749417117
C           32.58800515961214        0.01414977166221       -0.10548364589509
C           33.81238182712590        0.02193329319959       -0.10283148623380
C           35.15532539844469        0.02954599178645       -0.09749381651846
C           36.38570130086587        0.04204172581113       -0.08426115792357
C           37.72367096169789        0.05212526478176       -0.06469568177679
C           38.95397927138265        0.06367813942904       -0.04212540607093
C           40.29645166470105        0.07761221246904       -0.01893760660732
C           41.52072615672974        0.09111188443444        0.00677091567962
C           51.19457345553889        0.05538847844781        0.07146618412631
C           52.41899368666642        0.03411682077042        0.06252160120098
C           53.76152506468120        0.01729426056202        0.04982365834453
C           54.99194323188212        0.00404981631712        0.03250802577395
C           56.32987658686366       -0.00535023877396        0.01529168787175
C           57.56029307301107       -0.00896006705088       -0.00222366005500
C           58.90317776208486       -0.01036399998149       -0.01337890870572
C           60.12756367650770       -0.00730908980281       -0.02228030390545
C           42.92576989536093        0.10277769525592        0.02718758496416
C           43.56127937664201        0.79017738988319       -1.02435998938807
C           42.92185764358715        1.45121613718035       -2.10503331891769
C           43.89290010941729        2.00621034497362       -2.89243720196192
C           45.15452520728645        1.70561082327524       -2.30948286649821
N           44.90357009126815        0.96133551144882       -1.18851366860126
C           46.41870372135650        2.07011872699206       -2.78826352268436
C           46.44094409821320        2.90986934049203       -4.01119394535392
C           47.04598190262510        2.43738602290648       -5.17851590329956
C           47.06526568650480        3.21459033098954       -6.32487365085069
C           46.47619913637293        4.46799436656568       -6.28846414499170
S           46.50339519649411        5.46058810138354       -7.73345759226498
O           46.37129707767091        6.84998031821283       -7.40541069661005
O           45.09812907850100        4.96886053121298       -8.38381954835752
O           47.57079336717327        5.05946693619493       -8.60064825048628
C           45.87504250143957        4.96697860425604       -5.14432851199674
C           45.85757369714620        4.17942172456068       -4.00502036820476
C           47.64104615723743        1.70994558425391       -2.21809515702516
C           48.93026932483486        2.15562096783918       -2.71698648464186
C           49.86248639137324        1.59572989394091       -1.91912632597760
N           47.81047613163845        0.91624787489595       -1.12568110854613
C           49.14129176767850        0.82002277805311       -0.92909177375613
C           49.78951223945661        0.07521590944168        0.07617992712002
C           49.15421965408802       -0.65499555351559        1.09859633104580
C           49.79365228622837       -1.41652546546784        2.11096893131151
C           48.82260230846822       -1.94478301473945        2.91658470822548
C           47.56088467401069       -1.51421998357546        2.42193198498334
N           47.81179705202640       -0.74596449269192        1.31732012619142
C           46.29660951969745       -1.82603468201511        2.93656790283805
C           46.27318284024222       -2.64875559323740        4.17109913724327
C           45.67397742459104       -3.91083789057952        4.16553525291624
C           45.65124944368170       -4.68364154084097        5.31480468732022
C           46.22808538508165       -4.17736510552909        6.46820614639458
S           46.21097432285539       -5.15392834402673        7.92430026138015
O           46.07122684357026       -6.54182710038562        7.59769120138792
O           44.80770481085774       -4.62620030100531        8.54774976318232
O           47.26251513861993       -4.76310072577375        8.81721925878757
C           46.83100685145290       -2.93056765516658        6.50466642139545
C           46.85298576287537       -2.16864588246220        5.34810405298894
C           45.07404447694275       -1.43183304938583        2.38982448567194
C           43.78444852233626       -1.73691721496425        2.98451513818962
C           42.85214897153013       -1.20270991512133        2.16924211636410
C           43.57360929409213       -0.56254570146527        1.08684931498958
N           44.90446628789213       -0.70666883498755        1.25078969806556
H           41.85512112454832        1.48852115458238       -2.25559390801320
H           43.74995107709160        2.56576621635600       -3.80232695609596
H           45.61913326767797        0.58713036994226       -0.57436399983177
H           47.49111238192788        1.44938692877648       -5.18858790568350
H           47.53154409688357        2.85842734902298       -7.23484237978899
H           44.86451447074461        5.52898121158897       -9.13406449239337
H           45.43583556360537        5.95667722812792       -5.14734270747424
H           45.40384633444464        4.55639402006210       -3.09582175569108
H           49.07963415516317        2.81758016105326       -3.55438059383360
H           50.93533234426879        1.68996851289233       -1.96818915589560
H           50.86044996043242       -1.54187276469234        2.20155478889173
H           48.96552211326762       -2.58457548178290        3.77196856385451
H           47.09628818473829       -0.31258720239246        0.74334582309392
H           45.23855227178059       -4.29265652497266        3.24957985081432
H           45.19916702893308       -5.66746953455697        5.31894359374437
H           44.69736429927014       -4.95117700539699        9.44957190818277
H           47.27701784604891       -2.56787163684674        7.42222784366216
H           47.30970239139565       -1.18584235538176        5.35849962133498
H           43.63470792187435       -2.27478869816011        3.90648878978015
H           41.77904621027879       -1.21751886540819        2.27228904182824

          :  Hamiltonian                  GFN1-xTB          :
         :: total energy            -414.183183596863 Eh    ::
         :: gradient norm              0.000612890686 Eh/a0 ::
         :: HOMO-LUMO gap              1.027455244178 eV    ::
         :: SCC energy              -420.165962327330 Eh    ::
         :: repulsion energy           6.163387931969 Eh    ::

    * Orbital Energies and Occupations

         #    Occupation            Energy/Eh            Energy/eV
      -------------------------------------------------------------
         1        2.0000           -1.0368957             -28.2154
       ...           ...                  ...                  ...
       345        2.0000           -0.4335113             -11.7964
       346        2.0000           -0.4328813             -11.7793
       347        2.0000           -0.4320654             -11.7571
       348        2.0000           -0.4301827             -11.7059
       349        2.0000           -0.4272339             -11.6256
       350        2.0000           -0.4263165             -11.6007
       351        2.0000           -0.4229768             -11.5098
       352        2.0000           -0.4177511             -11.3676
       353        2.0000           -0.4165817             -11.3358
       354        2.0000           -0.4157746             -11.3138
       355        2.0000           -0.4009347             -10.9100
       356        2.0000           -0.3999256             -10.8825
       357        2.0000           -0.3971074             -10.8058 (HOMO)
       358                         -0.3593491              -9.7784 (LUMO)
       359                         -0.3544422              -9.6449
       360                         -0.3534085              -9.6167
       361                         -0.3512221              -9.5572
       362                         -0.3504557              -9.5364
       363                         -0.3496581              -9.5147
       364                         -0.3295658              -8.9679
       365                         -0.3227675              -8.7830
       366                         -0.3218926              -8.7591
       367                         -0.3116705              -8.4810
       368                         -0.3107217              -8.4552
       ...                                ...                  ...
       746                          1.5914517              43.3056
      -------------------------------------------------------------
                  HL-Gap            0.0377583 Eh            1.0275 eV

Wiberg/Mayer (AO) data.
largest (>0.10) Wiberg bond orders for each atom

     #   Z sym  total        # sym  WBO       # sym  WBO       # sym  WBO
 ---------------------------------------------------------------------------
     1   6 C    3.928 --    43 C    1.367     2 C    1.348    45 H    0.970
     2   6 C    3.900 --     1 C    1.348     3 C    1.228     6 N    1.169
     3   6 C    3.954 --     4 C    1.598     2 C    1.228    46 H    0.976
     4   6 C    3.959 --     3 C    1.598     5 C    1.232    47 H    0.974
     5   6 C    3.898 --     7 C    1.303     4 C    1.232     6 N    1.179
     6   7 N    3.471 --     5 C    1.179     2 C    1.169    48 H    0.873
     7   6 C    3.938 --    18 C    1.333     5 C    1.303     8 C    1.030
     8   6 C    3.986 --     9 C    1.390    17 C    1.390     7 C    1.030
     9   6 C    3.986 --    10 C    1.450     8 C    1.390    49 H    0.971
                            16 C    0.106
    10   6 C    3.989 --     9 C    1.450    11 C    1.407    50 H    0.967
                            17 C    0.106
    11   6 C    3.930 --    16 C    1.407    10 C    1.407    12 S    0.754
    12  16 S    5.265 --    15 O    1.724    13 O    1.715    14 O    1.012
                            11 C    0.754
    13   8 O    2.074 --    12 S    1.715    15 O    0.139
    14   8 O    2.087 --    12 S    1.012    51 H    0.828
    15   8 O    2.083 --    12 S    1.724    13 O    0.139
    16   6 C    3.989 --    17 C    1.450    11 C    1.407    52 H    0.967
                             9 C    0.106
    17   6 C    3.987 --    16 C    1.450     8 C    1.390    53 H    0.971
                            10 C    0.106
    18   6 C    3.915 --     7 C    1.333    21 N    1.288    19 C    1.123
    19   6 C    3.965 --    20 C    1.712    18 C    1.123    54 H    0.973
    20   6 C    3.964 --    19 C    1.712    22 C    1.127    55 H    0.974
    21   7 N    3.023 --    22 C    1.342    18 C    1.288
    22   6 C    3.907 --    21 N    1.342    23 C    1.257    20 C    1.127
    23   6 C    3.940 --    22 C    1.257    24 C    1.253   131 C    1.188
    24   6 C    3.883 --    23 C    1.253    25 C    1.248    28 N    1.188
    25   6 C    3.959 --    26 C    1.585    24 C    1.248    56 H    0.974
    26   6 C    3.954 --    25 C    1.585    27 C    1.239    57 H    0.974
    27   6 C    3.899 --    29 C    1.308    26 C    1.239    28 N    1.167
    28   7 N    3.475 --    24 C    1.188    27 C    1.167    58 H    0.872
    29   6 C    3.924 --    40 C    1.321    27 C    1.308    30 C    1.031
    30   6 C    3.986 --    39 C    1.390    31 C    1.390    29 C    1.031
    31   6 C    3.985 --    32 C    1.451    30 C    1.390    59 H    0.971
                            38 C    0.106
    32   6 C    3.989 --    31 C    1.451    33 C    1.406    60 H    0.967
                            39 C    0.106
    33   6 C    3.929 --    38 C    1.407    32 C    1.406    34 S    0.754
    34  16 S    5.264 --    37 O    1.720    35 O    1.719    36 O    1.012
                            33 C    0.754
    35   8 O    2.078 --    34 S    1.719    37 O    0.139
    36   8 O    2.086 --    34 S    1.012    61 H    0.828
    37   8 O    2.079 --    34 S    1.720    35 O    0.139
    38   6 C    3.989 --    39 C    1.450    33 C    1.407    62 H    0.967
                            31 C    0.106
    39   6 C    3.986 --    38 C    1.450    30 C    1.390    63 H    0.971
                            32 C    0.106
    40   6 C    3.929 --    29 C    1.321    44 N    1.318    41 C    1.115
    41   6 C    3.967 --    42 C    1.725    40 C    1.115    64 H    0.973
    42   6 C    3.966 --    41 C    1.725    43 C    1.115    65 H    0.975
    43   6 C    3.927 --     1 C    1.367    44 N    1.300    42 C    1.115
    44   7 N    3.014 --    40 C    1.318    43 C    1.300
    45   1 H    1.001 --     1 C    0.970
    46   1 H    0.997 --     3 C    0.976
    47   1 H    1.003 --     4 C    0.974
    48   1 H    0.986 --     6 N    0.873
    49   1 H    1.003 --     9 C    0.971
    50   1 H    0.999 --    10 C    0.967
    51   1 H    0.854 --    14 O    0.828
    52   1 H    0.999 --    16 C    0.967
    53   1 H    1.003 --    17 C    0.971
    54   1 H    1.004 --    19 C    0.973
    55   1 H    1.002 --    20 C    0.974
    56   1 H    1.001 --    25 C    0.974
    57   1 H    1.003 --    26 C    0.974
    58   1 H    0.987 --    28 N    0.872
    59   1 H    1.003 --    31 C    0.971
    60   1 H    0.999 --    32 C    0.967
    61   1 H    0.854 --    36 O    0.828
    62   1 H    1.000 --    38 C    0.967
    63   1 H    1.003 --    39 C    0.971
    64   1 H    1.004 --    41 C    0.973
    65   1 H    0.998 --    42 C    0.975
    66   6 C    3.928 --   108 C    1.367    67 C    1.348   110 H    0.970
    67   6 C    3.900 --    66 C    1.348    68 C    1.228    71 N    1.169
    68   6 C    3.954 --    69 C    1.598    67 C    1.228   111 H    0.976
    69   6 C    3.959 --    68 C    1.598    70 C    1.232   112 H    0.974
    70   6 C    3.898 --    72 C    1.303    69 C    1.232    71 N    1.179
    71   7 N    3.471 --    70 C    1.179    67 C    1.169   113 H    0.873
    72   6 C    3.938 --    83 C    1.333    70 C    1.303    73 C    1.030
    73   6 C    3.986 --    74 C    1.391    82 C    1.390    72 C    1.030
    74   6 C    3.986 --    75 C    1.450    73 C    1.391   114 H    0.971
                            81 C    0.106
    75   6 C    3.989 --    74 C    1.450    76 C    1.407   115 H    0.967
                            82 C    0.106
    76   6 C    3.930 --    75 C    1.407    81 C    1.407    77 S    0.754
    77  16 S    5.265 --    80 O    1.725    78 O    1.715    79 O    1.012
                            76 C    0.754
    78   8 O    2.074 --    77 S    1.715    80 O    0.139
    79   8 O    2.087 --    77 S    1.012   116 H    0.828
    80   8 O    2.083 --    77 S    1.725    78 O    0.139
    81   6 C    3.989 --    82 C    1.450    76 C    1.407   117 H    0.967
                            74 C    0.106
    82   6 C    3.987 --    81 C    1.450    73 C    1.390   118 H    0.971
                            75 C    0.106
    83   6 C    3.915 --    72 C    1.333    86 N    1.288    84 C    1.123
    84   6 C    3.966 --    85 C    1.712    83 C    1.123   119 H    0.973
    85   6 C    3.964 --    84 C    1.712    87 C    1.127   120 H    0.974
    86   7 N    3.023 --    87 C    1.342    83 C    1.288
    87   6 C    3.906 --    86 N    1.342    88 C    1.256    85 C    1.127
    88   6 C    3.940 --    87 C    1.256    89 C    1.253   146 C    1.189
    89   6 C    3.883 --    88 C    1.253    90 C    1.247    93 N    1.188
    90   6 C    3.959 --    91 C    1.585    89 C    1.247   121 H    0.974
    91   6 C    3.954 --    90 C    1.585    92 C    1.239   122 H    0.974
    92   6 C    3.899 --    94 C    1.308    91 C    1.239    93 N    1.167
    93   7 N    3.475 --    89 C    1.188    92 C    1.167   123 H    0.872
    94   6 C    3.924 --   105 C    1.320    92 C    1.308    95 C    1.031
    95   6 C    3.986 --   104 C    1.390    96 C    1.390    94 C    1.031
    96   6 C    3.985 --    97 C    1.451    95 C    1.390   124 H    0.971
                           103 C    0.106
    97   6 C    3.989 --    96 C    1.451    98 C    1.406   125 H    0.967
                           104 C    0.106
    98   6 C    3.929 --   103 C    1.407    97 C    1.406    99 S    0.754
    99  16 S    5.264 --   100 O    1.720   102 O    1.719   101 O    1.012
                            98 C    0.754
   100   8 O    2.078 --    99 S    1.720   102 O    0.139
   101   8 O    2.087 --    99 S    1.012   126 H    0.828
   102   8 O    2.078 --    99 S    1.719   100 O    0.139
   103   6 C    3.989 --   104 C    1.450    98 C    1.407   127 H    0.967
                            96 C    0.106
   104   6 C    3.986 --   103 C    1.450    95 C    1.390   128 H    0.971
                            97 C    0.106
   105   6 C    3.929 --    94 C    1.320   109 N    1.318   106 C    1.116
   106   6 C    3.967 --   107 C    1.725   105 C    1.116   129 H    0.973
   107   6 C    3.966 --   106 C    1.725   108 C    1.115   130 H    0.975
   108   6 C    3.927 --    66 C    1.367   109 N    1.299   107 C    1.115
   109   7 N    3.014 --   105 C    1.318   108 C    1.299
   110   1 H    1.001 --    66 C    0.970
   111   1 H    0.997 --    68 C    0.976
   112   1 H    1.003 --    69 C    0.974
   113   1 H    0.986 --    71 N    0.873
   114   1 H    1.003 --    74 C    0.971
   115   1 H    0.999 --    75 C    0.967
   116   1 H    0.854 --    79 O    0.828
   117   1 H    0.999 --    81 C    0.967
   118   1 H    1.003 --    82 C    0.971
   119   1 H    1.004 --    84 C    0.973
   120   1 H    1.002 --    85 C    0.974
   121   1 H    1.001 --    90 C    0.974
   122   1 H    1.003 --    91 C    0.974
   123   1 H    0.987 --    93 N    0.872
   124   1 H    1.003 --    96 C    0.971
   125   1 H    0.999 --    97 C    0.967
   126   1 H    0.854 --   101 O    0.828
   127   1 H    1.000 --   103 C    0.967
   128   1 H    1.003 --   104 C    0.971
   129   1 H    1.004 --   106 C    0.973
   130   1 H    0.998 --   107 C    0.975
   131   6 C    3.877 --   132 C    2.442    23 C    1.188   134 C    0.186
   132   6 C    3.933 --   131 C    2.442   133 C    1.342
   133   6 C    3.891 --   134 C    2.338   132 C    1.342   136 C    0.182
   134   6 C    3.924 --   133 C    2.338   135 C    1.367   131 C    0.186
   135   6 C    3.922 --   136 C    2.337   134 C    1.367   138 C    0.186
   136   6 C    3.892 --   135 C    2.337   137 C    1.343   133 C    0.182
   137   6 C    3.930 --   138 C    2.439   136 C    1.343
   138   6 C    3.877 --   137 C    2.439   147 C    1.192   135 C    0.186
   139   6 C    3.877 --   140 C    2.438   169 C    1.192   142 C    0.186
   140   6 C    3.930 --   139 C    2.438   141 C    1.343
   141   6 C    3.892 --   142 C    2.337   140 C    1.343   144 C    0.182
   142   6 C    3.922 --   141 C    2.337   143 C    1.367   139 C    0.186
   143   6 C    3.924 --   144 C    2.338   142 C    1.367   146 C    0.186
   144   6 C    3.891 --   143 C    2.338   145 C    1.342   141 C    0.182
   145   6 C    3.933 --   146 C    2.441   144 C    1.342
   146   6 C    3.876 --   145 C    2.441    88 C    1.189   143 C    0.186
   147   6 C    3.928 --   189 C    1.255   148 C    1.249   138 C    1.192
   148   6 C    3.884 --   149 C    1.252   147 C    1.249   152 N    1.188
   149   6 C    3.956 --   150 C    1.579   148 C    1.252   191 H    0.974
   150   6 C    3.955 --   149 C    1.579   151 C    1.244   192 H    0.974
   151   6 C    3.894 --   153 C    1.300   150 C    1.244   152 N    1.168
   152   7 N    3.472 --   148 C    1.188   151 C    1.168   193 H    0.873
   153   6 C    3.927 --   164 C    1.336   151 C    1.300   154 C    1.029
   154   6 C    3.986 --   163 C    1.391   155 C    1.391   153 C    1.029
   155   6 C    3.986 --   156 C    1.450   154 C    1.391   194 H    0.971
                           162 C    0.106
   156   6 C    3.989 --   155 C    1.450   157 C    1.407   195 H    0.967
                           163 C    0.106
   157   6 C    3.930 --   156 C    1.407   162 C    1.407   158 S    0.754
   158  16 S    5.265 --   161 O    1.724   159 O    1.716   160 O    1.012
                           157 C    0.754
   159   8 O    2.075 --   158 S    1.716   161 O    0.139
   160   8 O    2.087 --   158 S    1.012   196 H    0.828
   161   8 O    2.083 --   158 S    1.724   159 O    0.139
   162   6 C    3.989 --   163 C    1.450   157 C    1.407   197 H    0.967
                           155 C    0.106
   163   6 C    3.986 --   162 C    1.450   154 C    1.391   198 H    0.971
                           156 C    0.106
   164   6 C    3.916 --   153 C    1.336   167 N    1.286   165 C    1.123
   165   6 C    3.966 --   166 C    1.712   164 C    1.123   199 H    0.973
   166   6 C    3.964 --   165 C    1.712   168 C    1.127   200 H    0.974
   167   7 N    3.011 --   168 C    1.342   164 C    1.286
   168   6 C    3.907 --   167 N    1.342   169 C    1.255   166 C    1.127
   169   6 C    3.928 --   168 C    1.255   170 C    1.249   139 C    1.192
   170   6 C    3.884 --   171 C    1.252   169 C    1.249   174 N    1.188
   171   6 C    3.956 --   172 C    1.580   170 C    1.252   201 H    0.974
   172   6 C    3.955 --   171 C    1.580   173 C    1.244   202 H    0.974
   173   6 C    3.894 --   175 C    1.300   172 C    1.244   174 N    1.168
   174   7 N    3.472 --   170 C    1.188   173 C    1.168   203 H    0.874
   175   6 C    3.927 --   186 C    1.336   173 C    1.300   176 C    1.029
   176   6 C    3.986 --   185 C    1.391   177 C    1.391   175 C    1.029
   177   6 C    3.987 --   178 C    1.450   176 C    1.391   204 H    0.971
                           184 C    0.106
   178   6 C    3.989 --   177 C    1.450   179 C    1.407   205 H    0.967
                           185 C    0.106
   179   6 C    3.930 --   184 C    1.407   178 C    1.407   180 S    0.754
   180  16 S    5.266 --   181 O    1.724   183 O    1.715   182 O    1.014
                           179 C    0.754
   181   8 O    2.082 --   180 S    1.724   183 O    0.139
   182   8 O    2.088 --   180 S    1.014   206 H    0.827
   183   8 O    2.074 --   180 S    1.715   181 O    0.139
   184   6 C    3.989 --   185 C    1.450   179 C    1.407   207 H    0.967
                           177 C    0.106
   185   6 C    3.986 --   184 C    1.450   176 C    1.391   208 H    0.971
                           178 C    0.106
   186   6 C    3.917 --   175 C    1.336   190 N    1.286   187 C    1.123
   187   6 C    3.966 --   188 C    1.712   186 C    1.123   209 H    0.973
   188   6 C    3.964 --   187 C    1.712   189 C    1.128   210 H    0.974
   189   6 C    3.907 --   190 N    1.342   147 C    1.255   188 C    1.128
   190   7 N    3.011 --   189 C    1.342   186 C    1.286
   191   1 H    1.001 --   149 C    0.974
   192   1 H    1.003 --   150 C    0.974
   193   1 H    0.987 --   152 N    0.873
   194   1 H    1.003 --   155 C    0.971
   195   1 H    0.999 --   156 C    0.967
   196   1 H    0.854 --   160 O    0.828
   197   1 H    0.999 --   162 C    0.967
   198   1 H    1.003 --   163 C    0.971
   199   1 H    1.004 --   165 C    0.973
   200   1 H    1.002 --   166 C    0.974
   201   1 H    1.001 --   171 C    0.974
   202   1 H    1.003 --   172 C    0.974
   203   1 H    0.987 --   174 N    0.874
   204   1 H    1.003 --   177 C    0.971
   205   1 H    0.999 --   178 C    0.967
   206   1 H    0.854 --   182 O    0.827
   207   1 H    0.999 --   184 C    0.967
   208   1 H    1.003 --   185 C    0.971
   209   1 H    1.004 --   187 C    0.973
   210   1 H    1.002 --   188 C    0.974
 ---------------------------------------------------------------------------

           -------------------------------------------------
          | TOTAL ENERGY             -414.183183596863 Eh   |
          | GRADIENT NORM               0.000612890686 Eh/α |
          | HOMO-LUMO GAP               1.027455244178 eV   |
           -------------------------------------------------

 * finished run on 2022/07/30 at 20:33:29.906
