   * xtb version 6.5.1 (b24c23e) compiled by 'conda@728c89f4b128' on 2022-07-12
          program call               : xtb Zn_DHP_C2_3.xyz --gfn 1 --opt -T 48

   ID    Z sym.   atoms
    1   30 Zn     1, 59, 121
    2    6 C      2-6, 8-11, 13-17, 19-24, 26-29, 31-36, 60-64, 66-69, 71-75,
                  77-82, 84-87, 89-94, 117-120, 122-126, 128-131, 133-137,
                  139-144, 146-149, 151-156
    3    7 N      7, 12, 18, 25, 30, 37, 65, 70, 76, 83, 88, 95, 127, 132,
                  138, 145, 150, 157
    4    1 H      38-58, 96-116, 158-177
########################################################################
[WARNING] Please study the warnings concerning your input carefully
-1- prog_main_parseArguments: Unknown option '-T' provided
########################################################################

          :  Hamiltonian                  GFN1-xTB          :
 * total energy  :  -291.1031259 Eh     change       -0.3520825E-08 Eh
 * total energy  :  -291.2844956 Eh     change       -0.1813697E+00 Eh
 * total energy  :  -291.4370909 Eh     change       -0.1525953E+00 Eh
 * total energy  :  -291.4960610 Eh     change       -0.5897006E-01 Eh
 * total energy  :  -291.5406387 Eh     change       -0.4457769E-01 Eh
 * total energy  :  -291.5793712 Eh     change       -0.3873254E-01 Eh
 * total energy  :  -291.6074172 Eh     change       -0.2804597E-01 Eh
 * total energy  :  -291.6269344 Eh     change       -0.1951724E-01 Eh
 * total energy  :  -291.6422155 Eh     change       -0.1528106E-01 Eh
 * total energy  :  -291.6539018 Eh     change       -0.1168628E-01 Eh
 * total energy  :  -291.7581217 Eh     change       -0.9581224E-05 Eh
 * total energy  :  -291.7581306 Eh     change       -0.8929078E-05 Eh
 * total energy  :  -291.7581397 Eh     change       -0.9078959E-05 Eh
 * total energy  :  -291.7581495 Eh     change       -0.9851445E-05 Eh
 * total energy  :  -291.7581607 Eh     change       -0.1118845E-04 Eh
 * total energy  :  -291.7581738 Eh     change       -0.1310668E-04 Eh
 * total energy  :  -291.7581879 Eh     change       -0.1405396E-04 Eh
 * total energy  :  -291.7582020 Eh     change       -0.1409545E-04 Eh
 * total energy  :  -291.7582050 Eh     change       -0.2981428E-05 Eh
   *** GEOMETRY OPTIMIZATION CONVERGED AFTER 152 ITERATIONS ***

 final structure:
================
177
 xtb: 6.5.1 (b24c23e)
Zn          30.38115828359819        0.42298485133321        0.31040753629743
C           26.97128308225346        0.36935658760566        0.23467423054874
C           27.60856049264303       -0.86467680937204        0.29020179033985
C           26.94152041768006       -2.13521315583590        0.34410170228620
C           27.90590329202462       -3.08810988686048        0.39568325148385
C           29.17567767353174       -2.41173553615917        0.36391879826555
N           28.95883157085439       -1.06510010743017        0.30823837660698
C           30.42955122291282       -3.03220147805801        0.41119848275587
C           30.45633908666646       -4.51634546028138        0.43377177703341
C           29.96626946757445       -5.24451079441997       -0.58037242405385
C           29.96746187644650       -6.75120218589806       -0.57042819239305
N           30.88922658044520       -7.27414368010572        0.44194378025095
C           31.20473949609213       -6.52461078231531        1.54707737024143
C           31.04898306011501       -5.18976410653423        1.58114055824387
C           31.66380149070259       -2.37213445389726        0.43473149989402
C           32.94739642411763       -3.01692669741054        0.44531398648545
C           33.88792688630779       -2.03797354427880        0.43943235987665
N           31.84925427828411       -1.01569752436108        0.41479156566040
C           33.19073280091789       -0.78566431943223        0.41803886662131
C           33.81260277447047        0.47688247051046        0.37852569500182
C           33.15412988847632        1.71964529838138        0.31655331001078
C           33.81213632011604        2.99314348970553        0.32383604910938
C           32.84227554316045        3.94224401737706        0.28271182582039
C           31.58008851569965        3.25755905074520        0.24158938407124
N           31.80700500326195        1.90757388498059        0.26753037536313
C           30.32561329824179        3.87809158826273        0.21464586078363
C           30.30530086523820        5.36251483874047        0.19814285883515
C           29.75323371533659        6.06911012523005        1.19552940805545
C           29.70540065696835        7.57509047930520        1.19015624521831
N           30.65494761687432        8.13118128868483        0.22220402325035
C           31.03468732601140        7.39936165098274       -0.87478495465480
C           30.91985515645599        6.06077847681098       -0.92254162965160
C           29.09117085447274        3.21820837191611        0.20611093024768
C           27.80347935340388        3.85468331811017        0.11917637751712
C           26.86812489722800        2.87195280237580        0.12574597564749
C           27.57158463476583        1.62272854912272        0.20764360935580
N           28.91439471139136        1.86529367141311        0.24998096455777
H           25.88591258846238        0.35243823755966        0.21043034699843
H           25.87088005390941       -2.26913935938072        0.34991453467428
H           27.77361010704490       -4.15622561171579        0.46215080089563
H           29.52634417924877       -4.78070349115716       -1.45563753965939
H           30.28564398162111       -7.13576124586950       -1.54888873143563
H           28.94539904327335       -7.13296820293826       -0.38662519558806
H           30.80546756021057       -8.26951335236199        0.59089712796218
H           31.66811500428555       -7.08102697731861        2.35568516238255
H           31.35106273121252       -4.60897991947602        2.44117626538959
H           33.10702938135633       -4.08323709862454        0.44745746756164
H           34.96074414596953       -2.14821348841528        0.43867354725723
H           34.88020389545732        3.13652998547696        0.36684228734457
H           32.96812660836820        5.01307034310464        0.28801039801344
H           29.29523194669764        5.58678501326123        2.05128031491033
H           29.96629256329420        7.96576407661008        2.18291515376520
H           28.68078488156920        7.92423451387675        0.96090676438697
H           30.54962157783074        9.12502659198749        0.07657373320394
H           31.51254745837477        7.97478022457664       -1.66135594405937
H           31.27153679993090        5.49491094816594       -1.77362024584555
H           27.64100107107793        4.91838639963152        0.04891011931370
H           25.79513490047118        2.97230925337285        0.07224636579637
Zn          52.19649745382066        0.37902493384893        0.32947453087029
C           55.60518344160431        0.30252223061403        0.27077730758003
C           55.01462023616283        1.56048172251079        0.30153404508937
C           55.72854952341518        2.80573985130969        0.34509703646980
C           54.80049317275247        3.79523152538089        0.36237672676357
C           53.50660721323658        3.16709119052748        0.31620943003683
N           53.67290994728754        1.81216592649660        0.29250660093671
C           52.27643330583555        3.83470592182071        0.31072609864356
C           52.30257446216883        5.31902475963958        0.32060111162849
C           52.85004986806844        6.02640832303818       -0.67855364334418
C           52.90402443955951        7.53236291646995       -0.66830452920063
N           51.96631116584037        8.09017964086316        0.31025104009497
C           51.58978932320402        7.35560026221424        1.40646988853015
C           51.69817745113163        6.01641366986670        1.44764344517149
C           51.01800269462832        3.22133626458007        0.30527042846614
C           49.76018664162836        3.91302570657041        0.24905630850120
C           48.78328390093245        2.97024446147706        0.26011259802401
N           50.78174081234737        1.87335233270224        0.33493184683638
C           49.43265320832146        1.69354401811097        0.31730448788574
C           48.76534270023058        0.45599042197488        0.38452775086000
C           49.37868611468772       -0.81033982019369        0.43302615558707
C           48.67494494597727       -2.05649177307316        0.51563938073939
C           49.60839159758948       -3.04223043117697        0.49952164744950
C           50.89343303658179       -2.40802576258917        0.39956966037281
N           50.71700599126803       -1.05076028003083        0.37244495648668
C           52.12231045042667       -3.07715976498454        0.35496465797367
C           52.08359090085899       -4.56112713095683        0.35736206012092
C           52.64018561363246       -5.28214263070732        1.34176099432054
C           52.63096422614559       -6.78892553253567        1.34650892836990
N           51.63696821498714       -7.31685152239286        0.40766442226756
C           51.24717460778564       -6.57597995129508       -0.67962028424482
C           51.40668643774755       -5.24251828431056       -0.73771950771986
C           53.38012955976161       -2.46507307783696        0.30346347335744
C           54.64215380271132       -3.15059127149338        0.21275225761381
C           55.61363506086010       -2.20369547967854        0.19531009279978
C           54.95816898272090       -0.92771631891172        0.26169319533001
N           53.60765766046000       -1.11900356564295        0.31804380516825
H           56.69052348892504        0.27816602205051        0.25230490936266
H           56.80325299111320        2.89910524273845        0.36831822394260
H           54.97239126815388        4.85862030062182        0.41177026016601
H           53.30020188494648        5.54554587491771       -1.53924638134730
H           52.63569411987736        7.92758524661339       -1.65730858907787
H           53.93224901505826        7.87620335984553       -0.44748263311870
H           52.07987716038733        9.08247828112134        0.46016755479315
H           51.12016973951128        7.92996370070161        2.19874443724552
H           51.34822154355344        5.44856718268391        2.29813962787277
H           49.64215027138428        4.98369511644576        0.20086900702386
H           47.71549450902196        3.11955723525774        0.23162287950713
H           47.60307361088730       -2.15795211933645        0.57883526978497
H           49.44378366397709       -4.10632141569350        0.55602462721153
H           53.14400718602164       -4.81265528159326        2.17867852565213
H           52.38190771618171       -7.16282502471337        2.34882629332846
H           53.63558495812070       -7.17754133637444        1.09375478144524
H           51.70704570927189       -8.31375490163272        0.26174004807907
H           50.72466070732450       -7.13740285620043       -1.44770134156208
H           51.04644604903191       -4.66823456598978       -1.57955972976998
H           54.76447117916948       -4.22057225570272        0.15845168426344
H           56.68155977435525       -2.34527512820626        0.13427470911536
C           35.22347372358972        0.49683928292806        0.40059196669188
C           36.43964788266056        0.50838961825945        0.41565024123261
C           46.13847815884169        0.50445412522395        0.41933274048955
C           47.35453017285960        0.48562486287379        0.40448220993210
Zn          41.28949837199684        0.52615775775426        0.43989189840599
C           37.85030892331523        0.51812180362941        0.42766065095327
C           38.49235220869285        1.49435273047999       -0.35826426777794
C           37.81641228023999        2.48058630789416       -1.14830004607437
C           38.77312028496901        3.20900080977116       -1.77915984490330
C           40.04434461007811        2.66840002342927       -1.38645592095068
N           39.83692499627961        1.63424932251477       -0.51329761925216
C           41.29000213980451        3.13557248615684       -1.81877985571802
C           41.29488659633664        4.23151332765561       -2.82065450902615
C           40.77301726657157        4.06086870377182       -4.04454440664279
C           40.81663824426257        5.13399236352110       -5.10036648191201
N           41.11248188101423        6.44331550272665       -4.51288627505878
C           41.78720132419506        6.54024467513200       -3.32321236522604
C           41.88199779813304        5.51369290488369       -2.45992478092236
C           42.53544663451381        2.65212902302120       -1.40280030935518
C           43.80674967858277        3.11427720912588       -1.88477076316575
C           44.76330676845098        2.38738364357894       -1.25180219780313
N           42.74225926257675        1.64663200745492       -0.49691011134406
C           44.08668116925737        1.46824378581208       -0.38501141522997
C           44.72767634215901        0.51718027216178        0.43123448525572
C           44.08586802340800       -0.42688265430505        1.25542331612871
C           44.76281914010413       -1.34637667424310        2.12117773120274
C           43.80657257061002       -2.06692747682275        2.76178103155143
C           42.53448268349131       -1.60282972350060        2.28335588166757
N           42.74129893210593       -0.59820193986868        1.37597659610169
C           41.28790005311181       -2.08781372057427        2.69409491551109
C           41.27813127293623       -3.19512535491408        3.68331605763365
C           41.80671640265452       -4.39676027920431        3.40990266535555
C           41.82295730333087       -5.52096547745652        4.41315904012075
N           40.87936101022259       -5.27111669583161        5.50650606383837
C           40.52052659380434       -3.98835384715784        5.83524998983756
C           40.65838457087910       -2.96017205694896        4.98037835554994
C           40.04352290865977       -1.61608295377107        2.26135178876938
C           38.77234916138432       -2.15933128993449        2.65018979637384
C           37.81614067258159       -1.43853695807667        2.01025875490899
C           38.49239297687408       -0.45168724258160        1.22085636104799
N           39.83680242171756       -0.58437620511345        1.38554163414775
H           36.74592707878040        2.59782426234657       -1.20713547731574
H           38.63315025209009        4.04547300893289       -2.44482811705524
H           40.35592451439874        3.11093166357471       -4.35836025962140
H           41.57177607974734        4.88319246691524       -5.86922909522611
H           39.84613116879939        5.20204471082565       -5.61074278864372
H           41.30422601414013        7.16289205213971       -5.19481543157238
H           42.16433194103067        7.53240294831389       -3.09612009921553
H           42.35036813541836        5.63300829818746       -1.49322863524083
H           43.94800013707111        3.88877911995513       -2.62169183332811
H           45.83364843168543        2.45538574283964       -1.36578113216543
H           45.83327193821577       -1.41764847896342        2.23177544893188
H           43.94931155794272       -2.83715130611597        3.50251415010767
H           42.26826557006653       -4.61354475210589        2.45355879246591
H           42.84389290415269       -5.65737233762423        4.81699863845022
H           41.53752298733286       -6.46460786421211        3.92880838882390
H           40.97152747819114       -5.91697317681574        6.27741248150778
H           40.03979253799055       -3.88507818216625        6.80292258501851
H           40.32179827669312       -1.96544691218984        5.23623974736901
H           38.63173881177013       -2.99088177439217        3.32197081966243
H           36.74584496302511       -1.55954477641637        2.06426688353049

          :  Hamiltonian                  GFN1-xTB          :
         :: total energy            -291.758204965970 Eh    ::
         :: gradient norm              0.000287001573 Eh/a0 ::
         :: HOMO-LUMO gap              0.925710026238 eV    ::
         :: SCC energy              -296.221546188215 Eh    ::
         :: repulsion energy           4.623879996305 Eh    ::

    * Orbital Energies and Occupations

         #    Occupation            Energy/Eh            Energy/eV
      -------------------------------------------------------------
         1        2.0000           -0.7761434             -21.1199
       ...           ...                  ...                  ...
       255        2.0000           -0.4061699             -11.0524
       256        2.0000           -0.3819051             -10.3922
       257        2.0000           -0.3814947             -10.3810
       258        2.0000           -0.3814210             -10.3790
       259        2.0000           -0.3793051             -10.3214
       260        2.0000           -0.3728046             -10.1445
       261        2.0000           -0.3676453             -10.0041
       262        2.0000           -0.3664066              -9.9704
       263        2.0000           -0.3659760              -9.9587
       264        2.0000           -0.3657546              -9.9527
       265        2.0000           -0.3650427              -9.9333
       266        2.0000           -0.3644008              -9.9158
       267        2.0000           -0.3602040              -9.8016 (HOMO)
       268                         -0.3261847              -8.8759 (LUMO)
       269                         -0.3163874              -8.6093
       270                         -0.3140400              -8.5455
       271                         -0.3135224              -8.5314
       272                         -0.3133096              -8.5256
       273                         -0.3072558              -8.3609
       274                         -0.2848637              -7.7515
       275                         -0.2789230              -7.5899
       276                         -0.2753097              -7.4916
       277                         -0.2604766              -7.0879
       278                         -0.2600651              -7.0767
       ...                                ...                  ...
       584                          1.3551525              36.8756
      -------------------------------------------------------------
                  HL-Gap            0.0340192 Eh            0.9257 eV

Wiberg/Mayer (AO) data.
largest (>0.10) Wiberg bond orders for each atom

     #   Z sym  total        # sym  WBO       # sym  WBO       # sym  WBO
 ---------------------------------------------------------------------------
     1  30 Zn   2.002 --    37 N    0.460     7 N    0.460    18 N    0.458
                            25 N    0.458
     2   6 C    3.927 --    36 C    1.356     3 C    1.356    38 H    0.972
     3   6 C    3.925 --     2 C    1.356     7 N    1.234     4 C    1.172
     4   6 C    3.961 --     5 C    1.657     3 C    1.172    39 H    0.976
     5   6 C    3.964 --     4 C    1.657     6 C    1.173    40 H    0.974
     6   6 C    3.919 --     8 C    1.317     7 N    1.242     5 C    1.173
     7   7 N    3.293 --     6 C    1.242     3 C    1.234     1 Zn   0.460
     8   6 C    3.935 --    15 C    1.320     6 C    1.317     9 C    1.025
     9   6 C    3.988 --    10 C    1.769    14 C    1.097     8 C    1.025
    10   6 C    3.971 --     9 C    1.769    11 C    1.012    41 H    0.972
    11   6 C    3.961 --    10 C    1.012    42 H    0.976    43 H    0.967
                            12 N    0.949
    12   7 N    3.244 --    13 C    1.157    11 C    0.949    44 H    0.929
                            14 C    0.126
    13   6 C    3.958 --    14 C    1.695    12 N    1.157    45 H    0.971
    14   6 C    3.969 --    13 C    1.695     9 C    1.097    46 H    0.974
                            12 N    0.126
    15   6 C    3.913 --     8 C    1.320    18 N    1.228    16 C    1.181
    16   6 C    3.961 --    17 C    1.645    15 C    1.181    47 H    0.973
    17   6 C    3.963 --    16 C    1.645    19 C    1.186    48 H    0.972
    18   7 N    3.298 --    19 C    1.258    15 C    1.228     1 Zn   0.458
    19   6 C    3.909 --    20 C    1.263    18 N    1.258    17 C    1.186
    20   6 C    3.938 --    21 C    1.263    19 C    1.263   117 C    1.170
    21   6 C    3.909 --    20 C    1.263    25 N    1.258    22 C    1.186
    22   6 C    3.963 --    23 C    1.645    21 C    1.186    49 H    0.973
    23   6 C    3.961 --    22 C    1.645    24 C    1.181    50 H    0.973
    24   6 C    3.913 --    26 C    1.320    25 N    1.228    23 C    1.181
    25   7 N    3.298 --    21 C    1.258    24 C    1.228     1 Zn   0.458
    26   6 C    3.935 --    24 C    1.320    33 C    1.317    27 C    1.025
    27   6 C    3.988 --    28 C    1.770    32 C    1.097    26 C    1.025
    28   6 C    3.971 --    27 C    1.770    29 C    1.012    51 H    0.972
    29   6 C    3.961 --    28 C    1.012    52 H    0.976    53 H    0.967
                            30 N    0.949
    30   7 N    3.244 --    31 C    1.157    29 C    0.949    54 H    0.929
                            32 C    0.126
    31   6 C    3.958 --    32 C    1.696    30 N    1.157    55 H    0.971
    32   6 C    3.969 --    31 C    1.696    27 C    1.097    56 H    0.974
                            30 N    0.126
    33   6 C    3.919 --    26 C    1.317    37 N    1.241    34 C    1.173
    34   6 C    3.964 --    35 C    1.657    33 C    1.173    57 H    0.974
    35   6 C    3.961 --    34 C    1.657    36 C    1.172    58 H    0.976
    36   6 C    3.925 --     2 C    1.356    37 N    1.234    35 C    1.172
    37   7 N    3.293 --    33 C    1.241    36 C    1.234     1 Zn   0.460
    38   1 H    1.002 --     2 C    0.972
    39   1 H    0.999 --     4 C    0.976
    40   1 H    1.007 --     5 C    0.974
    41   1 H    1.004 --    10 C    0.972
    42   1 H    1.019 --    11 C    0.976
    43   1 H    1.008 --    11 C    0.967
    44   1 H    0.965 --    12 N    0.929
    45   1 H    1.002 --    13 C    0.971
    46   1 H    1.004 --    14 C    0.974
    47   1 H    1.006 --    16 C    0.973
    48   1 H    1.004 --    17 C    0.972
    49   1 H    1.004 --    22 C    0.973
    50   1 H    1.006 --    23 C    0.973
    51   1 H    1.004 --    28 C    0.972
    52   1 H    1.019 --    29 C    0.976
    53   1 H    1.008 --    29 C    0.967
    54   1 H    0.965 --    30 N    0.929
    55   1 H    1.002 --    31 C    0.971
    56   1 H    1.004 --    32 C    0.974
    57   1 H    1.007 --    34 C    0.974
    58   1 H    0.999 --    35 C    0.976
    59  30 Zn   2.002 --    65 N    0.460    95 N    0.460    76 N    0.458
                            83 N    0.458
    60   6 C    3.927 --    61 C    1.356    94 C    1.356    96 H    0.972
    61   6 C    3.924 --    60 C    1.356    65 N    1.234    62 C    1.172
    62   6 C    3.961 --    63 C    1.657    61 C    1.172    97 H    0.976
    63   6 C    3.964 --    62 C    1.657    64 C    1.173    98 H    0.974
    64   6 C    3.919 --    66 C    1.318    65 N    1.241    63 C    1.173
    65   7 N    3.293 --    64 C    1.241    61 C    1.234    59 Zn   0.460
    66   6 C    3.935 --    73 C    1.319    64 C    1.318    67 C    1.025
    67   6 C    3.988 --    68 C    1.770    72 C    1.096    66 C    1.025
    68   6 C    3.971 --    67 C    1.770    69 C    1.012    99 H    0.972
    69   6 C    3.962 --    68 C    1.012   100 H    0.976   101 H    0.967
                            70 N    0.949
    70   7 N    3.243 --    71 C    1.157    69 C    0.949   102 H    0.929
                            72 C    0.126
    71   6 C    3.958 --    72 C    1.696    70 N    1.157   103 H    0.971
    72   6 C    3.969 --    71 C    1.696    67 C    1.096   104 H    0.974
                            70 N    0.126
    73   6 C    3.913 --    66 C    1.319    76 N    1.228    74 C    1.181
    74   6 C    3.961 --    75 C    1.645    73 C    1.181   105 H    0.973
    75   6 C    3.963 --    74 C    1.645    77 C    1.186   106 H    0.973
    76   7 N    3.298 --    77 C    1.257    73 C    1.228    59 Zn   0.458
    77   6 C    3.909 --    78 C    1.264    76 N    1.257    75 C    1.186
    78   6 C    3.938 --    77 C    1.264    79 C    1.263   120 C    1.169
    79   6 C    3.909 --    78 C    1.263    83 N    1.258    80 C    1.186
    80   6 C    3.963 --    81 C    1.645    79 C    1.186   107 H    0.973
    81   6 C    3.961 --    80 C    1.645    82 C    1.181   108 H    0.973
    82   6 C    3.913 --    84 C    1.319    83 N    1.228    81 C    1.181
    83   7 N    3.298 --    79 C    1.258    82 C    1.228    59 Zn   0.458
    84   6 C    3.935 --    82 C    1.319    91 C    1.317    85 C    1.025
    85   6 C    3.988 --    86 C    1.769    90 C    1.097    84 C    1.025
    86   6 C    3.971 --    85 C    1.769    87 C    1.012   109 H    0.972
    87   6 C    3.961 --    86 C    1.012   110 H    0.976   111 H    0.967
                            88 N    0.949
    88   7 N    3.243 --    89 C    1.157    87 C    0.949   112 H    0.929
                            90 C    0.126
    89   6 C    3.958 --    90 C    1.696    88 N    1.157   113 H    0.971
    90   6 C    3.969 --    89 C    1.696    85 C    1.097   114 H    0.974
                            88 N    0.126
    91   6 C    3.919 --    84 C    1.317    95 N    1.241    92 C    1.173
    92   6 C    3.964 --    93 C    1.657    91 C    1.173   115 H    0.974
    93   6 C    3.961 --    92 C    1.657    94 C    1.172   116 H    0.976
    94   6 C    3.924 --    60 C    1.356    95 N    1.234    93 C    1.172
    95   7 N    3.293 --    91 C    1.241    94 C    1.234    59 Zn   0.460
    96   1 H    1.002 --    60 C    0.972
    97   1 H    0.999 --    62 C    0.976
    98   1 H    1.007 --    63 C    0.974
    99   1 H    1.004 --    68 C    0.972
   100   1 H    1.019 --    69 C    0.976
   101   1 H    1.008 --    69 C    0.967
   102   1 H    0.965 --    70 N    0.929
   103   1 H    1.002 --    71 C    0.971
   104   1 H    1.003 --    72 C    0.974
   105   1 H    1.006 --    74 C    0.973
   106   1 H    1.004 --    75 C    0.973
   107   1 H    1.004 --    80 C    0.973
   108   1 H    1.006 --    81 C    0.973
   109   1 H    1.004 --    86 C    0.972
   110   1 H    1.019 --    87 C    0.976
   111   1 H    1.008 --    87 C    0.967
   112   1 H    0.965 --    88 N    0.929
   113   1 H    1.002 --    89 C    0.971
   114   1 H    1.004 --    90 C    0.974
   115   1 H    1.007 --    92 C    0.974
   116   1 H    0.999 --    93 C    0.976
   117   6 C    3.929 --   118 C    2.580    20 C    1.170
   118   6 C    3.932 --   117 C    2.580   122 C    1.171
   119   6 C    3.931 --   120 C    2.581   140 C    1.170
   120   6 C    3.929 --   119 C    2.581    78 C    1.169
   121  30 Zn   1.999 --   157 N    0.459   138 N    0.458   127 N    0.457
                           145 N    0.457
   122   6 C    3.927 --   156 C    1.262   123 C    1.260   118 C    1.171
   123   6 C    3.912 --   122 C    1.260   127 N    1.260   124 C    1.188
   124   6 C    3.962 --   125 C    1.643   123 C    1.188   158 H    0.973
   125   6 C    3.962 --   124 C    1.643   126 C    1.182   159 H    0.974
   126   6 C    3.913 --   128 C    1.320   127 N    1.225   125 C    1.182
   127   7 N    3.292 --   123 C    1.260   126 C    1.225   121 Zn   0.457
   128   6 C    3.930 --   126 C    1.320   135 C    1.318   129 C    1.023
   129   6 C    3.988 --   130 C    1.768   134 C    1.099   128 C    1.023
   130   6 C    3.971 --   129 C    1.768   131 C    1.013   160 H    0.972
   131   6 C    3.961 --   130 C    1.013   162 H    0.975   161 H    0.967
                           132 N    0.949
   132   7 N    3.248 --   133 C    1.160   131 C    0.949   163 H    0.928
                           134 C    0.127
   133   6 C    3.958 --   134 C    1.692   132 N    1.160   164 H    0.971
   134   6 C    3.968 --   133 C    1.692   129 C    1.099   165 H    0.973
                           132 N    0.127
   135   6 C    3.912 --   128 C    1.318   138 N    1.226   136 C    1.183
   136   6 C    3.962 --   137 C    1.642   135 C    1.183   166 H    0.973
   137   6 C    3.961 --   136 C    1.642   139 C    1.188   167 H    0.973
   138   7 N    3.292 --   139 C    1.259   135 C    1.226   121 Zn   0.458
   139   6 C    3.910 --   140 C    1.261   138 N    1.259   137 C    1.188
   140   6 C    3.927 --   139 C    1.261   141 C    1.260   119 C    1.170
   141   6 C    3.912 --   140 C    1.260   145 N    1.259   142 C    1.188
   142   6 C    3.961 --   143 C    1.642   141 C    1.188   168 H    0.973
   143   6 C    3.961 --   142 C    1.642   144 C    1.182   169 H    0.974
   144   6 C    3.913 --   146 C    1.319   145 N    1.226   143 C    1.182
   145   7 N    3.292 --   141 C    1.259   144 C    1.226   121 Zn   0.457
   146   6 C    3.930 --   144 C    1.319   153 C    1.319   147 C    1.024
   147   6 C    3.988 --   148 C    1.770   152 C    1.096   146 C    1.024
   148   6 C    3.972 --   147 C    1.770   149 C    1.012   170 H    0.972
   149   6 C    3.961 --   148 C    1.012   172 H    0.976   171 H    0.967
                           150 N    0.949
   150   7 N    3.244 --   151 C    1.157   149 C    0.949   173 H    0.929
                           152 C    0.126
   151   6 C    3.958 --   152 C    1.695   150 N    1.157   174 H    0.971
   152   6 C    3.968 --   151 C    1.695   147 C    1.096   175 H    0.974
                           150 N    0.126
   153   6 C    3.911 --   146 C    1.319   157 N    1.226   154 C    1.182
   154   6 C    3.962 --   155 C    1.643   153 C    1.182   176 H    0.973
   155   6 C    3.961 --   154 C    1.643   156 C    1.187   177 H    0.972
   156   6 C    3.910 --   122 C    1.262   157 N    1.258   155 C    1.187
   157   7 N    3.293 --   156 C    1.258   153 C    1.226   121 Zn   0.459
   158   1 H    1.004 --   124 C    0.973
   159   1 H    1.008 --   125 C    0.974
   160   1 H    1.003 --   130 C    0.972
   161   1 H    1.009 --   131 C    0.967
   162   1 H    1.018 --   131 C    0.975
   163   1 H    0.964 --   132 N    0.928
   164   1 H    1.002 --   133 C    0.971
   165   1 H    1.004 --   134 C    0.973
   166   1 H    1.006 --   136 C    0.973
   167   1 H    1.004 --   137 C    0.973
   168   1 H    1.004 --   142 C    0.973
   169   1 H    1.007 --   143 C    0.974
   170   1 H    1.004 --   148 C    0.972
   171   1 H    1.008 --   149 C    0.967
   172   1 H    1.019 --   149 C    0.976
   173   1 H    0.965 --   150 N    0.929
   174   1 H    1.002 --   151 C    0.971
   175   1 H    1.003 --   152 C    0.974
   176   1 H    1.006 --   154 C    0.973
   177   1 H    1.004 --   155 C    0.972
 ---------------------------------------------------------------------------

           -------------------------------------------------
          | TOTAL ENERGY             -291.758204965970 Eh   |
          | GRADIENT NORM               0.000287001573 Eh/α |
          | HOMO-LUMO GAP               0.925710026238 eV   |
           -------------------------------------------------

 * finished run on 2022/07/30 at 07:44:50.240
