   * xtb version 6.5.1 (b24c23e) compiled by 'conda@728c89f4b128' on 2022-07-12
          program call               : xtb Fe_Py_C4_2.xyz --gfn 1 --opt -T 48

   ID    Z sym.   atoms
    1   26 Fe     1, 55
    2    6 C      2-6, 8-11, 13-17, 19-24, 26-29, 31-36, 56-60, 62-65, 67-71,
                  73-78, 80-83, 85-90, 109-112
    3    7 N      7, 12, 18, 25, 30, 37, 61, 66, 72, 79, 84, 91
    4    1 H      38-54, 92-108
########################################################################
[WARNING] Please study the warnings concerning your input carefully
-1- prog_main_parseArguments: Unknown option '-T' provided
########################################################################

          :  Hamiltonian                  GFN1-xTB          :
 * total energy  :  -197.5264162 Eh     change       -0.6927593E-08 Eh
 * total energy  :  -197.6490154 Eh     change       -0.1225992E+00 Eh
 * total energy  :  -197.6900397 Eh     change       -0.4102431E-01 Eh
 * total energy  :  -197.7150466 Eh     change       -0.2500692E-01 Eh
 * total energy  :  -197.7286266 Eh     change       -0.1357997E-01 Eh
 * total energy  :  -197.7404056 Eh     change       -0.1177905E-01 Eh
 * total energy  :  -197.7478994 Eh     change       -0.7493708E-02 Eh
 * total energy  :  -197.7522453 Eh     change       -0.4345926E-02 Eh
 * total energy  :  -197.7562735 Eh     change       -0.4028263E-02 Eh
 * total energy  :  -197.7577353 Eh     change       -0.1461805E-02 Eh
 * total energy  :  -197.7657827 Eh     change       -0.5818764E-05 Eh
 * total energy  :  -197.7657885 Eh     change       -0.5842220E-05 Eh
 * total energy  :  -197.7657951 Eh     change       -0.6549883E-05 Eh
 * total energy  :  -197.7658026 Eh     change       -0.7523121E-05 Eh
 * total energy  :  -197.7658110 Eh     change       -0.8384346E-05 Eh
 * total energy  :  -197.7658197 Eh     change       -0.8764981E-05 Eh
 * total energy  :  -197.7658290 Eh     change       -0.9260558E-05 Eh
 * total energy  :  -197.7658389 Eh     change       -0.9920150E-05 Eh
 * total energy  :  -197.7658412 Eh     change       -0.2313504E-05 Eh
   *** GEOMETRY OPTIMIZATION CONVERGED AFTER 44 ITERATIONS ***

 final structure:
================
112
 xtb: 6.5.1 (b24c23e)
Fe          12.38525060464092       -0.05449431482311       -0.05618409771861
C            8.99501588410627       -0.07410495987400       -0.09290323120014
C            9.64611106733368       -1.29024577901358       -0.07697794805572
C            8.96702104009654       -2.55084833162744       -0.07914766090326
C            9.91890001048036       -3.50407950618410        0.05323371048794
C           11.17989451345812       -2.82382612589425        0.12351350992413
N           10.99999672783939       -1.47018479178171        0.03304609381010
C           12.39531846984073       -3.46227722275904        0.34348242235013
C           12.40044347163066       -4.93510752082764        0.51100158644332
C           12.75140070577811       -5.52137709189453        1.72588266874732
C           12.73990081050652       -6.90303903585648        1.83611918007035
N           12.41329708200845       -7.70698674422847        0.82950091395265
C           12.08084879132809       -7.15524395511659       -0.33295818174528
C           12.05663384240982       -5.78472842300904       -0.53909261635073
C           13.60538328221796       -2.78684942031623        0.40303728045283
C           14.87131087257806       -3.43601875466873        0.57322283797350
C           15.82085773929409       -2.47747215338273        0.45423453957508
N           13.78341662529415       -1.43796824996882        0.20397981797023
C           15.13317290707327       -1.24784168292723        0.21250861118678
C           15.79481092341617       -0.03732940443867       -0.02743878921950
C           15.12059431351886        1.17058143547652       -0.24500644091198
C           15.79382628765065        2.40359648155767       -0.50816442169549
C           14.83762581689451        3.36090654176092       -0.57529528967966
C           13.58297619820648        2.70789292556639       -0.34773206398222
N           13.77216518648877        1.35776965851963       -0.17360613770659
C           12.36428957611920        3.36976006685350       -0.29361584437535
C           12.35521830932211        4.84512548494906       -0.41900747388037
C           11.70014378469428        5.47672654763669       -1.47565337281955
C           11.72239263724878        6.86019452455635       -1.55379889495658
N           12.33951615178885        7.62616860053777       -0.65994413729578
C           12.96497192414013        7.03207037680117        0.35110911667462
C           13.00319749371272        5.65593015407601        0.51195340745845
C           11.15031782318438        2.70755689036964       -0.14598115782049
C            9.88037314237449        3.37029667992719       -0.06822566898138
C            8.93581802680189        2.40155771524235       -0.02694090599652
C            9.63029232870988        1.15001307167902       -0.06241083053013
N           10.98563888517268        1.34955689495933       -0.09816043175071
H            7.91110185973928       -0.08081361411638       -0.11798686680472
H            7.89820842437115       -2.66984431818769       -0.15939296035714
H            9.79057430885383       -4.57273660070150        0.11039789610829
H           13.01599751047782       -4.90369737193933        2.57573394367067
H           13.00465527526928       -7.38395482190498        2.77320674563373
H           11.82196687918888       -7.83857184526585       -1.13644138339071
H           11.78898218020787       -5.37878759677346       -1.50727241227452
H           15.00593838432179       -4.49194608503605        0.74169435266170
H           16.89244034712720       -2.57964808290711        0.51347793692876
H           16.86050966143956        2.50768854220235       -0.62448724088504
H           14.96009666781272        4.41362387025893       -0.77088507806287
H           11.19468848680384        4.89150497076743       -2.23453682669599
H           11.22316515613918        7.37464449342384       -2.36966102103840
H           13.45823388778494        7.68481218163468        1.06534197396325
H           13.51634600607347        5.21561697003780        1.35851058930577
H            9.74243688633555        4.43902966287574       -0.04558134184626
H            7.86368593690765        2.50489324770267        0.02569728421068
Fe          25.80054145225889        0.03653115533943       -0.06916092166385
C           29.19097914161737        0.04465249593733       -0.10788875731038
C           28.54002872340909        1.21336995956591       -0.44481602942076
C           29.21947064415306        2.41913457996913       -0.81191758725945
C           28.26766024815776        3.36955532734264       -0.96347059892012
C           27.00639493619375        2.73881420822607       -0.70046464159130
N           27.18605901601998        1.41733123342970       -0.39326330270051
C           25.79077234840335        3.41334822021489       -0.67834454164181
C           25.78589662401843        4.87112298725685       -0.94698936398630
C           25.43254028625930        5.78549420483541        0.04391863842878
C           25.44483130324609        7.13946205437306       -0.25252341491032
N           25.77427833511326        7.61576330804926       -1.44871893366943
C           26.10885359826929        6.74967834589473       -2.39961356684992
C           26.13259742899640        5.37847212493007       -2.19804764942545
C           24.58035377662806        2.78435181039400       -0.42679560596564
C           23.31439164318222        3.45474582764107       -0.45590619979011
C           22.36476797241667        2.50328995431545       -0.28990177068623
N           24.40229164768376        1.43626462154254       -0.22262436097016
C           23.05247551418006        1.25690254048690       -0.15993396448948
C           22.39082368976082        0.02922669910255       -0.03475008972514
C           23.06494846897732       -1.18961434459761        0.10992734996607
C           22.39138900822031       -2.44556765199855        0.21799587547678
C           23.34754129994855       -3.38135432882937        0.43086682509785
C           24.60247635249240       -2.69084558268428        0.45677225405160
N           24.41347796296489       -1.34832846064360        0.23116381847013
C           25.82126301734603       -3.30921561770729        0.69838028432728
C           25.82993298806321       -4.75747931192007        1.00661200040409
C           26.48233875105158       -5.66929039687573        0.17747093491382
C           26.45971263751208       -7.01579615692581        0.50461496130554
N           25.84474801241529       -7.48859132579256        1.58387447971650
C           25.22185473577510       -6.62591615947010        2.38022464971567
C           25.18414337060287       -5.26237548764793        2.13444806810831
C           27.03554078969091       -2.63341263919693        0.64556246769018
C           28.30556195197313       -3.24595040743096        0.90991997796708
C           29.25015890039200       -2.30678777976319        0.66904128521101
C           28.55563742949381       -1.11855133629493        0.27449819181298
N           27.20026607664498       -1.31956626892958        0.29877744469386
H           30.27490386066721        0.04386142477955       -0.13349510304772
H           30.28841480370278        2.50979176707842       -0.92190152285790
H           28.39617072221219        4.40874231847714       -1.21907027060379
H           25.16551304077471        5.44175699294318        1.03605268070736
H           25.17816398619350        7.87220056895788        0.50344770770461
H           26.37014869856532        7.16970085643978       -3.36648979635309
H           26.40218747533312        4.70842846018139       -3.00561152161349
H           23.17982807743907        4.51365314152062       -0.60457947928677
H           21.29314216655389        2.61820784107256       -0.26443937177619
H           21.32454662744652       -2.57859196133175        0.13848459472469
H           23.22487581267366       -4.44541639508983        0.54994050818430
H           26.98603433923643       -5.33017609849458       -0.71983598234710
H           26.95698679557081       -7.74545200791468       -0.12770932152941
H           24.73013784784348       -7.04264777356845        3.25432301592460
H           24.67304422131304       -4.59470506796216        2.81770787218658
H           28.44354056985889       -4.26274348831095        1.23979999028611
H           30.32234659434773       -2.39086206407878        0.74818844703653
C           18.41960940019558       -0.01321824615699       -0.04834299390600
C           17.19587498966066       -0.03086203690890       -0.04252280889570
C           19.76602148090104        0.00103675483398       -0.04996353080141
C           20.98976328976246        0.01853042745285       -0.04769001072135

          :  Hamiltonian                  GFN1-xTB          :
         :: total energy            -197.765841241793 Eh    ::
         :: gradient norm              0.000305290098 Eh/a0 ::
         :: HOMO-LUMO gap              0.094593375589 eV    ::
         :: SCC energy              -200.881826912548 Eh    ::
         :: repulsion energy           3.218163494496 Eh    ::

    * Orbital Energies and Occupations

         #    Occupation            Energy/Eh            Energy/eV
      -------------------------------------------------------------
         1        2.0000           -0.7761544             -21.1202
       ...           ...                  ...                  ...
       171        2.0000           -0.4223925             -11.4939
       172        2.0000           -0.4223534             -11.4928
       173        2.0000           -0.4223052             -11.4915
       174        2.0000           -0.4051605             -11.0250
       175        2.0000           -0.4037551             -10.9867
       176        2.0000           -0.4037322             -10.9861
       177        1.9916           -0.3959098             -10.7733
       178        1.9910           -0.3958443             -10.7715
       179        1.9462           -0.3941280             -10.7248
       180        1.9446           -0.3940983             -10.7240
       181        1.9394           -0.3940110             -10.7216
       182        1.9393           -0.3940098             -10.7216
       183        1.7428           -0.3925356             -10.6814 (HOMO)
       184        0.2971           -0.3890594             -10.5868 (LUMO)
       185        0.2080           -0.3886719             -10.5763
       186                         -0.3461466              -9.4191
       187                         -0.3354388              -9.1278
       188                         -0.3354164              -9.1271
       189                         -0.3313650              -9.0169
       190                         -0.3086407              -8.3985
       191                         -0.3085791              -8.3969
       192                         -0.3064411              -8.3387
       193                         -0.2996856              -8.1549
       194                         -0.2842385              -7.7345
       ...                                ...                  ...
       390                          1.5041609              40.9303
      -------------------------------------------------------------
                  HL-Gap            0.0034762 Eh            0.0946 eV

Wiberg/Mayer (AO) data.
largest (>0.10) Wiberg bond orders for each atom

     #   Z sym  total        # sym  WBO       # sym  WBO       # sym  WBO
 ---------------------------------------------------------------------------
     1  26 Fe   3.161 --    37 N    0.672     7 N    0.667    18 N    0.664
                            25 N    0.660
     2   6 C    3.925 --    36 C    1.363     3 C    1.363    38 H    0.970
     3   6 C    3.924 --     2 C    1.363     7 N    1.210     4 C    1.172
     4   6 C    3.959 --     5 C    1.650     3 C    1.172    39 H    0.975
     5   6 C    3.961 --     4 C    1.650     6 C    1.175    40 H    0.973
     6   6 C    3.921 --     8 C    1.313     7 N    1.225     5 C    1.175
     7   7 N    3.380 --     6 C    1.225     3 C    1.210     1 Fe   0.667
     8   6 C    3.927 --    15 C    1.336     6 C    1.313     9 C    1.023
     9   6 C    3.986 --    14 C    1.394    10 C    1.394     8 C    1.023
                            12 N    0.107
    10   6 C    3.987 --    11 C    1.441     9 C    1.394    41 H    0.973
                            13 C    0.109
    11   6 C    3.972 --    10 C    1.441    12 N    1.416    42 H    0.972
                            14 C    0.109
    12   7 N    3.031 --    13 C    1.416    11 C    1.416     9 C    0.107
    13   6 C    3.972 --    14 C    1.441    12 N    1.416    43 H    0.972
                            10 C    0.109
    14   6 C    3.987 --    13 C    1.441     9 C    1.394    44 H    0.973
                            11 C    0.109
    15   6 C    3.917 --     8 C    1.336    18 N    1.199    16 C    1.179
    16   6 C    3.956 --    17 C    1.639    15 C    1.179    45 H    0.973
    17   6 C    3.960 --    16 C    1.639    19 C    1.188    46 H    0.973
    18   7 N    3.382 --    19 C    1.247    15 C    1.199     1 Fe   0.664
    19   6 C    3.904 --    20 C    1.250    18 N    1.247    17 C    1.188
    20   6 C    3.923 --    19 C    1.250    21 C    1.250   110 C    1.203
    21   6 C    3.904 --    20 C    1.250    25 N    1.245    22 C    1.189
    22   6 C    3.960 --    23 C    1.637    21 C    1.189    47 H    0.973
    23   6 C    3.957 --    22 C    1.637    24 C    1.180    48 H    0.973
    24   6 C    3.918 --    26 C    1.331    25 N    1.201    23 C    1.180
    25   7 N    3.380 --    21 C    1.245    24 C    1.201     1 Fe   0.660
    26   6 C    3.927 --    24 C    1.331    33 C    1.313    27 C    1.029
    27   6 C    3.986 --    32 C    1.392    28 C    1.392    26 C    1.029
                            30 N    0.107
    28   6 C    3.986 --    29 C    1.442    27 C    1.392    49 H    0.973
                            31 C    0.109
    29   6 C    3.972 --    28 C    1.442    30 N    1.415    50 H    0.972
                            32 C    0.109
    30   7 N    3.030 --    31 C    1.416    29 C    1.415    27 C    0.107
    31   6 C    3.972 --    32 C    1.441    30 N    1.416    51 H    0.972
                            28 C    0.109
    32   6 C    3.986 --    31 C    1.441    27 C    1.392    52 H    0.973
                            29 C    0.109
    33   6 C    3.921 --    26 C    1.313    37 N    1.225    34 C    1.175
    34   6 C    3.961 --    35 C    1.650    33 C    1.175    53 H    0.973
    35   6 C    3.959 --    34 C    1.650    36 C    1.173    54 H    0.975
    36   6 C    3.924 --     2 C    1.363    37 N    1.209    35 C    1.173
    37   7 N    3.382 --    33 C    1.225    36 C    1.209     1 Fe   0.672
    38   1 H    1.000 --     2 C    0.970
    39   1 H    0.997 --     4 C    0.975
    40   1 H    1.004 --     5 C    0.973
    41   1 H    1.003 --    10 C    0.973
    42   1 H    1.013 --    11 C    0.972
    43   1 H    1.013 --    13 C    0.972
    44   1 H    1.003 --    14 C    0.973
    45   1 H    1.004 --    16 C    0.973
    46   1 H    1.002 --    17 C    0.973
    47   1 H    1.002 --    22 C    0.973
    48   1 H    1.004 --    23 C    0.973
    49   1 H    1.004 --    28 C    0.973
    50   1 H    1.013 --    29 C    0.972
    51   1 H    1.013 --    31 C    0.972
    52   1 H    1.004 --    32 C    0.973
    53   1 H    1.004 --    34 C    0.973
    54   1 H    0.997 --    35 C    0.975
    55  26 Fe   3.164 --    91 N    0.672    61 N    0.667    72 N    0.664
                            79 N    0.660
    56   6 C    3.925 --    90 C    1.363    57 C    1.363    92 H    0.970
    57   6 C    3.924 --    56 C    1.363    61 N    1.210    58 C    1.172
    58   6 C    3.959 --    59 C    1.650    57 C    1.172    93 H    0.975
    59   6 C    3.961 --    58 C    1.650    60 C    1.175    94 H    0.973
    60   6 C    3.921 --    62 C    1.313    61 N    1.225    59 C    1.175
    61   7 N    3.381 --    60 C    1.225    57 C    1.210    55 Fe   0.667
    62   6 C    3.927 --    69 C    1.336    60 C    1.313    63 C    1.023
    63   6 C    3.986 --    68 C    1.394    64 C    1.394    62 C    1.023
                            66 N    0.107
    64   6 C    3.987 --    65 C    1.441    63 C    1.394    95 H    0.973
                            67 C    0.109
    65   6 C    3.972 --    64 C    1.441    66 N    1.416    96 H    0.972
                            68 C    0.109
    66   7 N    3.031 --    67 C    1.416    65 C    1.416    63 C    0.107
    67   6 C    3.972 --    68 C    1.441    66 N    1.416    97 H    0.972
                            64 C    0.109
    68   6 C    3.987 --    67 C    1.441    63 C    1.394    98 H    0.973
                            65 C    0.109
    69   6 C    3.917 --    62 C    1.336    72 N    1.199    70 C    1.179
    70   6 C    3.956 --    71 C    1.639    69 C    1.179    99 H    0.973
    71   6 C    3.960 --    70 C    1.639    73 C    1.188   100 H    0.973
    72   7 N    3.382 --    73 C    1.247    69 C    1.199    55 Fe   0.664
    73   6 C    3.904 --    74 C    1.250    72 N    1.247    71 C    1.188
    74   6 C    3.924 --    73 C    1.250    75 C    1.250   112 C    1.203
    75   6 C    3.904 --    74 C    1.250    79 N    1.245    76 C    1.189
    76   6 C    3.960 --    77 C    1.637    75 C    1.189   101 H    0.973
    77   6 C    3.957 --    76 C    1.637    78 C    1.180   102 H    0.973
    78   6 C    3.918 --    80 C    1.331    79 N    1.201    77 C    1.180
    79   7 N    3.380 --    75 C    1.245    78 C    1.201    55 Fe   0.660
    80   6 C    3.928 --    78 C    1.331    87 C    1.313    81 C    1.029
    81   6 C    3.986 --    86 C    1.392    82 C    1.392    80 C    1.029
                            84 N    0.107
    82   6 C    3.986 --    83 C    1.442    81 C    1.392   103 H    0.973
                            85 C    0.109
    83   6 C    3.972 --    82 C    1.442    84 N    1.416   104 H    0.972
                            86 C    0.109
    84   7 N    3.030 --    85 C    1.416    83 C    1.416    81 C    0.107
    85   6 C    3.972 --    86 C    1.441    84 N    1.416   105 H    0.972
                            82 C    0.109
    86   6 C    3.986 --    85 C    1.441    81 C    1.392   106 H    0.973
                            83 C    0.109
    87   6 C    3.921 --    80 C    1.313    91 N    1.225    88 C    1.175
    88   6 C    3.961 --    89 C    1.650    87 C    1.175   107 H    0.973
    89   6 C    3.959 --    88 C    1.650    90 C    1.173   108 H    0.975
    90   6 C    3.924 --    56 C    1.363    91 N    1.209    89 C    1.173
    91   7 N    3.382 --    87 C    1.225    90 C    1.209    55 Fe   0.672
    92   1 H    1.000 --    56 C    0.970
    93   1 H    0.997 --    58 C    0.975
    94   1 H    1.004 --    59 C    0.973
    95   1 H    1.003 --    64 C    0.973
    96   1 H    1.013 --    65 C    0.972
    97   1 H    1.013 --    67 C    0.972
    98   1 H    1.003 --    68 C    0.973
    99   1 H    1.004 --    70 C    0.973
   100   1 H    1.002 --    71 C    0.973
   101   1 H    1.002 --    76 C    0.973
   102   1 H    1.004 --    77 C    0.973
   103   1 H    1.004 --    82 C    0.973
   104   1 H    1.013 --    83 C    0.972
   105   1 H    1.013 --    85 C    0.972
   106   1 H    1.003 --    86 C    0.973
   107   1 H    1.004 --    88 C    0.973
   108   1 H    0.997 --    89 C    0.975
   109   6 C    3.922 --   110 C    2.449   111 C    1.326
   110   6 C    3.916 --   109 C    2.449    20 C    1.203   112 C    0.196
   111   6 C    3.922 --   112 C    2.449   109 C    1.326
   112   6 C    3.916 --   111 C    2.449    74 C    1.203   110 C    0.196
 ---------------------------------------------------------------------------

           -------------------------------------------------
          | TOTAL ENERGY             -197.765841241793 Eh   |
          | GRADIENT NORM               0.000305290098 Eh/α |
          | HOMO-LUMO GAP               0.094593375589 eV   |
           -------------------------------------------------

 * finished run on 2022/07/29 at 16:42:53.408
