   * xtb version 6.5.1 (b24c23e) compiled by 'conda@728c89f4b128' on 2022-07-12
          program call               : xtb Co_DHP_C8_2.xyz --gfn 1 --opt -T 48

   ID    Z sym.   atoms
    1   27 Co     1, 59
    2    6 C      2-6, 8-11, 13-17, 19-24, 26-29, 31-36, 60-64, 66-69, 71-75,
                  77-82, 84-87, 89-94, 117-124
    3    7 N      7, 12, 18, 25, 30, 37, 65, 70, 76, 83, 88, 95
    4    1 H      38-58, 96-116
########################################################################
[WARNING] Please study the warnings concerning your input carefully
-1- prog_main_parseArguments: Unknown option '-T' provided
########################################################################

          :  Hamiltonian                  GFN1-xTB          :
 * total energy  :  -211.1089290 Eh     change       -0.6431321E-08 Eh
 * total energy  :  -211.3126655 Eh     change       -0.2037365E+00 Eh
 * total energy  :  -211.3807605 Eh     change       -0.6809507E-01 Eh
 * total energy  :  -211.4071412 Eh     change       -0.2638064E-01 Eh
 * total energy  :  -211.4186459 Eh     change       -0.1150469E-01 Eh
 * total energy  :  -211.4244794 Eh     change       -0.5833517E-02 Eh
 * total energy  :  -211.4266928 Eh     change       -0.2213469E-02 Eh
 * total energy  :  -211.4277010 Eh     change       -0.1008124E-02 Eh
 * total energy  :  -211.4290670 Eh     change       -0.1366074E-02 Eh
 * total energy  :  -211.4296332 Eh     change       -0.5661198E-03 Eh
 * total energy  :  -211.4324930 Eh     change       -0.2085353E-04 Eh
 * total energy  :  -211.4325089 Eh     change       -0.1598449E-04 Eh
 * total energy  :  -211.4325232 Eh     change       -0.1420918E-04 Eh
 * total energy  :  -211.4325391 Eh     change       -0.1590804E-04 Eh
 * total energy  :  -211.4325571 Eh     change       -0.1806356E-04 Eh
 * total energy  :  -211.4325793 Eh     change       -0.2217618E-04 Eh
 * total energy  :  -211.4326050 Eh     change       -0.2567674E-04 Eh
 * total energy  :  -211.4326316 Eh     change       -0.2666555E-04 Eh
 * total energy  :  -211.4326353 Eh     change       -0.3690294E-05 Eh
   *** GEOMETRY OPTIMIZATION CONVERGED AFTER 44 ITERATIONS ***

 final structure:
================
124
 xtb: 6.5.1 (b24c23e)
Co          11.38786323173034       -0.03761652993478       -0.02646893241948
C            8.01478295165547       -0.04641785180341       -0.15020393242289
C            8.66595511678614       -1.24182255160432        0.06654008340436
C            7.99580297218162       -2.48851169753998        0.27893273319085
C            8.95093291646150       -3.44807868902398        0.27289013954874
C           10.20197951150888       -2.78668269446293        0.04075965596133
N           10.02295191823178       -1.42772210243319       -0.01791591899862
C           11.39866357033496       -3.44510008167272       -0.20719566129394
C           11.40841901399105       -4.92358537295366       -0.29287450786228
C           10.67252384706045       -5.58010592063661       -1.20429572983057
C           10.65612779689866       -7.08139981056810       -1.30985207087522
N           11.74203844109599       -7.68357449402959       -0.53461873846327
C           12.35276161121106       -7.00675113054656        0.48295510020132
C           12.25158781227296       -5.67151486347889        0.62519246187651
C           12.58925225169172       -2.75546171592381       -0.38437619859638
C           13.83782579638372       -3.38121605567472       -0.70021022021122
C           14.78711007631666       -2.41717248080783       -0.63025983579235
N           12.76546194042264       -1.40541457783665       -0.18580554864483
C           14.11483122557299       -1.20625467806509       -0.27962849173622
C           14.78166987425461       -0.02642622334481        0.05763580385752
C           14.09170378753425        1.14678124177297        0.37094035137673
C           14.73735604323966        2.35755353041201        0.76867281563027
C           13.77769176372339        3.31301293689647        0.81039191559667
C           12.55056791168312        2.68312350438153        0.42590922755679
N           12.74677476726483        1.33718379163619        0.21699820807184
C           11.36682518577256        3.36751836861919        0.19269263700793
C           11.35739702406117        4.84458176645116        0.30154316170718
C           10.56011404731337        5.47842932788585        1.17673169947599
C           10.51689614386311        6.97715762893863        1.30598456846778
N           11.61556171189306        7.61102937274917        0.57518769649127
C           12.30054932976647        6.95255195608190       -0.40542797033435
C           12.24017055338686        5.61574984882853       -0.55768837531475
C           10.19320064069466        2.70616318827542       -0.14299956300562
C            8.95831272625867        3.36451460189449       -0.45619608387021
C            8.01351269404496        2.39967514407020       -0.55322541412775
C            8.67395789327495        1.15347686127386       -0.30938146568863
N           10.01953761669055        1.34570457055434       -0.11942075609736
H            6.93188191438083       -0.04936289667546       -0.19263391147153
H            6.93042806778615       -2.59533749559468        0.40903633776377
H            8.83274639895039       -4.51091468430407        0.40925531872082
H           10.04073351225452       -5.05536430387435       -1.91138060918689
H           10.77287610984616       -7.38888512049084       -2.35866959147355
H            9.68366564916242       -7.47698688849314       -0.96288981707620
H           11.69358968148383       -8.68819645167871       -0.45442940082960
H           12.98237544208097       -7.61726020986632        1.12227746263793
H           12.77791418995691       -5.14917656985268        1.41127117586442
H           13.96074834608707       -4.42537238727937       -0.93813203626039
H           15.85011692283011       -2.50334595944423       -0.78853203739687
H           15.79120140514846        2.44892638401074        0.97743628609638
H           13.88067574257101        4.35422704137516        1.06977633719863
H            9.89410526790363        4.93493967965870        1.83674217209410
H           10.59446171876606        7.26873624162736        2.36336043845693
H            9.54970561434989        7.36288707173545        0.93479737930390
H           11.54564163562165        8.61426566281965        0.49548201272116
H           12.94899405317008        7.58103300145699       -1.00740689647256
H           12.82314095537328        5.11043933524600       -1.31435807222711
H            8.84302578715220        4.42898343759484       -0.58181990666599
H            6.96033547257813        2.50277998876423       -0.76185102315129
Co          29.91546253301500        0.03937596553899       -0.01888803123397
C           33.28867806477056        0.07480173409259       -0.13545373798119
C           32.63705217030096        1.19597479676909        0.33180780813504
C           33.30682178915575        2.36833439472273        0.80661233186942
C           32.35149451029784        3.30686691547589        1.00552799432098
C           31.10070440679725        2.71033072233450        0.63658953475952
N           31.28005582847031        1.39548715977929        0.28834419936632
C           29.90391431943410        3.40637043796975        0.53541931935968
C           29.89394068224757        4.86876877258125        0.76940846480863
C           30.62869090397941        5.70601406407774        0.01947801335470
C           30.64531668594580        7.19487195747202        0.23936585154647
N           29.56060483576452        7.61596895863809        1.12751549162733
C           28.95088331059641        6.73614141576924        1.97633367195401
C           29.05205748615116        5.40155356182346        1.82793716328894
C           28.71345734406519        2.77060708757151        0.21440574435318
C           27.46471010536252        3.44932118564893        0.04054692014181
C           26.51560891726114        2.49252528701711       -0.09794486909269
N           28.53752377287302        1.40936012869454        0.11860568038807
C           27.18817150702833        1.23470325825775       -0.01549093965397
C           26.52160207076670        0.00982084798433        0.06085033068002
C           27.21178677688136       -1.20317571941879        0.11420709004103
C           26.56624213174607       -2.47121877969499        0.24207598428639
C           27.52606141839819       -3.41317713641284        0.07768197361053
C           28.75317575496313       -2.71521820536790       -0.16202898554474
N           28.55677327075492       -1.35584628313964       -0.07688391274830
C           29.93722764363439       -3.33350528560496       -0.53591295310063
C           29.94693669416893       -4.79952973341109       -0.74635082438466
C           30.74437960149312       -5.60619545440726       -0.02749835416967
C           30.78769415148762       -7.09779531969180       -0.22240944250310
N           29.68943459389211       -7.56056490705719       -1.07254007582051
C           29.00450581963226       -6.70705370340467       -1.88925984988109
C           29.06431838608411       -5.36873538114496       -1.75100533500279
C           31.11095459666326       -2.61541466249011       -0.72083852846408
C           32.34627965713276       -3.19111806025570       -1.16693810451841
C           33.29093418382288       -2.22791398400535       -1.05365743065429
C           32.62993696631587       -1.06311249310963       -0.54872181249231
N           31.28424924320869       -1.29172023367541       -0.40559027840517
H           34.37161551394214        0.08681343113845       -0.17526065933201
H           34.37210586342461        2.44493209579747        0.95715869300263
H           32.46935585549907        4.31593634263896        1.36617547011994
H           31.25948441531436        5.34565253707478       -0.78471135881688
H           30.52725860822502        7.72088592839093       -0.71854046151293
H           31.61834385457566        7.50655614619334        0.66204474183701
H           29.60843026721052        8.58011482903194        1.42101504792763
H           28.32215198299574        7.19478717318795        2.73277587068514
H           28.52661721344598        4.72229051215327        2.48389463013427
H           27.34160421990271        4.52019233524768        0.03244760168775
H           25.45255788862104        2.61039900348204       -0.23393703223795
H           25.51235515437921       -2.60549611360794        0.42594245351664
H           27.42316439302031       -4.48581395349805        0.10719399444671
H           31.41043323476818       -5.21680160918292        0.73362761171220
H           30.70971970391591       -7.60911336950937        0.74793083838807
H           31.75509519505142       -7.39499678833869       -0.66715807268916
H           29.76107539766832       -8.52281337581588       -1.36702095003504
H           28.35644420716038       -7.19190307416225       -2.61229828066914
H           28.48123444607671       -4.71302717941944       -2.38172703011537
H           32.46195598064566       -4.20376683489133       -1.51811907700015
H           34.34432501615409       -2.28377223579706       -1.27857174364883
C           16.18498651681951       -0.02135649301115        0.08494196081516
C           17.40928846478750       -0.02128668164136        0.10419347970690
C           18.75195492015393       -0.01686258182561        0.12025018855253
C           19.98271236339510       -0.01877792679412        0.12890559187326
C           21.32072004621785       -0.01644232273456        0.12955380137977
C           22.55139884071660       -0.01467672394753        0.12338968575524
C           23.89408379464439       -0.00827047391208        0.10992065007033
C           25.11829890269014       -0.00152890130009        0.08724278983221

          :  Hamiltonian                  GFN1-xTB          :
         :: total energy            -211.432635329396 Eh    ::
         :: gradient norm              0.000491583413 Eh/a0 ::
         :: HOMO-LUMO gap              0.000007693933 eV    ::
         :: SCC energy              -214.826776439119 Eh    ::
         :: repulsion energy           3.500450721230 Eh    ::

    * Orbital Energies and Occupations

         #    Occupation            Energy/Eh            Energy/eV
      -------------------------------------------------------------
         1        2.0000           -0.7874352             -21.4272
       ...           ...                  ...                  ...
       184        2.0000           -0.3840164             -10.4496
       185        2.0000           -0.3811896             -10.3727
       186        2.0000           -0.3811750             -10.3723
       187        1.9999           -0.3783468             -10.2953
       188        1.9999           -0.3783244             -10.2947
       189        1.9999           -0.3782646             -10.2931
       190        1.9999           -0.3782632             -10.2931
       191        1.9994           -0.3766677             -10.2497
       192        1.9771           -0.3732441             -10.1565
       193        1.9771           -0.3732429             -10.1565
       194        1.9358           -0.3722426             -10.1292
       195        1.7798           -0.3709923             -10.0952
       196        1.1657           -0.3693250             -10.0498 (HOMO)
       197        1.1656           -0.3693248             -10.0498 (LUMO)
       198                         -0.3277344              -8.9181
       199                         -0.3174808              -8.6391
       200                         -0.3164181              -8.6102
       201                         -0.3164165              -8.6101
       202                         -0.2920779              -7.9478
       203                         -0.2912909              -7.9264
       204                         -0.2837273              -7.7206
       205                         -0.2801786              -7.6240
       206                         -0.2801318              -7.6228
       207                         -0.2716237              -7.3913
       ...                                ...                  ...
       422                          1.6144124              43.9304
      -------------------------------------------------------------
                  HL-Gap            0.0000003 Eh            0.0000 eV

Wiberg/Mayer (AO) data.
largest (>0.10) Wiberg bond orders for each atom

     #   Z sym  total        # sym  WBO       # sym  WBO       # sym  WBO
 ---------------------------------------------------------------------------
     1  27 Co   3.024 --    37 N    0.634     7 N    0.634    18 N    0.631
                            25 N    0.631
     2   6 C    3.932 --    36 C    1.366     3 C    1.365    38 H    0.970
     3   6 C    3.927 --     2 C    1.365     7 N    1.203     4 C    1.175
     4   6 C    3.960 --     5 C    1.648     3 C    1.175    39 H    0.975
     5   6 C    3.964 --     4 C    1.648     6 C    1.176    40 H    0.974
     6   6 C    3.923 --     8 C    1.321     7 N    1.212     5 C    1.176
     7   7 N    3.345 --     6 C    1.212     3 C    1.203     1 Co   0.634
     8   6 C    3.938 --    15 C    1.329     6 C    1.321     9 C    1.028
     9   6 C    3.983 --    10 C    1.752    14 C    1.106     8 C    1.028
    10   6 C    3.947 --     9 C    1.752    11 C    1.015    41 H    0.971
    11   6 C    3.957 --    10 C    1.015    42 H    0.973    43 H    0.964
                            12 N    0.947
    12   7 N    3.245 --    13 C    1.174    11 C    0.947    44 H    0.926
                            14 C    0.120
    13   6 C    3.947 --    14 C    1.672    12 N    1.174    45 H    0.970
    14   6 C    3.943 --    13 C    1.672     9 C    1.106    46 H    0.973
                            12 N    0.120
    15   6 C    3.917 --     8 C    1.329    18 N    1.197    16 C    1.182
    16   6 C    3.959 --    17 C    1.637    15 C    1.182    47 H    0.973
    17   6 C    3.962 --    16 C    1.637    19 C    1.190    48 H    0.974
    18   7 N    3.349 --    19 C    1.229    15 C    1.197     1 Co   0.631
    19   6 C    3.904 --    20 C    1.262    18 N    1.229    17 C    1.190
    20   6 C    3.941 --    19 C    1.262    21 C    1.261   117 C    1.188
    21   6 C    3.904 --    20 C    1.261    25 N    1.230    22 C    1.190
    22   6 C    3.962 --    23 C    1.637    21 C    1.190    49 H    0.974
    23   6 C    3.959 --    22 C    1.637    24 C    1.182    50 H    0.973
    24   6 C    3.917 --    26 C    1.329    25 N    1.196    23 C    1.182
    25   7 N    3.349 --    21 C    1.230    24 C    1.196     1 Co   0.631
    26   6 C    3.938 --    24 C    1.329    33 C    1.320    27 C    1.027
    27   6 C    3.983 --    28 C    1.751    32 C    1.107    26 C    1.027
    28   6 C    3.946 --    27 C    1.751    29 C    1.015    51 H    0.971
    29   6 C    3.956 --    28 C    1.015    52 H    0.973    53 H    0.965
                            30 N    0.947
    30   7 N    3.247 --    31 C    1.176    29 C    0.947    54 H    0.925
                            32 C    0.121
    31   6 C    3.947 --    32 C    1.670    30 N    1.176    55 H    0.970
    32   6 C    3.942 --    31 C    1.670    27 C    1.107    56 H    0.973
                            30 N    0.121
    33   6 C    3.922 --    26 C    1.320    37 N    1.213    34 C    1.176
    34   6 C    3.964 --    35 C    1.648    33 C    1.176    57 H    0.974
    35   6 C    3.960 --    34 C    1.648    36 C    1.175    58 H    0.975
    36   6 C    3.927 --     2 C    1.366    37 N    1.202    35 C    1.175
    37   7 N    3.345 --    33 C    1.213    36 C    1.202     1 Co   0.634
    38   1 H    1.000 --     2 C    0.970
    39   1 H    0.998 --     4 C    0.975
    40   1 H    1.006 --     5 C    0.974
    41   1 H    1.004 --    10 C    0.971
    42   1 H    1.014 --    11 C    0.973
    43   1 H    1.003 --    11 C    0.964
    44   1 H    0.961 --    12 N    0.926
    45   1 H    1.001 --    13 C    0.970
    46   1 H    1.003 --    14 C    0.973
    47   1 H    1.005 --    16 C    0.973
    48   1 H    1.002 --    17 C    0.974
    49   1 H    1.002 --    22 C    0.974
    50   1 H    1.005 --    23 C    0.973
    51   1 H    1.003 --    28 C    0.971
    52   1 H    1.014 --    29 C    0.973
    53   1 H    1.003 --    29 C    0.965
    54   1 H    0.961 --    30 N    0.925
    55   1 H    1.001 --    31 C    0.970
    56   1 H    1.003 --    32 C    0.973
    57   1 H    1.006 --    34 C    0.974
    58   1 H    0.998 --    35 C    0.975
    59  27 Co   3.024 --    95 N    0.634    65 N    0.634    76 N    0.631
                            83 N    0.631
    60   6 C    3.932 --    94 C    1.366    61 C    1.365    96 H    0.970
    61   6 C    3.927 --    60 C    1.365    65 N    1.203    62 C    1.175
    62   6 C    3.960 --    63 C    1.648    61 C    1.175    97 H    0.975
    63   6 C    3.964 --    62 C    1.648    64 C    1.176    98 H    0.974
    64   6 C    3.923 --    66 C    1.321    65 N    1.212    63 C    1.176
    65   7 N    3.345 --    64 C    1.212    61 C    1.203    59 Co   0.634
    66   6 C    3.938 --    73 C    1.329    64 C    1.321    67 C    1.027
    67   6 C    3.983 --    68 C    1.752    72 C    1.106    66 C    1.027
    68   6 C    3.947 --    67 C    1.752    69 C    1.015    99 H    0.971
    69   6 C    3.957 --    68 C    1.015   100 H    0.973   101 H    0.964
                            70 N    0.947
    70   7 N    3.245 --    71 C    1.174    69 C    0.947   102 H    0.926
                            72 C    0.121
    71   6 C    3.947 --    72 C    1.672    70 N    1.174   103 H    0.970
    72   6 C    3.943 --    71 C    1.672    67 C    1.106   104 H    0.973
                            70 N    0.121
    73   6 C    3.917 --    66 C    1.329    76 N    1.197    74 C    1.182
    74   6 C    3.959 --    75 C    1.637    73 C    1.182   105 H    0.973
    75   6 C    3.962 --    74 C    1.637    77 C    1.190   106 H    0.974
    76   7 N    3.349 --    77 C    1.229    73 C    1.197    59 Co   0.631
    77   6 C    3.904 --    78 C    1.262    76 N    1.229    75 C    1.190
    78   6 C    3.941 --    77 C    1.262    79 C    1.261   124 C    1.188
    79   6 C    3.904 --    78 C    1.261    83 N    1.230    80 C    1.190
    80   6 C    3.962 --    81 C    1.637    79 C    1.190   107 H    0.974
    81   6 C    3.959 --    80 C    1.637    82 C    1.182   108 H    0.973
    82   6 C    3.917 --    84 C    1.329    83 N    1.196    81 C    1.182
    83   7 N    3.349 --    79 C    1.230    82 C    1.196    59 Co   0.631
    84   6 C    3.938 --    82 C    1.329    91 C    1.320    85 C    1.027
    85   6 C    3.983 --    86 C    1.751    90 C    1.107    84 C    1.027
    86   6 C    3.946 --    85 C    1.751    87 C    1.015   109 H    0.971
    87   6 C    3.956 --    86 C    1.015   110 H    0.973   111 H    0.965
                            88 N    0.947
    88   7 N    3.246 --    89 C    1.176    87 C    0.947   112 H    0.925
                            90 C    0.121
    89   6 C    3.947 --    90 C    1.670    88 N    1.176   113 H    0.970
    90   6 C    3.942 --    89 C    1.670    85 C    1.107   114 H    0.973
                            88 N    0.121
    91   6 C    3.922 --    84 C    1.320    95 N    1.213    92 C    1.176
    92   6 C    3.964 --    93 C    1.648    91 C    1.176   115 H    0.974
    93   6 C    3.960 --    92 C    1.648    94 C    1.175   116 H    0.975
    94   6 C    3.927 --    60 C    1.366    95 N    1.202    93 C    1.175
    95   7 N    3.345 --    91 C    1.213    94 C    1.202    59 Co   0.634
    96   1 H    1.000 --    60 C    0.970
    97   1 H    0.998 --    62 C    0.975
    98   1 H    1.006 --    63 C    0.974
    99   1 H    1.003 --    68 C    0.971
   100   1 H    1.014 --    69 C    0.973
   101   1 H    1.003 --    69 C    0.964
   102   1 H    0.961 --    70 N    0.926
   103   1 H    1.001 --    71 C    0.970
   104   1 H    1.003 --    72 C    0.973
   105   1 H    1.005 --    74 C    0.973
   106   1 H    1.002 --    75 C    0.974
   107   1 H    1.002 --    80 C    0.974
   108   1 H    1.005 --    81 C    0.973
   109   1 H    1.003 --    86 C    0.971
   110   1 H    1.014 --    87 C    0.973
   111   1 H    1.003 --    87 C    0.965
   112   1 H    0.961 --    88 N    0.925
   113   1 H    1.001 --    89 C    0.970
   114   1 H    1.003 --    90 C    0.973
   115   1 H    1.006 --    92 C    0.974
   116   1 H    0.998 --    93 C    0.975
   117   6 C    3.875 --   118 C    2.441    20 C    1.188   120 C    0.187
   118   6 C    3.936 --   117 C    2.441   119 C    1.344
   119   6 C    3.892 --   120 C    2.336   118 C    1.344   122 C    0.182
   120   6 C    3.926 --   119 C    2.336   121 C    1.369   117 C    0.187
   121   6 C    3.926 --   122 C    2.336   120 C    1.369   124 C    0.187
   122   6 C    3.892 --   121 C    2.336   123 C    1.344   119 C    0.182
   123   6 C    3.936 --   124 C    2.441   122 C    1.344
   124   6 C    3.875 --   123 C    2.441    78 C    1.188   121 C    0.187
 ---------------------------------------------------------------------------

           -------------------------------------------------
          | TOTAL ENERGY             -211.432635329396 Eh   |
          | GRADIENT NORM               0.000491583413 Eh/α |
          | HOMO-LUMO GAP               0.000007693933 eV   |
           -------------------------------------------------

 * finished run on 2022/07/30 at 01:24:33.657
