   * xtb version 6.5.1 (b24c23e) compiled by 'conda@728c89f4b128' on 2022-07-12
          program call               : xtb Cu_H_C8_4.xyz --gfn 1 --opt -T 48

   ID    Z sym.   atoms
    1   29 Cu     1, 37, 97, 132
    2    6 C      2-6, 8-11, 13-18, 20-24, 38-42, 44-47, 49-54, 56-60, 73-96,
                  98-102, 104-107, 109-114, 116-120, 133-137, 139-142,
                  144-149, 151-155
    3    7 N      7, 12, 19, 25, 43, 48, 55, 61, 103, 108, 115, 121, 138,
                  143, 150, 156
    4    1 H      26-36, 62-72, 122-131, 157-166

          :  Hamiltonian                  GFN1-xTB          :
 * total energy  :  -305.7892219 Eh     change        0.3754622E-08 Eh
 * total energy  :  -309.3228483 Eh     change       -0.3533626E+01 Eh
 * total energy  :  -309.9379046 Eh     change       -0.6150564E+00 Eh
 * total energy  :  -310.1989358 Eh     change       -0.2610311E+00 Eh
 * total energy  :  -310.3329223 Eh     change       -0.1339865E+00 Eh
 * total energy  :  -310.4159197 Eh     change       -0.8299741E-01 Eh
 * total energy  :  -310.4811893 Eh     change       -0.6526959E-01 Eh
 * total energy  :  -310.5426545 Eh     change       -0.6146523E-01 Eh
 * total energy  :  -310.6115570 Eh     change       -0.6890245E-01 Eh
 * total energy  :  -310.6828089 Eh     change       -0.7125188E-01 Eh
 * total energy  :  -310.9854572 Eh     change       -0.3749275E-04 Eh
 * total energy  :  -310.9856831 Eh     change       -0.2258251E-03 Eh
 * total energy  :  -310.9857263 Eh     change       -0.4323268E-04 Eh
 * total energy  :  -310.9858165 Eh     change       -0.9024600E-04 Eh
 * total energy  :  -310.9858994 Eh     change       -0.8281619E-04 Eh
 * total energy  :  -310.9859399 Eh     change       -0.4055127E-04 Eh
 * total energy  :  -310.9859501 Eh     change       -0.1014740E-04 Eh
 * total energy  :  -310.9859611 Eh     change       -0.1100079E-04 Eh
 * total energy  :  -310.9859652 Eh     change       -0.4149590E-05 Eh
   *** GEOMETRY OPTIMIZATION CONVERGED AFTER 39 ITERATIONS ***

 final structure:
================
166
 xtb: 6.5.1 (b24c23e)
Cu          16.51074872513915       -0.01759043552387       -0.01567797337955
C           13.08725740197171       -0.05682030607111       -0.05609730597830
C           13.73682660475388       -0.92197558852289       -0.92492876895974
C           13.08386319141227       -1.82570984849388       -1.83206722924531
C           14.05932222841859       -2.49080362269309       -2.49944981180644
C           15.31595670378327       -1.99885838965112       -2.00560200078260
N           15.08965746036696       -1.04903915102179       -1.05232359681914
C           16.56411199512752       -2.42665733919567       -2.43491182349353
C           17.79162231189578       -1.97156364065532       -1.97795556609711
C           19.06557691649650       -2.43758501686381       -2.44586489828960
C           20.01398824100761       -1.75260309875930       -1.75772096887944
N           17.98233074816424       -1.01489344870480       -1.01715034382388
C           19.32503995804545       -0.86474977731916       -0.86630562548251
C           19.95652993524110        0.02278291249154        0.02401718102106
C           19.28420154353402        0.89473563849142        0.89943025344924
C           19.93171763340178        1.79803909843937        1.80620727259947
C           18.95200377648688        2.46098090545415        2.47181548897334
C           17.70029331791444        1.96558916522508        1.97500064721463
N           17.93530433425557        1.01359909565840        1.01918737951643
C           16.45209545868192        2.39138770876798        2.40333971049552
C           15.22452663504389        1.93485769218488        1.94517134119429
C           13.94562425601798        2.39690247930765        2.40998569824531
C           13.00164104267144        1.71007328892700        1.71975024814300
C           13.69632013886493        0.82270042134273        0.82759947330270
N           15.04246059948908        0.98096498485377        0.98646505093749
H           12.00235980524256       -0.06932617556180       -0.06871093500055
H           12.01449090171538       -1.92613122752061       -1.93294945039791
H           13.95422545433732       -3.24870593076492       -3.25996278153234
H           16.58226051661937       -3.19235328050705       -3.20371372188829
H           19.20251005213285       -3.19236352857975       -3.20417048516943
H           21.08652878810259       -1.83219822536522       -1.83734313775722
H           21.00008294185372        1.90191420761628        1.91047387229685
H           19.05389350640347        3.21898644606205        3.23243853476170
H           16.43425171840239        3.15695485143439        3.17229816060842
H           13.80540274974136        3.15118900566571        3.16842893777623
H           11.92816369471891        1.78544207131977        1.79579339851033
Cu          72.43116623441301        0.00019340254668       -0.00822918747105
C           75.85449794184031        0.06108699162504       -0.01072591448187
C           75.20330264615086        1.28482479180797       -0.07147266319620
C           75.85453188597677        2.56464909584367       -0.13472098655935
C           74.87781227334830        3.50441426684412       -0.18029493017574
C           73.62208882464911        2.80651234245821       -0.14534163213133
N           73.85024240870328        1.46273267831014       -0.07979191228939
C           72.37312941662455        3.41019152892538       -0.17367084073813
C           71.14652021363780        2.76431682304169       -0.14159763549130
C           69.87158332726138        3.42211626892163       -0.17330127978417
C           68.92457651525466        2.45096428708511       -0.12712157725227
N           70.95782793336751        1.40979411406827       -0.07639986359764
C           69.61534290743415        1.19518377913224       -0.06689254946693
C           68.98567317390385       -0.06129306760344       -0.01007872628615
C           69.65931884922978       -1.29452921784316        0.04906617857604
C           69.01357882063957       -2.57393317441242        0.11003133309631
C           69.99457162185098       -3.51072201157035        0.15851726723355
C           71.24534603259004       -2.80804927304854        0.12703738759840
N           71.00855503834120       -1.46111834319797        0.06033911940760
C           72.49435015981436       -3.40953944520540        0.15939329828834
C           73.72099682769135       -2.76177324692807        0.12913039941988
C           75.00079759359124       -3.41457327327151        0.16245856409426
C           75.94345489277035       -2.44076303056332        0.11433138882208
C           75.24707909429139       -1.18493576518550        0.05144497727836
N           73.90123160403229       -1.41074600450090        0.06222187121790
H           76.93937052503885        0.08027028586843       -0.01172696749980
H           76.92371463916304        2.70822156543735       -0.14231825408734
H           74.98143446675594        4.57695066751609       -0.23296605779582
H           72.35347977323831        4.49393762432347       -0.22635752812903
H           69.73309657727667        4.49059276040567       -0.22469242165386
H           67.85185847541820        2.56178823033222       -0.13283870359830
H           67.94542035525467       -2.72258514124855        0.11497068981282
H           69.89424298537216       -4.58341521426567        0.21105047543342
H           72.51357670428388       -4.49325964927415        0.21303810415183
H           75.14249824465261       -4.48271710708014        0.21571012118378
H           77.01707812722638       -2.54621064755322        0.12001589389135
C           21.36126685771465        0.03689998014414        0.03918098875363
C           22.58568537120434        0.04092838058441        0.04699207601270
C           23.92823514194192        0.04495920259178        0.04901396098245
C           25.15881211733302        0.04018477159531        0.03919471544215
C           26.49648915099020        0.03227749679950        0.03021561827288
C           27.72702347844024        0.01814815594270        0.01918524423872
C           29.06929775839687        0.00542931143012        0.01006614931997
C           30.29370997814801       -0.00372656552872        0.00095902417463
C           40.00472476342343       -0.06326062085355       -0.04157149258885
C           41.22931788546038       -0.05868026880449       -0.03832918055894
C           42.57137934714746       -0.05316846488092       -0.03198055922974
C           43.80190398789669       -0.04193058541702       -0.02421623850640
C           45.13941798897005       -0.03209821367098       -0.01564749097318
C           46.37004496256054       -0.02054296268552       -0.00976479523402
C           47.71218758695643       -0.01406274906053       -0.00587868653853
C           48.93670366131709       -0.00736213293615       -0.00824919530978
C           58.64780548982528       -0.06313214687594       -0.03657972373903
C           59.87217905900457       -0.07472226064611       -0.03673710251740
C           61.21481466349361       -0.08684002565786       -0.03615179486758
C           62.44513091795226       -0.09589708364725       -0.03212012963034
C           63.78314179963137       -0.10150573157936       -0.02799225326297
C           65.01337363963680       -0.10350771250686       -0.02295489456809
C           66.35626797669590       -0.09672100283245       -0.01732922666147
C           67.58044435264900       -0.08410257559794       -0.01287347343565
Cu          35.14933610971428       -0.03196278508634       -0.02522540565835
C           31.69784294265806       -0.01204140612778       -0.00722236226711
C           32.35998711436853        0.91600487339299        0.81809019707736
C           31.70227724829575        1.86944470843157        1.66410295893753
C           32.67488488394326        2.57897831546747        2.29152477844412
C           33.93132756397781        2.06116247718492        1.83197486802648
N           33.70685788250566        1.05039950648149        0.93659445337800
C           35.17565094298426        2.51932309351314        2.23824646688011
C           36.41034694363549        2.04553232729438        1.82066823937457
C           37.67734972285028        2.54714138618700        2.26896808444668
C           38.63512095616995        1.82567970702950        1.63246155479295
N           36.61379678496647        1.03244340253792        0.92291109988756
C           37.95774359214072        0.88080969693206        0.79234798735093
C           38.60062580097534       -0.05592842701210       -0.03846638928131
C           37.93903717429868       -0.98229232224701       -0.86583800346761
C           38.59674813112651       -1.93397454518105       -1.71369840991308
C           37.62412033601450       -2.63867682882969       -2.34659454364157
C           36.36760359584059       -2.12060419724741       -1.88742224520397
N           36.59206309507449       -1.11396710677274       -0.98745060540321
C           35.12303629895597       -2.57560101974970       -2.29682086014498
C           33.88827934288516       -2.10444536203700       -1.87629673079914
C           32.62118595654351       -2.60614078404537       -2.32450730814587
C           31.66332469454326       -1.88946602228176       -1.68266651476286
C           32.34065739051182       -0.94646108475939       -0.84043750138715
N           33.68461690511819       -1.09541899993659       -0.97393427549967
H           30.63288320999360        1.97309556521140        1.75706004580674
H           32.56474547954380        3.38226975425530        3.00289870099508
H           35.18404026827967        3.33193494950758        2.95770384057735
H           37.80416677669495        3.34845073801309        2.97979383494622
H           39.70654238005665        1.91576268939268        1.71573823319736
H           39.66621420260978       -2.03932593909748       -1.80432325900033
H           37.73422138864925       -3.43900968552543       -3.06131780519218
H           35.11444851992962       -3.38443411497312       -3.02056070241016
H           32.49440222127962       -3.40446551916255       -3.03871617950247
H           30.59187398957619       -1.98127273869083       -1.76384777339721
Cu          53.79201944956169       -0.02817858185881       -0.02764267904415
C           50.34076916540106       -0.01024631033077       -0.01419191282050
C           51.00098664776049        0.91881384521699        0.81123374213449
C           50.34161821682076        1.87182110828239        1.65640842102270
C           51.31302263070503        2.58120975710319        2.28586710950855
C           52.57044822184552        2.06412185143512        1.82802120695203
N           52.34767457388394        1.05384389830504        0.93163337541857
C           53.81410922488848        2.52223986564994        2.23647228049032
C           55.04966516872148        2.04978716591245        1.81954742173847
C           56.31592835314378        2.55193051950877        2.26972719416874
C           57.27496048924240        1.83206364622048        1.63329980773727
N           55.25486399958276        1.03797106879893        0.92093764715647
C           56.59922821969604        0.88728345373139        0.79172181623131
C           57.24320362318886       -0.05133657440167       -0.03548441208083
C           56.58293839754171       -0.98052616031553       -0.86053645238766
C           57.24234926802413       -1.93536229235000       -1.70368361131643
C           56.27101899000046       -2.64180436008744       -2.33650947417496
C           55.01365031099214       -2.12157834703108       -1.88221334807813
N           55.23620316651551       -1.11223618761145       -0.98487189959325
C           53.77007241166071       -2.57689092869505       -2.29412604636303
C           52.53466305955061       -2.10362722072158       -1.87823561491689
C           51.26843747979661       -2.60538110498626       -2.32869921049752
C           50.30949729621372       -1.88762052123506       -1.68979582718447
C           50.98536526397609       -0.94412194994490       -0.84690631966768
N           52.32948638396887       -1.09308792615489       -0.97792072441674
H           49.27198685913565        1.97509390548789        1.74736870337198
H           51.20147262162791        3.38404427903732        2.99755139866295
H           53.82134816747071        3.33372632002416        2.95723119450455
H           56.44136212139708        3.35225117295613        2.98193040603315
H           58.34625617258828        1.92276922103068        1.71770349157671
H           58.31193444696731       -2.04139627204891       -1.79171236891805
H           56.38254159020956       -3.44468362561360       -3.04814280635677
H           53.76299139902011       -3.38774746887165       -3.01557579135652
H           51.14297184678760       -3.40452531004900       -3.04219491298837
H           49.23823258013870       -1.97919626766200       -1.77345047510274

          :  Hamiltonian                  GFN1-xTB          :
         :: total energy            -310.985965200077 Eh    ::
         :: gradient norm              0.000898383127 Eh/a0 ::
         :: HOMO-LUMO gap              0.001729718068 eV    ::
         :: SCC energy              -316.293674627390 Eh    ::
         :: repulsion energy           5.448579138214 Eh    ::

    * Orbital Energies and Occupations

         #    Occupation            Energy/Eh            Energy/eV
      -------------------------------------------------------------
         1        2.0000           -0.7663788             -20.8542
       ...           ...                  ...                  ...
       279        2.0000           -0.4074431             -11.0871
       280        2.0000           -0.4071884             -11.0802
       281        2.0000           -0.4070862             -11.0774
       282        2.0000           -0.3975076             -10.8167
       283        2.0000           -0.3974926             -10.8163
       284        2.0000           -0.3972154             -10.8088
       285        2.0000           -0.3971957             -10.8082
       286        2.0000           -0.3937325             -10.7140
       287        2.0000           -0.3901215             -10.6157
       288        2.0000           -0.3854316             -10.4881
       289        2.0000           -0.3802876             -10.3482
       290        1.0174           -0.3572614              -9.7216
       291        1.0166           -0.3572598              -9.7215 (HOMO)
       292        0.9831           -0.3571963              -9.7198 (LUMO)
       293        0.9830           -0.3571960              -9.7198
       294        0.0000           -0.3444023              -9.3717
       295                         -0.3391090              -9.2276
       296                         -0.3342015              -9.0941
       297                         -0.3306476              -8.9974
       298                         -0.3295035              -8.9662
       299                         -0.3294916              -8.9659
       300                         -0.3289337              -8.9507
       301                         -0.3289178              -8.9503
       302                         -0.3109307              -8.4609
       ...                                ...                  ...
       600                          1.6075223              43.7429
      -------------------------------------------------------------
                  HL-Gap            0.0000636 Eh            0.0017 eV

Wiberg/Mayer (AO) data.
largest (>0.10) Wiberg bond orders for each atom

     #   Z sym  total        # sym  WBO       # sym  WBO       # sym  WBO
 ---------------------------------------------------------------------------
     1  29 Cu   2.198 --    25 N    0.508     7 N    0.508    12 N    0.505
                            19 N    0.505
     2   6 C    3.934 --     3 C    1.362    24 C    1.362    26 H    0.972
     3   6 C    3.917 --     2 C    1.362     7 N    1.234     4 C    1.166
     4   6 C    3.955 --     5 C    1.662     3 C    1.166    27 H    0.976
     5   6 C    3.957 --     4 C    1.662     6 C    1.167    28 H    0.976
     6   6 C    3.914 --     8 C    1.360     7 N    1.233     5 C    1.167
     7   7 N    3.247 --     3 C    1.234     6 C    1.233     1 Cu   0.508
     8   6 C    3.940 --     9 C    1.368     6 C    1.360    29 H    0.971
     9   6 C    3.909 --     8 C    1.368    12 N    1.216    10 C    1.173
    10   6 C    3.953 --    11 C    1.649     9 C    1.173    30 H    0.976
    11   6 C    3.956 --    10 C    1.649    13 C    1.182    31 H    0.974
    12   7 N    3.252 --    13 C    1.262     9 C    1.216     1 Cu   0.505
    13   6 C    3.896 --    12 N    1.262    14 C    1.259    11 C    1.182
    14   6 C    3.944 --    15 C    1.259    13 C    1.259    73 C    1.190
    15   6 C    3.896 --    19 N    1.262    14 C    1.259    16 C    1.182
    16   6 C    3.956 --    17 C    1.649    15 C    1.182    32 H    0.974
    17   6 C    3.953 --    16 C    1.649    18 C    1.173    33 H    0.976
    18   6 C    3.909 --    20 C    1.368    19 N    1.216    17 C    1.173
    19   7 N    3.252 --    15 C    1.262    18 C    1.216     1 Cu   0.505
    20   6 C    3.940 --    18 C    1.368    21 C    1.360    34 H    0.971
    21   6 C    3.914 --    20 C    1.360    25 N    1.233    22 C    1.167
    22   6 C    3.957 --    23 C    1.662    21 C    1.167    35 H    0.976
    23   6 C    3.955 --    22 C    1.662    24 C    1.166    36 H    0.976
    24   6 C    3.917 --     2 C    1.362    25 N    1.234    23 C    1.166
    25   7 N    3.247 --    24 C    1.234    21 C    1.233     1 Cu   0.508
    26   1 H    1.001 --     2 C    0.972
    27   1 H    0.998 --     4 C    0.976
    28   1 H    0.998 --     5 C    0.976
    29   1 H    1.001 --     8 C    0.971
    30   1 H    0.998 --    10 C    0.976
    31   1 H    1.002 --    11 C    0.974
    32   1 H    1.002 --    16 C    0.974
    33   1 H    0.998 --    17 C    0.976
    34   1 H    1.001 --    20 C    0.971
    35   1 H    0.998 --    22 C    0.976
    36   1 H    0.998 --    23 C    0.976
    37  29 Cu   2.198 --    61 N    0.508    43 N    0.508    48 N    0.505
                            55 N    0.505
    38   6 C    3.935 --    39 C    1.362    60 C    1.362    62 H    0.972
    39   6 C    3.917 --    38 C    1.362    43 N    1.233    40 C    1.166
    40   6 C    3.955 --    41 C    1.662    39 C    1.166    63 H    0.976
    41   6 C    3.957 --    40 C    1.662    42 C    1.167    64 H    0.976
    42   6 C    3.914 --    44 C    1.360    43 N    1.233    41 C    1.167
    43   7 N    3.248 --    39 C    1.233    42 C    1.233    37 Cu   0.508
    44   6 C    3.940 --    45 C    1.368    42 C    1.360    65 H    0.971
    45   6 C    3.909 --    44 C    1.368    48 N    1.216    46 C    1.173
    46   6 C    3.954 --    47 C    1.649    45 C    1.173    66 H    0.976
    47   6 C    3.956 --    46 C    1.649    49 C    1.181    67 H    0.974
    48   7 N    3.252 --    49 C    1.261    45 C    1.216    37 Cu   0.505
    49   6 C    3.896 --    48 N    1.261    50 C    1.260    47 C    1.181
    50   6 C    3.945 --    51 C    1.260    49 C    1.260    96 C    1.188
    51   6 C    3.897 --    55 N    1.261    50 C    1.260    52 C    1.181
    52   6 C    3.956 --    53 C    1.649    51 C    1.181    68 H    0.974
    53   6 C    3.954 --    52 C    1.649    54 C    1.173    69 H    0.976
    54   6 C    3.909 --    56 C    1.368    55 N    1.216    53 C    1.173
    55   7 N    3.252 --    51 C    1.261    54 C    1.216    37 Cu   0.505
    56   6 C    3.940 --    54 C    1.368    57 C    1.360    70 H    0.971
    57   6 C    3.914 --    56 C    1.360    61 N    1.233    58 C    1.167
    58   6 C    3.957 --    59 C    1.662    57 C    1.167    71 H    0.976
    59   6 C    3.955 --    58 C    1.662    60 C    1.166    72 H    0.976
    60   6 C    3.917 --    38 C    1.362    61 N    1.234    59 C    1.166
    61   7 N    3.248 --    60 C    1.234    57 C    1.233    37 Cu   0.508
    62   1 H    1.001 --    38 C    0.972
    63   1 H    0.998 --    40 C    0.976
    64   1 H    0.998 --    41 C    0.976
    65   1 H    1.001 --    44 C    0.971
    66   1 H    0.998 --    46 C    0.976
    67   1 H    1.002 --    47 C    0.974
    68   1 H    1.002 --    52 C    0.974
    69   1 H    0.998 --    53 C    0.976
    70   1 H    1.001 --    56 C    0.971
    71   1 H    0.998 --    58 C    0.976
    72   1 H    0.998 --    59 C    0.976
    73   6 C    3.877 --    74 C    2.441    14 C    1.190    76 C    0.187
    74   6 C    3.937 --    73 C    2.441    75 C    1.344
    75   6 C    3.893 --    76 C    2.337    74 C    1.344    78 C    0.183
    76   6 C    3.927 --    75 C    2.337    77 C    1.369    73 C    0.187
    77   6 C    3.925 --    78 C    2.336    76 C    1.369    80 C    0.187
    78   6 C    3.894 --    77 C    2.336    79 C    1.345    75 C    0.183
    79   6 C    3.934 --    80 C    2.438    78 C    1.345
    80   6 C    3.877 --    79 C    2.438    98 C    1.193    77 C    0.187
    81   6 C    3.877 --    82 C    2.437   110 C    1.193    84 C    0.187
    82   6 C    3.934 --    81 C    2.437    83 C    1.345
    83   6 C    3.893 --    84 C    2.334    82 C    1.345    86 C    0.182
    84   6 C    3.925 --    83 C    2.334    85 C    1.370    81 C    0.187
    85   6 C    3.925 --    86 C    2.335    84 C    1.370    88 C    0.187
    86   6 C    3.893 --    85 C    2.335    87 C    1.345    83 C    0.182
    87   6 C    3.934 --    88 C    2.438    86 C    1.345
    88   6 C    3.877 --    87 C    2.438   133 C    1.193    85 C    0.187
    89   6 C    3.877 --    90 C    2.441   145 C    1.191    92 C    0.187
    90   6 C    3.934 --    89 C    2.441    91 C    1.343
    91   6 C    3.893 --    92 C    2.338    90 C    1.343    94 C    0.182
    92   6 C    3.925 --    91 C    2.338    93 C    1.367    89 C    0.187
    93   6 C    3.926 --    94 C    2.339    92 C    1.367    96 C    0.187
    94   6 C    3.893 --    93 C    2.339    95 C    1.341    91 C    0.182
    95   6 C    3.937 --    96 C    2.444    94 C    1.341
    96   6 C    3.877 --    95 C    2.444    50 C    1.188    93 C    0.187
    97  29 Cu   2.165 --   121 N    0.499   108 N    0.499   115 N    0.499
                           103 N    0.499
    98   6 C    3.933 --   120 C    1.256    99 C    1.256    80 C    1.193
    99   6 C    3.897 --   103 N    1.265    98 C    1.256   100 C    1.182
   100   6 C    3.954 --   101 C    1.647    99 C    1.182   122 H    0.974
   101   6 C    3.954 --   100 C    1.647   102 C    1.175   123 H    0.976
   102   6 C    3.907 --   104 C    1.365   103 N    1.216   101 C    1.175
   103   7 N    3.244 --    99 C    1.265   102 C    1.216    97 Cu   0.499
   104   6 C    3.935 --   102 C    1.365   105 C    1.365   124 H    0.971
   105   6 C    3.907 --   104 C    1.365   108 N    1.216   106 C    1.175
   106   6 C    3.954 --   107 C    1.647   105 C    1.175   125 H    0.976
   107   6 C    3.954 --   106 C    1.647   109 C    1.182   126 H    0.974
   108   7 N    3.244 --   109 C    1.265   105 C    1.216    97 Cu   0.499
   109   6 C    3.897 --   108 N    1.265   110 C    1.255   107 C    1.182
   110   6 C    3.933 --   111 C    1.256   109 C    1.255    81 C    1.193
   111   6 C    3.897 --   115 N    1.265   110 C    1.256   112 C    1.182
   112   6 C    3.955 --   113 C    1.647   111 C    1.182   127 H    0.974
   113   6 C    3.954 --   112 C    1.647   114 C    1.175   128 H    0.976
   114   6 C    3.907 --   116 C    1.364   115 N    1.217   113 C    1.175
   115   7 N    3.244 --   111 C    1.265   114 C    1.217    97 Cu   0.499
   116   6 C    3.935 --   117 C    1.365   114 C    1.364   129 H    0.971
   117   6 C    3.907 --   116 C    1.365   121 N    1.216   118 C    1.175
   118   6 C    3.954 --   119 C    1.647   117 C    1.175   130 H    0.976
   119   6 C    3.955 --   118 C    1.647   120 C    1.182   131 H    0.974
   120   6 C    3.897 --   121 N    1.265    98 C    1.256   119 C    1.182
   121   7 N    3.244 --   120 C    1.265   117 C    1.216    97 Cu   0.499
   122   1 H    1.002 --   100 C    0.974
   123   1 H    0.998 --   101 C    0.976
   124   1 H    1.001 --   104 C    0.971
   125   1 H    0.998 --   106 C    0.976
   126   1 H    1.002 --   107 C    0.974
   127   1 H    1.002 --   112 C    0.974
   128   1 H    0.998 --   113 C    0.976
   129   1 H    1.001 --   116 C    0.971
   130   1 H    0.998 --   118 C    0.976
   131   1 H    1.002 --   119 C    0.974
   132  29 Cu   2.166 --   143 N    0.499   156 N    0.499   138 N    0.499
                           150 N    0.499
   133   6 C    3.933 --   134 C    1.256   155 C    1.255    88 C    1.193
   134   6 C    3.897 --   138 N    1.265   133 C    1.256   135 C    1.182
   135   6 C    3.955 --   136 C    1.648   134 C    1.182   157 H    0.974
   136   6 C    3.954 --   135 C    1.648   137 C    1.175   158 H    0.976
   137   6 C    3.907 --   139 C    1.365   138 N    1.217   136 C    1.175
   138   7 N    3.244 --   134 C    1.265   137 C    1.217   132 Cu   0.499
   139   6 C    3.935 --   137 C    1.365   140 C    1.364   159 H    0.971
   140   6 C    3.907 --   139 C    1.364   143 N    1.217   141 C    1.175
   141   6 C    3.954 --   142 C    1.648   140 C    1.175   160 H    0.976
   142   6 C    3.955 --   141 C    1.648   144 C    1.182   161 H    0.974
   143   7 N    3.244 --   144 C    1.264   140 C    1.217   132 Cu   0.499
   144   6 C    3.897 --   143 N    1.264   145 C    1.257   142 C    1.182
   145   6 C    3.933 --   144 C    1.257   146 C    1.257    89 C    1.191
   146   6 C    3.897 --   150 N    1.264   145 C    1.257   147 C    1.182
   147   6 C    3.955 --   148 C    1.648   146 C    1.182   162 H    0.974
   148   6 C    3.954 --   147 C    1.648   149 C    1.175   163 H    0.976
   149   6 C    3.907 --   151 C    1.364   150 N    1.217   148 C    1.175
   150   7 N    3.244 --   146 C    1.264   149 C    1.217   132 Cu   0.499
   151   6 C    3.936 --   152 C    1.365   149 C    1.364   164 H    0.971
   152   6 C    3.907 --   151 C    1.365   156 N    1.216   153 C    1.175
   153   6 C    3.954 --   154 C    1.648   152 C    1.175   165 H    0.976
   154   6 C    3.955 --   153 C    1.648   155 C    1.182   166 H    0.974
   155   6 C    3.897 --   156 N    1.265   133 C    1.255   154 C    1.182
   156   7 N    3.244 --   155 C    1.265   152 C    1.216   132 Cu   0.499
   157   1 H    1.002 --   135 C    0.974
   158   1 H    0.998 --   136 C    0.976
   159   1 H    1.001 --   139 C    0.971
   160   1 H    0.998 --   141 C    0.976
   161   1 H    1.002 --   142 C    0.974
   162   1 H    1.002 --   147 C    0.974
   163   1 H    0.998 --   148 C    0.976
   164   1 H    1.001 --   151 C    0.971
   165   1 H    0.998 --   153 C    0.976
   166   1 H    1.002 --   154 C    0.974
 ---------------------------------------------------------------------------

           -------------------------------------------------
          | TOTAL ENERGY             -310.985965200077 Eh   |
          | GRADIENT NORM               0.000898383127 Eh/α |
          | HOMO-LUMO GAP               0.001729718068 eV   |
           -------------------------------------------------

 * finished run on 2022/07/30 at 04:27:40.976
