   * xtb version 6.5.1 (b24c23e) compiled by 'conda@728c89f4b128' on 2022-07-12
          program call               : xtb H_C8_2.xyz --gfn 1 --opt -T 48

   ID    Z sym.   atoms
    1    6 C      1-5, 7-10, 12-17, 19-23, 38-42, 44-47, 49-54, 56-60, 75-82
    2    7 N      6, 11, 18, 24, 43, 48, 55, 61
    3    1 H      25-37, 62-74
########################################################################
[WARNING] Please study the warnings concerning your input carefully
-1- prog_main_parseArguments: Unknown option '-T' provided
########################################################################

          :  Hamiltonian                  GFN1-xTB          :
 * total energy  :  -140.3839889 Eh     change       -0.1182883E-08 Eh
 * total energy  :  -140.6035435 Eh     change       -0.2195546E+00 Eh
 * total energy  :  -140.6877147 Eh     change       -0.8417120E-01 Eh
 * total energy  :  -140.7131451 Eh     change       -0.2543038E-01 Eh
 * total energy  :  -140.7226688 Eh     change       -0.9523681E-02 Eh
 * total energy  :  -140.7266277 Eh     change       -0.3958937E-02 Eh
 * total energy  :  -140.7282394 Eh     change       -0.1611684E-02 Eh
 * total energy  :  -140.7293080 Eh     change       -0.1068608E-02 Eh
 * total energy  :  -140.7315232 Eh     change       -0.2215157E-02 Eh
 * total energy  :  -140.7325877 Eh     change       -0.1064476E-02 Eh
 * total energy  :  -140.7349955 Eh     change       -0.3995082E-03 Eh
 * total energy  :  -140.7353024 Eh     change       -0.3069017E-03 Eh
 * total energy  :  -140.7354636 Eh     change       -0.1611182E-03 Eh
 * total energy  :  -140.7355237 Eh     change       -0.6016504E-04 Eh
 * total energy  :  -140.7355530 Eh     change       -0.2928657E-04 Eh
 * total energy  :  -140.7355631 Eh     change       -0.1008431E-04 Eh
 * total energy  :  -140.7355732 Eh     change       -0.1014689E-04 Eh
 * total energy  :  -140.7355803 Eh     change       -0.7055426E-05 Eh
 * total energy  :  -140.7355819 Eh     change       -0.1576323E-05 Eh
   *** GEOMETRY OPTIMIZATION CONVERGED AFTER 22 ITERATIONS ***

 final structure:
================
82
 xtb: 6.5.1 (b24c23e)
C            1.79021777517396       -0.08270637780819       -0.01160117272969
C            2.41767727299025       -1.32040445382278       -0.07359982322136
C            1.80649078619066       -2.60559198404946       -0.13985213524384
C            2.80051675609010       -3.54219444828035       -0.18427020617389
C            4.05014436513133       -2.85913604051108       -0.14693158203507
N            3.76808859578004       -1.52529798470319       -0.08060916208604
C            5.32020442110686       -3.42314844785297       -0.17285127291855
C            6.53732391998262       -2.75817388591910       -0.13842441651222
C            7.81849306542448       -3.44099147728843       -0.17226976136229
C            8.76389842062177       -2.47979401395303       -0.12457489200232
N            6.72459390901187       -1.41183988045474       -0.07128214709037
C            8.05623030433691       -1.21349791173451       -0.06052616795735
C            8.70707654476189        0.03669570560565        0.00206155174596
C            8.05476377625392        1.28234261963273        0.06560109549956
C            8.66092712850937        2.56600498376544        0.13219829801854
C            7.66313155237985        3.50002175373406        0.18242231305782
C            6.41757073862922        2.81276938558489        0.14709937912014
N            6.70681583864938        1.47670957530029        0.07649971446765
C            5.14842604873375        3.37680115393973        0.17725046542968
C            3.93033418670699        2.70936377739311        0.14068687821415
C            2.64293155476213        3.38616935290846        0.17458885150625
C            1.70323943444167        2.42098573207004        0.12086027772569
C            2.41744520367068        1.15582910850511        0.05479569268836
N            3.75480030367143        1.36904862013387        0.06878291829494
H            0.70540032503320       -0.09298926414335       -0.01486817230735
H            0.74163823109541       -2.77587812031543       -0.15108821347475
H            2.69237954473249       -4.61389061621968       -0.23823628455268
H            4.46149694338228       -0.78582375877661       -0.04172355838930
H            5.35494542004043       -4.50655724761361       -0.22700597089880
H            7.94349520830710       -4.51112460805166       -0.22555336140970
H            9.83701319014865       -2.58646134366841       -0.12984998423998
H            9.72509585818974        2.73950123394716        0.14064855252992
H            7.76853130924865        4.57171798455909        0.23896514224417
H            6.01640526064311        0.73412750627289        0.03821553358928
H            5.11466646307266        4.45998519463734        0.23493767794021
H            2.51275796836767        4.45567406846046        0.23173627509097
H            0.62897784530732        2.52067881649133        0.12404274867419
C           27.36236063212335        0.07662346070520       -0.03742382997388
C           26.73389392846902        1.29640069058323       -0.25334577460661
C           27.34414425974934        2.56294389134112       -0.48379466259939
C           26.34950021095997        3.48708914987871       -0.63852462266116
C           25.10040220572888        2.81438758730217       -0.50915841801651
N           25.38338899021577        1.49920540905816       -0.27823167534387
C           23.82989168928171        3.37062695728905       -0.59999716114084
C           22.61340564422077        2.71434810498447       -0.48063640652378
C           21.33155719232392        3.38640163335072       -0.59890080925017
C           20.38710915947337        2.43757984306301       -0.43236860283021
N           22.42746529901645        1.38676604009899       -0.24583717912652
C           21.09601109336164        1.18964564656031       -0.21205853484625
C           20.44646215327511       -0.04348760525402        0.00708243807933
C           21.09990738529686       -1.26972372512502        0.23171734380434
C           20.49467223532287       -2.53411949095825        0.46555726462355
C           21.49311566562992       -3.45246199720233        0.63942547031868
C           22.73817040491724       -2.77458245808262        0.51576367663671
N           22.44796335107210       -1.45959210409712        0.27005973274268
C           24.00778146815620       -3.32868992334899        0.61975950834841
C           25.22520846022536       -2.67129326890899        0.49223510880540
C           26.51330712880732       -3.33721495805419        0.61029882192052
C           27.45192159238844       -2.38773075495478        0.42329152280502
C           26.73636627099522       -1.14261037810478        0.19361231904508
N           25.39927815015456       -1.35231799408708        0.24235583547195
H           28.44713275881205        0.08615949745565       -0.04871304941145
H           28.40884452483161        2.73009014043778       -0.52268304506935
H           26.45693791883791        4.54365538352092       -0.82631451141153
H           24.69032287956854        0.77081809537673       -0.14312045077912
H           23.79417977067990        4.43895434737552       -0.78789860142545
H           21.20550706918003        4.44142175802741       -0.78515995949466
H           19.31389409621054        2.54154454446910       -0.45172821731003
H           19.43062549982015       -2.70610161661294        0.49476212489164
H           21.38847159732596       -4.50760237081387        0.83581504020261
H           23.13811702124572       -0.72803268523027        0.13564217368488
H           24.04252430574723       -4.39462926662727        0.82055714245536
H           26.64466196787846       -4.38949184382235        0.80907115845686
H           28.52626941933115       -2.48592342053103        0.43424857335892
C           10.11066899256749        0.04919127469428        0.00128859216947
C           11.33548855264119        0.04330549669504       -0.00011919634593
C           12.67755541893320        0.03014781618107       -0.00066376036100
C           13.90827247922590        0.00576960471905        0.00038528470594
C           15.24545237041837       -0.01614159601139        0.00076325114319
C           16.47603818022971       -0.04040356319753        0.00097565733059
C           17.81804016979664       -0.05423750259328        0.00211342194259
C           19.04283896497816       -0.05745855732313        0.00942292434558

          :  Hamiltonian                  GFN1-xTB          :
         :: total energy            -140.735581868390 Eh    ::
         :: gradient norm              0.000694753615 Eh/a0 ::
         :: HOMO-LUMO gap              1.061051277831 eV    ::
         :: SCC energy              -143.208770353644 Eh    ::
         :: repulsion energy           2.535233796267 Eh    ::

    * Orbital Energies and Occupations

         #    Occupation            Energy/Eh            Energy/eV
      -------------------------------------------------------------
         1        2.0000           -0.8041790             -21.8828
       ...           ...                  ...                  ...
       117        2.0000           -0.4225875             -11.4992
       118        2.0000           -0.4209100             -11.4535
       119        2.0000           -0.4208762             -11.4526
       120        2.0000           -0.4167875             -11.3414
       121        2.0000           -0.4166681             -11.3381
       122        2.0000           -0.4164797             -11.3330
       123        2.0000           -0.4163469             -11.3294
       124        2.0000           -0.4132720             -11.2457
       125        2.0000           -0.4073307             -11.0840
       126        2.0000           -0.3993028             -10.8656
       127        2.0000           -0.3991868             -10.8624
       128        2.0000           -0.3889149             -10.5829
       129        2.0000           -0.3805829             -10.3562 (HOMO)
       130                         -0.3415899              -9.2951 (LUMO)
       131                         -0.3324733              -9.0471
       132                         -0.3311089              -9.0099
       133                         -0.3307530              -9.0002
       134                         -0.3028534              -8.2411
       135                         -0.3002553              -8.1704
       136                         -0.2932375              -7.9794
       137                         -0.2743259              -7.4648
       138                         -0.2317183              -6.3054
       139                         -0.2305144              -6.2726
       140                         -0.2199411              -5.9849
       ...                                ...                  ...
       276                          1.6065835              43.7174
      -------------------------------------------------------------
                  HL-Gap            0.0389929 Eh            1.0611 eV

Wiberg/Mayer (AO) data.
largest (>0.10) Wiberg bond orders for each atom

     #   Z sym  total        # sym  WBO       # sym  WBO       # sym  WBO
 ---------------------------------------------------------------------------
     1   6 C    3.930 --    23 C    1.364     2 C    1.350    25 H    0.972
     2   6 C    3.903 --     1 C    1.350     3 C    1.225     6 N    1.172
     3   6 C    3.954 --     4 C    1.602     2 C    1.225    26 H    0.977
     4   6 C    3.958 --     3 C    1.602     5 C    1.226    27 H    0.977
     5   6 C    3.897 --     7 C    1.342     4 C    1.226     6 N    1.174
     6   7 N    3.472 --     5 C    1.174     2 C    1.172    28 H    0.873
     7   6 C    3.945 --     8 C    1.379     5 C    1.342    29 H    0.971
     8   6 C    3.915 --     7 C    1.379    11 N    1.277     9 C    1.119
     9   6 C    3.965 --    10 C    1.717     8 C    1.119    30 H    0.976
    10   6 C    3.964 --     9 C    1.717    12 C    1.124    31 H    0.975
    11   7 N    3.027 --    12 C    1.353     8 C    1.277
    12   6 C    3.908 --    11 N    1.353    13 C    1.250    10 C    1.124
    13   6 C    3.943 --    14 C    1.253    12 C    1.250    75 C    1.195
    14   6 C    3.884 --    13 C    1.253    15 C    1.244    18 N    1.193
    15   6 C    3.959 --    16 C    1.590    14 C    1.244    32 H    0.975
    16   6 C    3.953 --    15 C    1.590    17 C    1.233    33 H    0.977
    17   6 C    3.899 --    19 C    1.350    16 C    1.233    18 N    1.161
    18   7 N    3.476 --    14 C    1.193    17 C    1.161    34 H    0.873
    19   6 C    3.930 --    20 C    1.364    17 C    1.350    35 H    0.971
    20   6 C    3.930 --    19 C    1.364    24 N    1.309    21 C    1.112
    21   6 C    3.967 --    22 C    1.730    20 C    1.112    36 H    0.976
    22   6 C    3.966 --    21 C    1.730    23 C    1.113    37 H    0.976
    23   6 C    3.929 --     1 C    1.364    24 N    1.308    22 C    1.113
    24   7 N    3.016 --    20 C    1.309    23 C    1.308
    25   1 H    1.002 --     1 C    0.972
    26   1 H    0.998 --     3 C    0.977
    27   1 H    0.998 --     4 C    0.977
    28   1 H    0.986 --     6 N    0.873
    29   1 H    1.002 --     7 C    0.971
    30   1 H    0.998 --     9 C    0.976
    31   1 H    1.002 --    10 C    0.975
    32   1 H    1.001 --    15 C    0.975
    33   1 H    0.998 --    16 C    0.977
    34   1 H    0.987 --    18 N    0.873
    35   1 H    1.002 --    19 C    0.971
    36   1 H    0.998 --    21 C    0.976
    37   1 H    0.998 --    22 C    0.976
    38   6 C    3.930 --    60 C    1.364    39 C    1.350    62 H    0.972
    39   6 C    3.903 --    38 C    1.350    40 C    1.225    43 N    1.172
    40   6 C    3.954 --    41 C    1.602    39 C    1.225    63 H    0.977
    41   6 C    3.958 --    40 C    1.602    42 C    1.226    64 H    0.977
    42   6 C    3.897 --    44 C    1.342    41 C    1.226    43 N    1.174
    43   7 N    3.472 --    42 C    1.174    39 C    1.172    65 H    0.873
    44   6 C    3.945 --    45 C    1.379    42 C    1.342    66 H    0.971
    45   6 C    3.915 --    44 C    1.379    48 N    1.277    46 C    1.119
    46   6 C    3.965 --    47 C    1.717    45 C    1.119    67 H    0.976
    47   6 C    3.964 --    46 C    1.717    49 C    1.124    68 H    0.975
    48   7 N    3.027 --    49 C    1.353    45 C    1.277
    49   6 C    3.908 --    48 N    1.353    50 C    1.250    47 C    1.124
    50   6 C    3.943 --    51 C    1.253    49 C    1.250    82 C    1.195
    51   6 C    3.884 --    50 C    1.253    52 C    1.244    55 N    1.193
    52   6 C    3.959 --    53 C    1.590    51 C    1.244    69 H    0.975
    53   6 C    3.953 --    52 C    1.590    54 C    1.233    70 H    0.977
    54   6 C    3.899 --    56 C    1.350    53 C    1.233    55 N    1.161
    55   7 N    3.476 --    51 C    1.193    54 C    1.161    71 H    0.873
    56   6 C    3.930 --    57 C    1.364    54 C    1.350    72 H    0.971
    57   6 C    3.930 --    56 C    1.364    61 N    1.309    58 C    1.112
    58   6 C    3.967 --    59 C    1.730    57 C    1.112    73 H    0.976
    59   6 C    3.966 --    58 C    1.730    60 C    1.113    74 H    0.976
    60   6 C    3.929 --    38 C    1.364    61 N    1.308    59 C    1.113
    61   7 N    3.016 --    57 C    1.309    60 C    1.308
    62   1 H    1.002 --    38 C    0.972
    63   1 H    0.998 --    40 C    0.977
    64   1 H    0.998 --    41 C    0.977
    65   1 H    0.986 --    43 N    0.873
    66   1 H    1.002 --    44 C    0.971
    67   1 H    0.998 --    46 C    0.976
    68   1 H    1.002 --    47 C    0.975
    69   1 H    1.001 --    52 C    0.975
    70   1 H    0.998 --    53 C    0.977
    71   1 H    0.987 --    55 N    0.873
    72   1 H    1.002 --    56 C    0.971
    73   1 H    0.998 --    58 C    0.976
    74   1 H    0.998 --    59 C    0.976
    75   6 C    3.877 --    76 C    2.436    13 C    1.195    78 C    0.186
    76   6 C    3.933 --    75 C    2.436    77 C    1.346
    77   6 C    3.892 --    78 C    2.333    76 C    1.346    80 C    0.182
    78   6 C    3.924 --    77 C    2.333    79 C    1.371    75 C    0.186
    79   6 C    3.924 --    80 C    2.333    78 C    1.371    82 C    0.186
    80   6 C    3.892 --    79 C    2.333    81 C    1.346    77 C    0.182
    81   6 C    3.933 --    82 C    2.436    80 C    1.346
    82   6 C    3.877 --    81 C    2.436    50 C    1.195    79 C    0.186
 ---------------------------------------------------------------------------

           -------------------------------------------------
          | TOTAL ENERGY             -140.735581868390 Eh   |
          | GRADIENT NORM               0.000694753615 Eh/α |
          | HOMO-LUMO GAP               1.061051277831 eV   |
           -------------------------------------------------

 * finished run on 2022/07/26 at 16:54:43.344
