   * xtb version 6.5.1 (b24c23e) compiled by 'conda@728c89f4b128' on 2022-07-12
          program call               : xtb Ph2Me_C4_2.xyz --gfn 1 --opt -T 48

   ID    Z sym.   atoms
    1    6 C      1-5, 7-10, 12-30, 33-40, 70-74, 76-79, 81-99, 102-109,
                  139-142
    2    7 N      6, 11, 31, 32, 75, 80, 100, 101
    3    1 H      41-69, 110-138
########################################################################
[WARNING] Please study the warnings concerning your input carefully
-1- prog_main_parseArguments: Unknown option '-T' provided
########################################################################

          :  Hamiltonian                  GFN1-xTB          :
 * total energy  :  -217.0892829 Eh     change       -0.2772509E-08 Eh
 * total energy  :  -217.2163138 Eh     change       -0.1270309E+00 Eh
 * total energy  :  -217.2725621 Eh     change       -0.5624829E-01 Eh
 * total energy  :  -217.2965524 Eh     change       -0.2399024E-01 Eh
 * total energy  :  -217.3131543 Eh     change       -0.1660194E-01 Eh
 * total energy  :  -217.3252280 Eh     change       -0.1207371E-01 Eh
 * total energy  :  -217.3364754 Eh     change       -0.1124734E-01 Eh
 * total energy  :  -217.3431520 Eh     change       -0.6676678E-02 Eh
 * total energy  :  -217.3505280 Eh     change       -0.7375965E-02 Eh
 * total energy  :  -217.3556225 Eh     change       -0.5094498E-02 Eh
 * total energy  :  -217.3726156 Eh     change       -0.2943480E-04 Eh
 * total energy  :  -217.3726313 Eh     change       -0.1568712E-04 Eh
 * total energy  :  -217.3726407 Eh     change       -0.9372734E-05 Eh
 * total energy  :  -217.3726475 Eh     change       -0.6771693E-05 Eh
 * total energy  :  -217.3726543 Eh     change       -0.6840711E-05 Eh
 * total energy  :  -217.3726648 Eh     change       -0.1045036E-04 Eh
 * total energy  :  -217.3726778 Eh     change       -0.1304410E-04 Eh
 * total energy  :  -217.3726852 Eh     change       -0.7436829E-05 Eh
 * total energy  :  -217.3726888 Eh     change       -0.3506943E-05 Eh
   *** GEOMETRY OPTIMIZATION CONVERGED AFTER 66 ITERATIONS ***

 final structure:
================
142
 xtb: 6.5.1 (b24c23e)
C           11.58473234531649        0.13311639873211        0.02139217934280
C           12.19566863704555        1.32863625648563        0.37713877880689
C           11.54649432797268        2.53724340278507        0.75528747043095
C           12.51104492841846        3.46875879258056        1.01869727923044
C           13.78093072765613        2.86223615241351        0.79970989868738
N           13.53955062223023        1.57091724214123        0.42438462100961
C           15.04442446606276        3.44492572174105        0.94937223049884
C           16.26036583623832        2.78576968362633        0.75464607433133
C           17.55685676160920        3.43087643595739        0.85820092644809
C           18.47913081365899        2.47994035461422        0.60187703222278
N           16.41722741288911        1.47398923000055        0.42357300602176
C           17.74504771485072        1.25868548238382        0.33312777952677
C           18.38342862164471        0.03912307577285        0.02733499611762
C           17.74574653061057       -1.17733815178819       -0.28313570000164
C           18.38710357877399       -2.41246811811584       -0.56496814539328
C           17.41786952070015       -3.34195556243214       -0.82374342771337
C           16.15350326086034       -2.69926223473967       -0.71665100868087
C           14.89107006914516       -3.27489887233421       -0.89376314799238
C           14.85613899622695       -4.70622411986533       -1.28298472811700
C           14.24367738299676       -5.64457966390608       -0.45289044575690
C           14.20701802847384       -6.98760313311839       -0.81085706321761
C           13.53223292624374       -7.99486663008010        0.08069794906524
C           14.78396578428728       -7.38932228565682       -2.01221459021154
C           15.39862904558384       -6.46523030067325       -2.85162384614343
C           15.99967048929893       -6.90724281040764       -4.15859296032373
C           15.43327963430893       -5.12512910014974       -2.48100630416593
C           13.67463801199061       -2.60360074715782       -0.73336242807967
C           12.37177638907681       -3.20417792873452       -0.97464357017051
C           11.45633709826051       -2.24883475226080       -0.71551662460991
C           12.19881026900551       -1.06284705500361       -0.32680470019974
N           13.53114907113847       -1.31081239094508       -0.35644532832197
N           16.40381892094690       -1.39482726937760       -0.37990029460118
C           15.07283031007250        4.87629410387011        1.34077469486773
C           15.67392820730984        5.26810495707839        2.53535588452450
C           15.69600267664269        6.60816162534825        2.90979229283953
C           16.36061343273701        7.01891547048561        4.19597776886368
C           15.11383362077373        7.55832618496062        2.07756343501865
C           14.50905993366861        7.18293745299481        0.88097721421647
C           13.89905074867843        8.22278063187054       -0.01992893076036
C           14.49115951799559        5.84109228655914        0.51826065866298
H           10.49942120188804        0.14417678372399        0.01732773060618
H           10.47731568008122        2.66269155055766        0.81932701547886
H           12.36211701320469        4.48553621781624        1.34423151244167
H           14.26295969466382        0.89111706728037        0.21522092721585
H           17.71723302070300        4.47297775330951        1.08265497968278
H           19.55334198318744        2.57213371724220        0.58199386568092
H           19.45474329922467       -2.56236542284926       -0.56179198675085
H           17.56200474807343       -4.38374743832766       -1.05951607100381
H           13.81079373891250       -5.32150154450455        0.48750433350639
H           12.50343163686176       -8.15295250107953       -0.25097072279201
H           14.05022904378611       -8.95363055972257        0.04388780415274
H           13.50694155903290       -7.64609032412246        1.11312417937949
H           14.75655418808093       -8.43637043141503       -2.29612395857046
H           16.80901814234151       -6.24170309814596       -4.45929231026903
H           16.38691689196556       -7.92364274048355       -4.08359605914686
H           15.23772940569117       -6.89141584686842       -4.94129996769870
H           15.89676039003677       -4.39393685339331       -3.13438161315668
H           12.20584156638036       -4.21569406251737       -1.30896487792313
H           10.38103351601215       -2.30796458614597       -0.78024665810280
H           15.68390060719487       -0.69789424512078       -0.21994930325482
H           16.11062185654034        4.51696497440577        3.18451048445075
H           16.13680138243104        6.30619739541007        4.99047362521537
H           16.03027673322749        8.00982652264801        4.50740657028782
H           17.44435341861757        7.04524099656262        4.06206800933121
H           15.12762963141253        8.60470879507562        2.36486563989033
H           13.46413627176610        9.03437133295962        0.56409426296530
H           14.66723145244180        8.64733689859954       -0.67035180708600
H           13.12385599721163        7.78581967843468       -0.64962031936576
H           14.03584756039284        5.53883652670900       -0.41865794515417
C           31.78807137801883       -0.12527124787823       -0.04816864475884
C           31.17715735669078       -1.33690486489790       -0.34446704109514
C           31.82640594670701       -2.57116367045603       -0.62771175272796
C           30.86193319131585       -3.50819067568465       -0.87110949987843
C           29.59202294759764       -2.87396192472168       -0.75483002215420
N           29.83330633254100       -1.56982523493426       -0.42671894945621
C           28.32855702719543       -3.45228419391935       -0.92089374688063
C           27.11262985476929       -2.78479976803900       -0.75668053160193
C           25.81613220944086       -3.39342543283404       -0.99426783100088
C           24.89391596436469       -2.44320686306356       -0.73505994481392
N           26.95583719843595       -1.48560232561687       -0.37922588585702
C           25.62804334879949       -1.25388221801292       -0.34888671960171
C           24.98975316214841       -0.04708408923878        0.00407686271973
C           25.62745626970565        1.15933567289782        0.35150946660079
C           24.98603182344934        2.36723389087030        0.73342974739927
C           25.95517737700045        3.30021104686673        0.97968553928106
C           27.21955048163214        2.69195315462908        0.74619225777751
C           28.48194298619785        3.27854985194502        0.88322392197425
C           28.51686022612397        4.71040926720534        1.27036446439105
C           29.13140173687222        5.10114341607315        2.45963992994009
C           29.16814255030261        6.44102189291809        2.82917289823295
C           29.84530937695135        6.86018254980111        4.10609475155282
C           28.58903686164239        7.39436918067355        1.99654438641980
C           27.97221742815858        7.02066973233176        0.80648433978566
C           27.36873530310963        8.06214384001754       -0.09680856657934
C           27.93763941443746        5.67693199057726        0.44927065584291
C           29.69834458854797        2.61832912572608        0.68172782918459
C           31.00121612852335        3.25867281654861        0.77574399932550
C           31.91658406105749        2.30314323689665        0.51702954203979
C           31.17404864364985        1.08302314757546        0.25459102618210
N           29.84174560467937        1.31205452913209        0.35455250896700
N           26.96933957309296        1.39620785439539        0.37732936575915
C           28.30012994785843       -4.88526982006283       -1.30621493957053
C           27.69700891220678       -5.82654052563269       -0.47426609904390
C           27.67472240335718       -7.17217062242766       -0.82811367344398
C           27.00765914189918       -8.17594765271761        0.07308365054114
C           28.25889496774217       -7.57215192142171       -2.02522956596407
C           28.86580256731595       -6.64408595766568       -2.86714964563327
C           29.47812979606920       -7.08682456022798       -4.16871274422248
C           28.88372692815209       -5.30279844703001       -2.50237910786095
H           32.87338661197671       -0.13281927026418       -0.05712323696543
H           32.89557806776167       -2.71186813029774       -0.63507540850566
H           31.01094913319342       -4.55026827693235       -1.10318569149060
H           29.10982503812949       -0.87739593323299       -0.26449846804173
H           25.65567537971957       -4.40591322187021       -1.32772020573609
H           23.81972396713144       -2.51249086649545       -0.79938943838342
H           23.91840846303323        2.49463455897600        0.81268944536272
H           25.81096197021247        4.31811929698276        1.30334773264079
H           29.56586225339185        4.34743618758827        3.10715649325788
H           30.87338090797964        7.16516116714540        3.89756591353363
H           29.32753128284592        7.70561578991216        4.56002265584223
H           29.87290233624604        6.03745789461333        4.82062144764992
H           28.61644841363470        8.44140555775885        2.28049588966282
H           26.55847505652696        7.63926542219012       -0.69099542827422
H           26.98209709106931        8.90107983071700        0.48228597074695
H           28.12907333823973        8.44449891927994       -0.78173318607742
H           27.47256647443665        5.37584032470450       -0.48314971522365
H           31.16722723899406        4.30070083518608        0.99729324889085
H           32.99187001444040        2.38691187552769        0.49046151250565
H           27.68934158947860        0.71427196276565        0.16252307591692
H           27.25882597210186       -5.50596799652845        0.46464963389954
H           27.22906988633028       -7.96202995414435        1.11926442055430
H           27.33817463769523       -9.18862386636666       -0.15769959445678
H           25.92424151957742       -8.13067140744599       -0.05836078615812
H           28.24500074209922       -8.62033634678259       -2.30588160402732
H           29.91252476215028       -8.08240604188644       -4.07366091320427
H           28.71142271891554       -7.12454044843150       -4.94597425544691
H           30.25418468052130       -6.39195071128823       -4.49005646038935
H           29.34058956077299       -4.56893630169332       -3.15752144181464
C           21.01184402595884        0.00233143784503        0.02416172724803
C           19.78950136630777        0.02134794615223        0.02624370446283
C           22.36138417816404       -0.01412091495636        0.02018622050616
C           23.58368300051152       -0.03097287099067        0.01179624347700

          :  Hamiltonian                  GFN1-xTB          :
         :: total energy            -217.372688755835 Eh    ::
         :: gradient norm              0.000367729857 Eh/a0 ::
         :: HOMO-LUMO gap              0.993100960650 eV    ::
         :: SCC energy              -220.984389203117 Eh    ::
         :: repulsion energy           3.725986964321 Eh    ::

    * Orbital Energies and Occupations

         #    Occupation            Energy/Eh            Energy/eV
      -------------------------------------------------------------
         1        2.0000           -0.7997950             -21.7635
       ...           ...                  ...                  ...
       189        2.0000           -0.4204275             -11.4404
       190        2.0000           -0.4173322             -11.3562
       191        2.0000           -0.4164901             -11.3333
       192        2.0000           -0.4156751             -11.3111
       193        2.0000           -0.4136851             -11.2569
       194        2.0000           -0.4125000             -11.2247
       195        2.0000           -0.4123672             -11.2211
       196        2.0000           -0.4110865             -11.1862
       197        2.0000           -0.4110661             -11.1857
       198        2.0000           -0.3948519             -10.7445
       199        2.0000           -0.3944560             -10.7337
       200        2.0000           -0.3845116             -10.4631
       201        2.0000           -0.3735369             -10.1645 (HOMO)
       202                         -0.3370411              -9.1714 (LUMO)
       203                         -0.3267532              -8.8914
       204                         -0.3265549              -8.8860
       205                         -0.3234330              -8.8011
       206                         -0.2954044              -8.0384
       207                         -0.2878129              -7.8318
       208                         -0.2575181              -7.0074
       209                         -0.2572507              -7.0001
       210                         -0.2568802              -6.9901
       211                         -0.2568726              -6.9899
       212                         -0.2566488              -6.9838
       ...                                ...                  ...
       452                          1.5190471              41.3354
      -------------------------------------------------------------
                  HL-Gap            0.0364958 Eh            0.9931 eV

Wiberg/Mayer (AO) data.
largest (>0.10) Wiberg bond orders for each atom

     #   Z sym  total        # sym  WBO       # sym  WBO       # sym  WBO
 ---------------------------------------------------------------------------
     1   6 C    3.924 --    30 C    1.365     2 C    1.346    41 H    0.971
     2   6 C    3.903 --     1 C    1.346     3 C    1.230     6 N    1.170
     3   6 C    3.953 --     4 C    1.594     2 C    1.230    42 H    0.977
     4   6 C    3.959 --     3 C    1.594     5 C    1.235    43 H    0.974
     5   6 C    3.896 --     7 C    1.303     4 C    1.235     6 N    1.176
     6   7 N    3.469 --     5 C    1.176     2 C    1.170    44 H    0.874
     7   6 C    3.939 --     8 C    1.336     5 C    1.303    33 C    1.027
     8   6 C    3.915 --     7 C    1.336    11 N    1.285     9 C    1.126
     9   6 C    3.966 --    10 C    1.709     8 C    1.126    45 H    0.974
    10   6 C    3.964 --     9 C    1.709    12 C    1.129    46 H    0.974
    11   7 N    3.021 --    12 C    1.345     8 C    1.285
    12   6 C    3.910 --    11 N    1.345    13 C    1.254    10 C    1.129
    13   6 C    3.935 --    12 C    1.254    14 C    1.251   140 C    1.190
    14   6 C    3.886 --    13 C    1.251    15 C    1.250    32 N    1.190
    15   6 C    3.959 --    16 C    1.582    14 C    1.250    47 H    0.975
    16   6 C    3.955 --    15 C    1.582    17 C    1.242    48 H    0.974
    17   6 C    3.898 --    18 C    1.310    16 C    1.242    32 N    1.164
    18   6 C    3.925 --    27 C    1.322    17 C    1.310    19 C    1.028
    19   6 C    3.988 --    26 C    1.397    20 C    1.395    18 C    1.028
                            23 C    0.103
    20   6 C    3.986 --    21 C    1.419    19 C    1.395    49 H    0.972
                            24 C    0.103
    21   6 C    3.988 --    20 C    1.419    23 C    1.414    22 C    1.020
                            26 C    0.103
    22   6 C    3.996 --    21 C    1.020    52 H    0.984    51 H    0.982
                            50 H    0.971
    23   6 C    3.987 --    24 C    1.416    21 C    1.414    53 H    0.972
                            19 C    0.103
    24   6 C    3.988 --    26 C    1.417    23 C    1.416    25 C    1.020
                            20 C    0.103
    25   6 C    3.995 --    24 C    1.020    54 H    0.983    55 H    0.982
                            56 H    0.971
    26   6 C    3.985 --    24 C    1.417    19 C    1.397    57 H    0.972
                            21 C    0.103
    27   6 C    3.929 --    18 C    1.322    31 N    1.316    28 C    1.118
    28   6 C    3.967 --    29 C    1.722    27 C    1.118    58 H    0.974
    29   6 C    3.966 --    28 C    1.722    30 C    1.117    59 H    0.976
    30   6 C    3.930 --     1 C    1.365    31 N    1.301    29 C    1.117
    31   7 N    3.011 --    27 C    1.316    30 C    1.301
    32   7 N    3.474 --    14 C    1.190    17 C    1.164    60 H    0.873
    33   6 C    3.988 --    34 C    1.400    40 C    1.393     7 C    1.027
                            37 C    0.102
    34   6 C    3.987 --    35 C    1.413    33 C    1.400    61 H    0.972
                            38 C    0.104
    35   6 C    3.988 --    37 C    1.419    34 C    1.413    36 C    1.020
                            40 C    0.103
    36   6 C    3.996 --    35 C    1.020    63 H    0.985    62 H    0.980
                            64 H    0.972
    37   6 C    3.988 --    35 C    1.419    38 C    1.411    65 H    0.972
                            33 C    0.102
    38   6 C    3.988 --    40 C    1.421    37 C    1.411    39 C    1.020
                            34 C    0.104
    39   6 C    3.996 --    38 C    1.020    68 H    0.984    66 H    0.982
                            67 H    0.971
    40   6 C    3.986 --    38 C    1.421    33 C    1.393    69 H    0.972
                            35 C    0.103
    41   1 H    1.002 --     1 C    0.971
    42   1 H    0.998 --     3 C    0.977
    43   1 H    1.005 --     4 C    0.974
    44   1 H    0.986 --     6 N    0.874
    45   1 H    1.005 --     9 C    0.974
    46   1 H    1.003 --    10 C    0.974
    47   1 H    1.002 --    15 C    0.975
    48   1 H    1.005 --    16 C    0.974
    49   1 H    1.003 --    20 C    0.972
    50   1 H    1.006 --    22 C    0.971
    51   1 H    1.004 --    22 C    0.982
    52   1 H    1.004 --    22 C    0.984
    53   1 H    1.000 --    23 C    0.972
    54   1 H    1.004 --    25 C    0.983
    55   1 H    1.004 --    25 C    0.982
    56   1 H    1.006 --    25 C    0.971
    57   1 H    1.003 --    26 C    0.972
    58   1 H    1.006 --    28 C    0.974
    59   1 H    0.999 --    29 C    0.976
    60   1 H    0.987 --    32 N    0.873
    61   1 H    1.003 --    34 C    0.972
    62   1 H    1.005 --    36 C    0.980
    63   1 H    1.004 --    36 C    0.985
    64   1 H    1.006 --    36 C    0.972
    65   1 H    1.000 --    37 C    0.972
    66   1 H    1.004 --    39 C    0.982
    67   1 H    1.006 --    39 C    0.971
    68   1 H    1.004 --    39 C    0.984
    69   1 H    1.003 --    40 C    0.972
    70   6 C    3.924 --    99 C    1.365    71 C    1.346   110 H    0.971
    71   6 C    3.903 --    70 C    1.346    72 C    1.230    75 N    1.170
    72   6 C    3.953 --    73 C    1.594    71 C    1.230   111 H    0.977
    73   6 C    3.959 --    72 C    1.594    74 C    1.235   112 H    0.974
    74   6 C    3.896 --    76 C    1.303    73 C    1.235    75 N    1.176
    75   7 N    3.469 --    74 C    1.176    71 C    1.170   113 H    0.874
    76   6 C    3.939 --    77 C    1.336    74 C    1.303   102 C    1.027
    77   6 C    3.915 --    76 C    1.336    80 N    1.285    78 C    1.126
    78   6 C    3.966 --    79 C    1.709    77 C    1.126   114 H    0.974
    79   6 C    3.964 --    78 C    1.709    81 C    1.129   115 H    0.974
    80   7 N    3.021 --    81 C    1.345    77 C    1.285
    81   6 C    3.910 --    80 N    1.345    82 C    1.254    79 C    1.129
    82   6 C    3.935 --    81 C    1.254    83 C    1.251   142 C    1.190
    83   6 C    3.886 --    82 C    1.251    84 C    1.250   101 N    1.190
    84   6 C    3.959 --    85 C    1.582    83 C    1.250   116 H    0.975
    85   6 C    3.955 --    84 C    1.582    86 C    1.242   117 H    0.974
    86   6 C    3.898 --    87 C    1.310    85 C    1.242   101 N    1.164
    87   6 C    3.925 --    96 C    1.322    86 C    1.310    88 C    1.028
    88   6 C    3.988 --    95 C    1.397    89 C    1.395    87 C    1.028
                            92 C    0.103
    89   6 C    3.986 --    90 C    1.419    88 C    1.395   118 H    0.972
                            93 C    0.103
    90   6 C    3.988 --    89 C    1.419    92 C    1.414    91 C    1.020
                            95 C    0.103
    91   6 C    3.996 --    90 C    1.020   121 H    0.984   120 H    0.982
                           119 H    0.971
    92   6 C    3.987 --    93 C    1.416    90 C    1.414   122 H    0.972
                            88 C    0.103
    93   6 C    3.988 --    95 C    1.417    92 C    1.416    94 C    1.020
                            89 C    0.103
    94   6 C    3.995 --    93 C    1.020   123 H    0.983   124 H    0.982
                           125 H    0.971
    95   6 C    3.985 --    93 C    1.417    88 C    1.397   126 H    0.972
                            90 C    0.103
    96   6 C    3.929 --    87 C    1.322   100 N    1.316    97 C    1.118
    97   6 C    3.967 --    98 C    1.722    96 C    1.118   127 H    0.974
    98   6 C    3.966 --    97 C    1.722    99 C    1.117   128 H    0.976
    99   6 C    3.930 --    70 C    1.365   100 N    1.301    98 C    1.117
   100   7 N    3.011 --    96 C    1.316    99 C    1.301
   101   7 N    3.474 --    83 C    1.190    86 C    1.164   129 H    0.873
   102   6 C    3.988 --   103 C    1.400   109 C    1.393    76 C    1.027
                           106 C    0.102
   103   6 C    3.987 --   104 C    1.413   102 C    1.400   130 H    0.972
                           107 C    0.104
   104   6 C    3.988 --   106 C    1.419   103 C    1.413   105 C    1.020
                           109 C    0.103
   105   6 C    3.996 --   104 C    1.020   132 H    0.985   131 H    0.980
                           133 H    0.972
   106   6 C    3.988 --   104 C    1.419   107 C    1.411   134 H    0.972
                           102 C    0.102
   107   6 C    3.988 --   109 C    1.421   106 C    1.411   108 C    1.020
                           103 C    0.104
   108   6 C    3.996 --   107 C    1.020   137 H    0.984   135 H    0.982
                           136 H    0.971
   109   6 C    3.986 --   107 C    1.421   102 C    1.393   138 H    0.972
                           104 C    0.103
   110   1 H    1.002 --    70 C    0.971
   111   1 H    0.998 --    72 C    0.977
   112   1 H    1.005 --    73 C    0.974
   113   1 H    0.986 --    75 N    0.874
   114   1 H    1.005 --    78 C    0.974
   115   1 H    1.003 --    79 C    0.974
   116   1 H    1.002 --    84 C    0.975
   117   1 H    1.005 --    85 C    0.974
   118   1 H    1.003 --    89 C    0.972
   119   1 H    1.006 --    91 C    0.971
   120   1 H    1.004 --    91 C    0.982
   121   1 H    1.004 --    91 C    0.984
   122   1 H    1.000 --    92 C    0.972
   123   1 H    1.004 --    94 C    0.983
   124   1 H    1.004 --    94 C    0.982
   125   1 H    1.006 --    94 C    0.971
   126   1 H    1.003 --    95 C    0.972
   127   1 H    1.006 --    97 C    0.974
   128   1 H    0.999 --    98 C    0.976
   129   1 H    0.987 --   101 N    0.873
   130   1 H    1.003 --   103 C    0.972
   131   1 H    1.005 --   105 C    0.980
   132   1 H    1.004 --   105 C    0.985
   133   1 H    1.006 --   105 C    0.972
   134   1 H    1.000 --   106 C    0.972
   135   1 H    1.004 --   108 C    0.982
   136   1 H    1.006 --   108 C    0.971
   137   1 H    1.004 --   108 C    0.984
   138   1 H    1.003 --   109 C    0.972
   139   6 C    3.932 --   140 C    2.473   141 C    1.310
   140   6 C    3.925 --   139 C    2.473    13 C    1.190   142 C    0.199
   141   6 C    3.933 --   142 C    2.473   139 C    1.310
   142   6 C    3.925 --   141 C    2.473    82 C    1.190   140 C    0.199
 ---------------------------------------------------------------------------

           -------------------------------------------------
          | TOTAL ENERGY             -217.372688755835 Eh   |
          | GRADIENT NORM               0.000367729857 Eh/α |
          | HOMO-LUMO GAP               0.993100960650 eV   |
           -------------------------------------------------

 * finished run on 2022/07/27 at 17:33:45.624
