   * xtb version 6.5.1 (b24c23e) compiled by 'conda@728c89f4b128' on 2022-07-12
          program call               : xtb Co_Py_C2_2.xyz --gfn 1 --opt -T 48

   ID    Z sym.   atoms
    1   27 Co     1, 55
    2    6 C      2-6, 8-11, 13-17, 19-24, 26-29, 31-36, 56-60, 62-65, 67-71,
                  73-78, 80-83, 85-90, 109, 110
    3    7 N      7, 12, 18, 25, 30, 37, 61, 66, 72, 79, 84, 91
    4    1 H      38-54, 92-108
########################################################################
[WARNING] Please study the warnings concerning your input carefully
-1- prog_main_parseArguments: Unknown option '-T' provided
########################################################################

          :  Hamiltonian                  GFN1-xTB          :
 * total energy  :  -193.8698951 Eh     change       -0.2472348E-08 Eh
 * total energy  :  -194.3594869 Eh     change       -0.4895917E+00 Eh
 * total energy  :  -194.4851040 Eh     change       -0.1256171E+00 Eh
 * total energy  :  -194.5399257 Eh     change       -0.5482168E-01 Eh
 * total energy  :  -194.5694379 Eh     change       -0.2951224E-01 Eh
 * total energy  :  -194.5840379 Eh     change       -0.1459999E-01 Eh
 * total energy  :  -194.5936571 Eh     change       -0.9619169E-02 Eh
 * total energy  :  -194.6001516 Eh     change       -0.6494497E-02 Eh
 * total energy  :  -194.6046161 Eh     change       -0.4464491E-02 Eh
 * total energy  :  -194.6076883 Eh     change       -0.3072242E-02 Eh
 * total energy  :  -194.6145745 Eh     change       -0.5860226E-04 Eh
 * total energy  :  -194.6146163 Eh     change       -0.4183221E-04 Eh
 * total energy  :  -194.6146365 Eh     change       -0.2013592E-04 Eh
 * total energy  :  -194.6146493 Eh     change       -0.1285994E-04 Eh
 * total energy  :  -194.6146609 Eh     change       -0.1155215E-04 Eh
 * total energy  :  -194.6146714 Eh     change       -0.1056062E-04 Eh
 * total energy  :  -194.6146798 Eh     change       -0.8393643E-05 Eh
 * total energy  :  -194.6146861 Eh     change       -0.6238936E-05 Eh
 * total energy  :  -194.6146908 Eh     change       -0.4785299E-05 Eh
   *** GEOMETRY OPTIMIZATION CONVERGED AFTER 36 ITERATIONS ***

 final structure:
================
110
 xtb: 6.5.1 (b24c23e)
Co          13.68447414421130       -0.05371013844720        0.00042015228916
C           10.31017858262077       -0.09089178629606       -0.07970452214318
C           10.97992419803050       -1.28890868829479       -0.20291702916873
C           10.32433002012152       -2.55422849248861       -0.33838698951730
C           11.28107341735814       -3.50247779136548       -0.20948177956799
C           12.52315025253978       -2.81486372493229       -0.00703366552443
N           12.33413296524856       -1.45697268443895       -0.05416000753489
C           13.70873230001035       -3.44041385774966        0.35374367154635
C           13.71251752246804       -4.91012916369708        0.54187702411688
C           13.92917369968220       -5.47674061282806        1.79677281553654
C           13.91308403586505       -6.85679658781543        1.92544877505304
N           13.70320841805315       -7.67732135057014        0.90122448546742
C           13.49982113286149       -7.14435923561912       -0.29912845668770
C           13.49343235224290       -5.77713989645817       -0.52732387193948
C           14.88681281061914       -2.73451186653462        0.54441747857442
C           16.13710836843646       -3.34106278511478        0.88997627713171
C           17.08459139551692       -2.38094292298593        0.76638270235027
N           15.06605026558945       -1.40149261447019        0.25084788266832
C           16.41405135291112       -1.19377055382234        0.34027328489461
C           17.07986186777944       -0.03040088838620       -0.05292882761477
C           16.38833309373786        1.12637054640217       -0.41796717062826
C           17.02998712725376        2.32611227428984       -0.85381440897692
C           16.06841572088255        3.27746339747324       -0.92750477921291
C           14.84146235817597        2.65452682762443       -0.53195492799651
N           15.04004239353944        1.31479726077825       -0.28859770799872
C           13.65139643676224        3.33803076045798       -0.33092856257229
C           13.64185955969793        4.81187747270038       -0.45914902080055
C           12.83030702702675        5.45350451017757       -1.39421969684029
C           12.86253991480575        6.83634346926935       -1.48053976800787
N           13.63183268611328        7.59287173290004       -0.70438529934565
C           14.40598676560496        6.98940602343452        0.19186352636555
C           14.44815636202587        5.61309526351770        0.34874613808461
C           12.46896674773164        2.67765618293260       -0.02514282527118
C           11.21732758595888        3.33342299542301        0.21717949507508
C           10.27254774716852        2.36508785145500        0.27014272506629
C           10.95075542096548        1.11935380613720        0.07943534575401
N           12.30279037519848        1.31638153723481       -0.04374536096923
H            9.22675702961132       -0.10277233813062       -0.09399359268870
H            9.26367852529270       -2.67938021767637       -0.48738138979020
H           11.16653665668313       -4.57408431717584       -0.22670527736706
H           14.09185102546980       -4.84583820307617        2.66245078550871
H           14.07390467540779       -7.32240336231817        2.89343176138860
H           13.33393915000173       -7.84060541212120       -1.11604926369365
H           13.33416011626839       -5.38744524062269       -1.52563686773120
H           16.26502464821920       -4.37395644743349        1.16975970209917
H           18.14657556544351       -2.45790433632527        0.93394400171810
H           18.08250830589124        2.41478144862798       -1.06852272471158
H           16.16901585695598        4.30929222730546       -1.22205118861037
H           12.19651548390625        4.87658505063525       -2.05710479040192
H           12.24413559107387        7.35833284182579       -2.20493737876871
H           15.02101715245633        7.63438601895914        0.81256955220036
H           15.08714450632712        5.16502389155365        1.10038297135844
H           11.09180022139570        4.39847783953593        0.32581961341285
H            9.20940883886612        2.46479651038004        0.42078124117649
Co          24.50582132910683        0.05151048251967       -0.01522591782932
C           27.88011731370857        0.06378481916015       -0.10272405257079
C           27.21037050361025        1.17423237666797       -0.56890845624485
C           27.86596557896240        2.34551599723310       -1.06637538576053
C           26.90922003260386        3.29027803314656       -1.21874069443944
C           25.66714575222377        2.69122865477357       -0.82510612520922
N           25.85616338089695        1.37828962024220       -0.47542159255888
C           24.48156429605505        3.39464855773341       -0.66177413167219
C           24.47777654217214        4.85557389607824       -0.90906502383301
C           24.26112980774077        5.76254925082735        0.12689630980373
C           24.27724678563083        7.12040570343893       -0.15120506104008
N           24.48708570142984        7.60771099642628       -1.36974893227442
C           24.69043890574756        6.74878677818098       -2.36331228364393
C           24.69685320862107        5.37428333170580       -2.18415123218401
C           23.30348394799762        2.77467319588750       -0.27410980965541
C           22.05318689327711        3.45548827683761       -0.11983754800169
C           21.10570365742121        2.50090940630813        0.04105043577755
N           23.12424530809163        1.41388372510295       -0.16745549134652
C           21.77624397400780        1.24113383805350       -0.02149757336612
C           21.11043324957420        0.01369997786000       -0.05947246630323
C           21.80196185746786       -1.19923293994929       -0.07242663036232
C           21.16030773754316       -2.47386626823151       -0.14063833049889
C           22.12187774650354       -3.40554617796849        0.06545416814714
C           23.34883260037920       -2.69451811987790        0.26279884190508
N           23.15025314071850       -1.34190833433807        0.10613297143109
C           24.53889967185783       -3.29005188734742        0.65385648701277
C           24.54843441413640       -4.73751079400242        0.95967890262213
C           25.35997885440317       -5.62328569667185        0.25154075947328
C           25.32774429590022       -6.97148565891857        0.57099618927966
N           24.55845313500111       -7.46967290761930        1.53357852234386
C           23.78430476189662       -6.63169821714766        2.21566484886164
C           23.74214173539769       -5.26922819679025        1.96562583778256
C           25.72133074244598       -2.56930191558057        0.75442989426345
C           26.97297383129897       -3.12629545339838        1.17691836837405
C           27.91775117782518       -2.18438603914634        0.94607452037780
C           27.23954230238546       -1.04791472984527        0.40140911225501
N           25.88750522352899       -1.27223788675195        0.34085979326671
H           28.96353893655400        0.07100467751916       -0.11983458816322
H           28.92661667057797        2.42194487943219       -1.24531774979026
H           27.02375593785471        4.31058750082015       -1.54677691944080
H           24.09842846795045        5.41057704922808        1.13859868756120
H           24.11634647374309        7.84731542739082        0.63957896498825
H           24.85638759738643        7.17745842616276       -3.34735158814056
H           24.85615132977813        4.71118332712154       -3.02603936761601
H           21.92527056639996        4.52510750701674       -0.15243711936924
H           20.04371901247719        2.62326242393996        0.17899982881521
H           20.10778645168484       -2.62112868431119       -0.32029183930889
H           22.02127649650102       -4.47843840800366        0.08362767560050
H           25.99376173541196       -5.26401785529411       -0.55045039616062
H           25.94613210693582       -7.68154094571050        0.02964152193319
H           23.16928765415099       -7.06834856477388        2.99709012233632
H           23.10316543342208       -4.62197870676713        2.55453029915025
H           27.09850417641800       -4.11376111174360        1.59050346798703
H           28.98089152607318       -2.23599267515671        1.11918761991709
C           18.48677193946313       -0.01703010450026       -0.06672727330768
C           19.70352331556584       -0.00310408079967       -0.06879482793782

          :  Hamiltonian                  GFN1-xTB          :
         :: total energy            -194.614690840714 Eh    ::
         :: gradient norm              0.000500372658 Eh/a0 ::
         :: HOMO-LUMO gap              0.009439281279 eV    ::
         :: SCC energy              -197.601456633727 Eh    ::
         :: repulsion energy           3.088568447830 Eh    ::

    * Orbital Energies and Occupations

         #    Occupation            Energy/Eh            Energy/eV
      -------------------------------------------------------------
         1        2.0000           -0.7778647             -21.1668
       ...           ...                  ...                  ...
       168        2.0000           -0.4221597             -11.4876
       169        2.0000           -0.4221360             -11.4869
       170        2.0000           -0.4066222             -11.0648
       171        2.0000           -0.4034281             -10.9778
       172        2.0000           -0.4033863             -10.9767
       173        2.0000           -0.4021922             -10.9442
       174        2.0000           -0.4021846             -10.9440
       175        1.9998           -0.3988137             -10.8523
       176        1.9998           -0.3988122             -10.8522
       177        1.9998           -0.3987247             -10.8499
       178        1.9998           -0.3987225             -10.8498
       179        1.9097           -0.3929723             -10.6933
       180        1.1364           -0.3903341             -10.6215 (HOMO)
       181        0.9547           -0.3899872             -10.6121 (LUMO)
       182                         -0.3449851              -9.3875
       183                         -0.3353263              -9.1247
       184                         -0.3353092              -9.1242
       185                         -0.3285717              -8.9409
       186                         -0.3051415              -8.3033
       187                         -0.3006396              -8.1808
       188                         -0.3006344              -8.1807
       189                         -0.2978414              -8.1047
       190                         -0.2838426              -7.7238
       191                         -0.2838273              -7.7233
       ...                                ...                  ...
       382                          1.3347500              36.3204
      -------------------------------------------------------------
                  HL-Gap            0.0003469 Eh            0.0094 eV

Wiberg/Mayer (AO) data.
largest (>0.10) Wiberg bond orders for each atom

     #   Z sym  total        # sym  WBO       # sym  WBO       # sym  WBO
 ---------------------------------------------------------------------------
     1  27 Co   3.055 --     7 N    0.641    37 N    0.637    25 N    0.636
                            18 N    0.634
     2   6 C    3.929 --     3 C    1.367    36 C    1.363    38 H    0.970
     3   6 C    3.924 --     2 C    1.367     7 N    1.200     4 C    1.173
     4   6 C    3.960 --     5 C    1.652     3 C    1.173    39 H    0.975
     5   6 C    3.963 --     4 C    1.652     6 C    1.175    40 H    0.972
     6   6 C    3.920 --     8 C    1.321     7 N    1.212     5 C    1.175
     7   7 N    3.345 --     6 C    1.212     3 C    1.200     1 Co   0.641
     8   6 C    3.932 --    15 C    1.332     6 C    1.321     9 C    1.023
     9   6 C    3.986 --    10 C    1.395    14 C    1.394     8 C    1.023
                            12 N    0.107
    10   6 C    3.987 --    11 C    1.441     9 C    1.395    41 H    0.973
                            13 C    0.109
    11   6 C    3.972 --    10 C    1.441    12 N    1.416    42 H    0.972
                            14 C    0.109
    12   7 N    3.031 --    11 C    1.416    13 C    1.416     9 C    0.107
    13   6 C    3.972 --    14 C    1.441    12 N    1.416    43 H    0.972
                            10 C    0.109
    14   6 C    3.987 --    13 C    1.441     9 C    1.394    44 H    0.973
                            11 C    0.109
    15   6 C    3.917 --     8 C    1.332    18 N    1.193    16 C    1.181
    16   6 C    3.958 --    17 C    1.638    15 C    1.181    45 H    0.973
    17   6 C    3.962 --    16 C    1.638    19 C    1.190    46 H    0.971
    18   7 N    3.349 --    19 C    1.230    15 C    1.193     1 Co   0.634
    19   6 C    3.909 --    20 C    1.263    18 N    1.230    17 C    1.190
    20   6 C    3.934 --    21 C    1.266    19 C    1.263   109 C    1.178
    21   6 C    3.909 --    20 C    1.266    25 N    1.228    22 C    1.189
    22   6 C    3.962 --    23 C    1.637    21 C    1.189    47 H    0.971
    23   6 C    3.959 --    22 C    1.637    24 C    1.182    48 H    0.973
    24   6 C    3.918 --    26 C    1.329    25 N    1.195    23 C    1.182
    25   7 N    3.347 --    21 C    1.228    24 C    1.195     1 Co   0.636
    26   6 C    3.932 --    24 C    1.329    33 C    1.318    27 C    1.031
    27   6 C    3.986 --    28 C    1.392    32 C    1.391    26 C    1.031
                            30 N    0.106
    28   6 C    3.986 --    29 C    1.442    27 C    1.392    49 H    0.973
                            31 C    0.108
    29   6 C    3.972 --    28 C    1.442    30 N    1.416    50 H    0.972
                            32 C    0.108
    30   7 N    3.030 --    29 C    1.416    31 C    1.415    27 C    0.106
    31   6 C    3.972 --    32 C    1.442    30 N    1.415    51 H    0.972
                            28 C    0.108
    32   6 C    3.987 --    31 C    1.442    27 C    1.391    52 H    0.973
                            29 C    0.108
    33   6 C    3.921 --    26 C    1.318    37 N    1.212    34 C    1.176
    34   6 C    3.963 --    35 C    1.648    33 C    1.176    53 H    0.973
    35   6 C    3.960 --    34 C    1.648    36 C    1.175    54 H    0.975
    36   6 C    3.924 --     2 C    1.363    37 N    1.202    35 C    1.175
    37   7 N    3.346 --    33 C    1.212    36 C    1.202     1 Co   0.637
    38   1 H    1.000 --     2 C    0.970
    39   1 H    0.997 --     4 C    0.975
    40   1 H    1.004 --     5 C    0.972
    41   1 H    1.003 --    10 C    0.973
    42   1 H    1.013 --    11 C    0.972
    43   1 H    1.013 --    13 C    0.972
    44   1 H    1.003 --    14 C    0.973
    45   1 H    1.004 --    16 C    0.973
    46   1 H    1.004 --    17 C    0.971
    47   1 H    1.004 --    22 C    0.971
    48   1 H    1.003 --    23 C    0.973
    49   1 H    1.004 --    28 C    0.973
    50   1 H    1.013 --    29 C    0.972
    51   1 H    1.013 --    31 C    0.972
    52   1 H    1.004 --    32 C    0.973
    53   1 H    1.004 --    34 C    0.973
    54   1 H    0.997 --    35 C    0.975
    55  27 Co   3.055 --    61 N    0.641    91 N    0.637    79 N    0.636
                            72 N    0.634
    56   6 C    3.929 --    57 C    1.367    90 C    1.363    92 H    0.970
    57   6 C    3.924 --    56 C    1.367    61 N    1.200    58 C    1.173
    58   6 C    3.960 --    59 C    1.652    57 C    1.173    93 H    0.975
    59   6 C    3.963 --    58 C    1.652    60 C    1.175    94 H    0.972
    60   6 C    3.920 --    62 C    1.321    61 N    1.212    59 C    1.175
    61   7 N    3.345 --    60 C    1.212    57 C    1.200    55 Co   0.641
    62   6 C    3.932 --    69 C    1.332    60 C    1.321    63 C    1.023
    63   6 C    3.986 --    64 C    1.395    68 C    1.394    62 C    1.023
                            66 N    0.107
    64   6 C    3.987 --    65 C    1.441    63 C    1.395    95 H    0.973
                            67 C    0.109
    65   6 C    3.972 --    64 C    1.441    66 N    1.416    96 H    0.972
                            68 C    0.109
    66   7 N    3.031 --    65 C    1.416    67 C    1.416    63 C    0.107
    67   6 C    3.972 --    68 C    1.441    66 N    1.416    97 H    0.972
                            64 C    0.109
    68   6 C    3.987 --    67 C    1.441    63 C    1.394    98 H    0.973
                            65 C    0.109
    69   6 C    3.917 --    62 C    1.332    72 N    1.193    70 C    1.181
    70   6 C    3.958 --    71 C    1.638    69 C    1.181    99 H    0.973
    71   6 C    3.962 --    70 C    1.638    73 C    1.190   100 H    0.971
    72   7 N    3.349 --    73 C    1.230    69 C    1.193    55 Co   0.634
    73   6 C    3.909 --    74 C    1.263    72 N    1.230    71 C    1.190
    74   6 C    3.934 --    75 C    1.266    73 C    1.263   110 C    1.178
    75   6 C    3.909 --    74 C    1.266    79 N    1.228    76 C    1.189
    76   6 C    3.962 --    77 C    1.637    75 C    1.189   101 H    0.971
    77   6 C    3.959 --    76 C    1.637    78 C    1.182   102 H    0.973
    78   6 C    3.918 --    80 C    1.329    79 N    1.195    77 C    1.182
    79   7 N    3.347 --    75 C    1.228    78 C    1.195    55 Co   0.636
    80   6 C    3.932 --    78 C    1.329    87 C    1.318    81 C    1.031
    81   6 C    3.986 --    82 C    1.392    86 C    1.391    80 C    1.031
                            84 N    0.106
    82   6 C    3.986 --    83 C    1.442    81 C    1.392   103 H    0.973
                            85 C    0.108
    83   6 C    3.972 --    82 C    1.442    84 N    1.416   104 H    0.972
                            86 C    0.108
    84   7 N    3.030 --    83 C    1.416    85 C    1.415    81 C    0.106
    85   6 C    3.972 --    86 C    1.442    84 N    1.415   105 H    0.972
                            82 C    0.108
    86   6 C    3.987 --    85 C    1.442    81 C    1.391   106 H    0.973
                            83 C    0.108
    87   6 C    3.921 --    80 C    1.318    91 N    1.212    88 C    1.176
    88   6 C    3.963 --    89 C    1.648    87 C    1.176   107 H    0.973
    89   6 C    3.960 --    88 C    1.648    90 C    1.175   108 H    0.975
    90   6 C    3.924 --    56 C    1.363    91 N    1.202    89 C    1.175
    91   7 N    3.346 --    87 C    1.212    90 C    1.202    55 Co   0.637
    92   1 H    1.000 --    56 C    0.970
    93   1 H    0.997 --    58 C    0.975
    94   1 H    1.004 --    59 C    0.972
    95   1 H    1.003 --    64 C    0.973
    96   1 H    1.013 --    65 C    0.972
    97   1 H    1.013 --    67 C    0.972
    98   1 H    1.003 --    68 C    0.973
    99   1 H    1.004 --    70 C    0.973
   100   1 H    1.004 --    71 C    0.971
   101   1 H    1.004 --    76 C    0.971
   102   1 H    1.003 --    77 C    0.973
   103   1 H    1.004 --    82 C    0.973
   104   1 H    1.013 --    83 C    0.972
   105   1 H    1.013 --    85 C    0.972
   106   1 H    1.004 --    86 C    0.973
   107   1 H    1.004 --    88 C    0.973
   108   1 H    0.997 --    89 C    0.975
   109   6 C    3.930 --   110 C    2.574    20 C    1.178
   110   6 C    3.930 --   109 C    2.574    74 C    1.178
 ---------------------------------------------------------------------------

           -------------------------------------------------
          | TOTAL ENERGY             -194.614690840714 Eh   |
          | GRADIENT NORM               0.000500372658 Eh/α |
          | HOMO-LUMO GAP               0.009439281279 eV   |
           -------------------------------------------------

 * finished run on 2022/07/29 at 22:24:59.305
